 Entering Gaussian System, Link 0=g16
 Initial command:
 /sw/cluster/pub/apps//g16/l1.exe "/data/natrosa/25353/Gau-185288.inp" -scrdir="/data/natrosa/25353/"
 Entering Link 1 = /sw/cluster/pub/apps//g16/l1.exe PID=    185289.
  
 Copyright (c) 1988,1990,1992,1993,1995,1998,2003,2009,2016,
            Gaussian, Inc.  All Rights Reserved.
  
 This is part of the Gaussian(R) 16 program.  It is based on
 the Gaussian(R) 09 system (copyright 2009, Gaussian, Inc.),
 the Gaussian(R) 03 system (copyright 2003, Gaussian, Inc.),
 the Gaussian(R) 98 system (copyright 1998, Gaussian, Inc.),
 the Gaussian(R) 94 system (copyright 1995, Gaussian, Inc.),
 the Gaussian 92(TM) system (copyright 1992, Gaussian, Inc.),
 the Gaussian 90(TM) system (copyright 1990, Gaussian, Inc.),
 the Gaussian 88(TM) system (copyright 1988, Gaussian, Inc.),
 the Gaussian 86(TM) system (copyright 1986, Carnegie Mellon
 University), and the Gaussian 82(TM) system (copyright 1983,
 Carnegie Mellon University). Gaussian is a federally registered
 trademark of Gaussian, Inc.
  
 This software contains proprietary and confidential information,
 including trade secrets, belonging to Gaussian, Inc.
  
 This software is provided under written license and may be
 used, copied, transmitted, or stored only in accord with that
 written license.
  
 The following legend is applicable only to US Government
 contracts under FAR:
  
                    RESTRICTED RIGHTS LEGEND
  
 Use, reproduction and disclosure by the US Government is
 subject to restrictions as set forth in subparagraphs (a)
 and (c) of the Commercial Computer Software - Restricted
 Rights clause in FAR 52.227-19.
  
 Gaussian, Inc.
 340 Quinnipiac St., Bldg. 40, Wallingford CT 06492
  
  
 ---------------------------------------------------------------
 Warning -- This program may not be used in any manner that
 competes with the business of Gaussian, Inc. or will provide
 assistance to any competitor of Gaussian, Inc.  The licensee
 of this program is prohibited from giving any competitor of
 Gaussian, Inc. access to this program.  By using this program,
 the user acknowledges that Gaussian, Inc. is engaged in the
 business of creating and licensing software in the field of
 computational chemistry and represents and warrants to the
 licensee that it is not a competitor of Gaussian, Inc. and that
 it will not use this program in any manner prohibited above.
 ---------------------------------------------------------------
  

 Cite this work as:
 Gaussian 16, Revision A.03,
 M. J. Frisch, G. W. Trucks, H. B. Schlegel, G. E. Scuseria, 
 M. A. Robb, J. R. Cheeseman, G. Scalmani, V. Barone, 
 G. A. Petersson, H. Nakatsuji, X. Li, M. Caricato, A. V. Marenich, 
 J. Bloino, B. G. Janesko, R. Gomperts, B. Mennucci, H. P. Hratchian, 
 J. V. Ortiz, A. F. Izmaylov, J. L. Sonnenberg, D. Williams-Young, 
 F. Ding, F. Lipparini, F. Egidi, J. Goings, B. Peng, A. Petrone, 
 T. Henderson, D. Ranasinghe, V. G. Zakrzewski, J. Gao, N. Rega, 
 G. Zheng, W. Liang, M. Hada, M. Ehara, K. Toyota, R. Fukuda, 
 J. Hasegawa, M. Ishida, T. Nakajima, Y. Honda, O. Kitao, H. Nakai, 
 T. Vreven, K. Throssell, J. A. Montgomery, Jr., J. E. Peralta, 
 F. Ogliaro, M. J. Bearpark, J. J. Heyd, E. N. Brothers, K. N. Kudin, 
 V. N. Staroverov, T. A. Keith, R. Kobayashi, J. Normand, 
 K. Raghavachari, A. P. Rendell, J. C. Burant, S. S. Iyengar, 
 J. Tomasi, M. Cossi, J. M. Millam, M. Klene, C. Adamo, R. Cammi, 
 J. W. Ochterski, R. L. Martin, K. Morokuma, O. Farkas, 
 J. B. Foresman, and D. J. Fox, Gaussian, Inc., Wallingford CT, 2016.
 
 ******************************************
 Gaussian 16:  ES64L-G16RevA.03 25-Dec-2016
                 4-Nov-2024 
 ******************************************
 %oldchk=/home/natrosa/MOSSRI/REACAO-1/M06-2X-6-311+G-D/CURCUMIN-OPT-FREQ-Reag-1-
 M06-2X-6-311+G-D-298.chk
 %chk=CURCUMIN-OPT-FREQ-Reag-1-M06-2X-6-311+G-D-363.chk
 Copying data from "/home/natrosa/MOSSRI/REACAO-1/M06-2X-6-311+G-D/CURCUMIN-OPT-FREQ-Reag-1-M06-2X-6-311+G-D-298.chk" to current chk file "CURCUMIN-OPT-FREQ-Reag-1-M06-2X-6-311+G-D-363.chk"
 IOpt=  2 FromEx=T IUOpen= 4 IOptOp= 5 NList=   0 IFRang= 0 IUIn= 4 IUOut= 2.
 ----------------------------------------------------------------------
 # opt=(calcfc) freq=noraman M062X/6-311+g(d) scrf=(smd,solvent=generic
 ,read) temperature=363.15 Geom=Check Guess=Read
 ----------------------------------------------------------------------
 1/10=4,18=20,19=15,26=3,29=2,38=1,40=2,112=363150/1,3;
 2/9=110,12=2,40=1/2;
 3/5=4,6=6,7=11,11=2,14=-4,25=1,30=1,70=32203,71=2,72=-2,74=-55,116=-2,140=1/1,2,3;
 4/5=1/1;
 5/5=2,38=6/2;
 8/6=4,10=90,11=11/1;
 11/6=1,8=1,9=11,15=111,16=1/1,2,10;
 10/6=1,13=1/2;
 6/7=2,8=2,9=2,10=2,28=1/1;
 7/10=1,18=20,25=1/1,2,3,16;
 1/10=4,18=20,19=15,26=3/3(2);
 2/9=110/2;
 99//99;
 2/9=110/2;
 3/5=4,6=6,7=11,11=2,14=-2,25=1,30=1,70=32205,71=1,72=-2,74=-55/1,2,3;
 4/5=5,16=3,69=1/1;
 5/5=2,38=5/2;
 7//1,2,3,16;
 1/18=20,19=15,26=3/3(-5);
 2/9=110/2;
 6/7=2,8=2,9=2,10=2,19=2,28=1/1;
 99/9=1/99;
 ----------
 Reagente 1
 ----------
 Structure from the checkpoint file:  "CURCUMIN-OPT-FREQ-Reag-1-M06-2X-6-311+G-D-363.chk"
 Charge =  0 Multiplicity = 2
 Redundant internal coordinates found in file.  (old form).
 C,0,2.0157623618,1.1252794528,1.2892979077
 H,0,1.6820985758,2.1589574936,1.3194864038
 C,0,1.2730486089,0.1720464186,1.8998877736
 H,0,1.5712885173,-0.8716883204,1.909352474
 C,0,0.0242663251,0.4457141061,2.6218213289
 O,0,-0.5473652816,-0.4474436046,3.2205473421
 C,0,3.2498335159,0.9235830428,0.5854450095
 C,0,3.9384971345,1.9980881985,0.0610952227
 C,0,3.8175544428,-0.4508299713,0.4092260263
 C,0,5.1906276206,1.8596757538,-0.5400544885
 H,0,3.5088728205,2.9899515788,0.1543772719
 C,0,5.1790483509,-0.5232788016,-0.194303468
 H,0,3.7700884328,-1.0538872665,1.3195266968
 C,0,5.8291983313,0.6036940302,-0.6282418028
 H,0,5.7076138653,2.7360583865,-0.917254489
 O,0,7.0939728128,0.4886468379,-1.1150753982
 H,0,7.4227589155,1.352579395,-1.3961266001
 O,0,5.6187174373,-1.7883834169,-0.2553230932
 C,0,6.460117379,-2.1982625833,-1.3439279462
 H,0,7.4952071189,-1.9185176954,-1.1624836767
 H,0,6.3648496806,-3.2809340718,-1.3878110621
 H,0,6.1086595084,-1.7556991352,-2.2769451457
 C,0,-2.8904892452,0.7225401636,1.1728819917
 H,0,-2.6329663261,0.3896639314,2.1751348992
 C,0,-2.1531564982,1.6864464926,0.5966277538
 H,0,-2.3664062442,2.0538456615,-0.4027031885
 C,0,-1.0055596545,2.3382785124,1.2451019176
 O,0,-0.4241250709,3.2526853666,0.6911582577
 C,0,-4.0405465021,0.0364265961,0.5868700731
 C,0,-4.6487826765,-0.9915188987,1.3126921072
 C,0,-4.5657609079,0.3624902051,-0.6737818385
 C,0,-5.7382131653,-1.6837790443,0.7994371576
 H,0,-4.2588241638,-1.2591029893,2.289192712
 C,0,-5.6499414312,-0.3174487916,-1.1932477157
 H,0,-4.1354996669,1.1528195418,-1.2792152309
 C,0,-6.2429001928,-1.358563954,-0.4546548091
 H,0,-6.1951125584,-2.4879696476,1.3684702168
 O,0,-7.2885412553,-2.0027630102,-1.0223953546
 H,0,-7.6105582293,-2.7006612255,-0.4362998839
 O,0,-6.1156304063,-0.0093375298,-2.4389997081
 C,0,-7.3538372081,0.7009572448,-2.4294405873
 H,0,-7.2351455852,1.6602148751,-1.9170778821
 H,0,-7.6205991275,0.8748186242,-3.4705185515
 H,0,-8.1379205541,0.1163496174,-1.94439985
 C,0,-0.5498430723,1.8615461049,2.6231732378
 H,0,-1.3902241896,1.869151808,3.3184038241
 H,0,0.2011563262,2.5683510589,2.9791909763
 O,0,2.2611489508,-2.1760931386,-0.1056018117
 O,0,2.8671033641,-0.8976788721,-1.7209261141
 N,0,2.8900288161,-1.2540285302,-0.5667798861
 Recover connectivity data from disk.

 GradGradGradGradGradGradGradGradGradGradGradGradGradGradGradGradGradGrad
 Berny optimization.
 Initialization pass.
                           ----------------------------
                           !    Initial Parameters    !
                           ! (Angstroms and Degrees)  !
 --------------------------                            --------------------------
 ! Name  Definition              Value          Derivative Info.                !
 --------------------------------------------------------------------------------
 ! R1    R(1,2)                  1.0866         calculate D2E/DX2 analytically  !
 ! R2    R(1,3)                  1.3539         calculate D2E/DX2 analytically  !
 ! R3    R(1,7)                  1.4349         calculate D2E/DX2 analytically  !
 ! R4    R(3,4)                  1.0856         calculate D2E/DX2 analytically  !
 ! R5    R(3,5)                  1.4682         calculate D2E/DX2 analytically  !
 ! R6    R(5,6)                  1.2178         calculate D2E/DX2 analytically  !
 ! R7    R(5,45)                 1.5278         calculate D2E/DX2 analytically  !
 ! R8    R(7,8)                  1.3798         calculate D2E/DX2 analytically  !
 ! R9    R(7,9)                  1.4975         calculate D2E/DX2 analytically  !
 ! R10   R(8,10)                 1.3958         calculate D2E/DX2 analytically  !
 ! R11   R(8,11)                 1.0849         calculate D2E/DX2 analytically  !
 ! R12   R(9,12)                 1.491          calculate D2E/DX2 analytically  !
 ! R13   R(9,13)                 1.093          calculate D2E/DX2 analytically  !
 ! R14   R(9,50)                 1.5678         calculate D2E/DX2 analytically  !
 ! R15   R(10,14)                1.4118         calculate D2E/DX2 analytically  !
 ! R16   R(10,15)                1.0852         calculate D2E/DX2 analytically  !
 ! R17   R(12,14)                1.3715         calculate D2E/DX2 analytically  !
 ! R18   R(12,18)                1.3407         calculate D2E/DX2 analytically  !
 ! R19   R(14,16)                1.3601         calculate D2E/DX2 analytically  !
 ! R20   R(16,17)                0.9662         calculate D2E/DX2 analytically  !
 ! R21   R(18,19)                1.4356         calculate D2E/DX2 analytically  !
 ! R22   R(19,20)                1.0875         calculate D2E/DX2 analytically  !
 ! R23   R(19,21)                1.0877         calculate D2E/DX2 analytically  !
 ! R24   R(19,22)                1.0908         calculate D2E/DX2 analytically  !
 ! R25   R(23,24)                1.087          calculate D2E/DX2 analytically  !
 ! R26   R(23,25)                1.3434         calculate D2E/DX2 analytically  !
 ! R27   R(23,29)                1.4618         calculate D2E/DX2 analytically  !
 ! R28   R(25,26)                1.0859         calculate D2E/DX2 analytically  !
 ! R29   R(25,27)                1.4705         calculate D2E/DX2 analytically  !
 ! R30   R(27,28)                1.217          calculate D2E/DX2 analytically  !
 ! R31   R(27,45)                1.5278         calculate D2E/DX2 analytically  !
 ! R32   R(29,30)                1.3977         calculate D2E/DX2 analytically  !
 ! R33   R(29,31)                1.4041         calculate D2E/DX2 analytically  !
 ! R34   R(30,32)                1.3891         calculate D2E/DX2 analytically  !
 ! R35   R(30,33)                1.085          calculate D2E/DX2 analytically  !
 ! R36   R(31,34)                1.3812         calculate D2E/DX2 analytically  !
 ! R37   R(31,35)                1.0846         calculate D2E/DX2 analytically  !
 ! R38   R(32,36)                1.3904         calculate D2E/DX2 analytically  !
 ! R39   R(32,37)                1.0859         calculate D2E/DX2 analytically  !
 ! R40   R(34,36)                1.4075         calculate D2E/DX2 analytically  !
 ! R41   R(34,40)                1.3652         calculate D2E/DX2 analytically  !
 ! R42   R(36,38)                1.353          calculate D2E/DX2 analytically  !
 ! R43   R(38,39)                0.9666         calculate D2E/DX2 analytically  !
 ! R44   R(40,41)                1.4275         calculate D2E/DX2 analytically  !
 ! R45   R(41,42)                1.094          calculate D2E/DX2 analytically  !
 ! R46   R(41,43)                1.0887         calculate D2E/DX2 analytically  !
 ! R47   R(41,44)                1.0917         calculate D2E/DX2 analytically  !
 ! R48   R(45,46)                1.0907         calculate D2E/DX2 analytically  !
 ! R49   R(45,47)                1.091          calculate D2E/DX2 analytically  !
 ! R50   R(48,50)                1.2076         calculate D2E/DX2 analytically  !
 ! R51   R(49,50)                1.2081         calculate D2E/DX2 analytically  !
 ! A1    A(2,1,3)              119.2604         calculate D2E/DX2 analytically  !
 ! A2    A(2,1,7)              114.2945         calculate D2E/DX2 analytically  !
 ! A3    A(3,1,7)              126.4433         calculate D2E/DX2 analytically  !
 ! A4    A(1,3,4)              122.016          calculate D2E/DX2 analytically  !
 ! A5    A(1,3,5)              123.8564         calculate D2E/DX2 analytically  !
 ! A6    A(4,3,5)              114.1178         calculate D2E/DX2 analytically  !
 ! A7    A(3,5,6)              120.2855         calculate D2E/DX2 analytically  !
 ! A8    A(3,5,45)             119.5245         calculate D2E/DX2 analytically  !
 ! A9    A(6,5,45)             120.1892         calculate D2E/DX2 analytically  !
 ! A10   A(1,7,8)              120.4107         calculate D2E/DX2 analytically  !
 ! A11   A(1,7,9)              120.8499         calculate D2E/DX2 analytically  !
 ! A12   A(8,7,9)              118.7391         calculate D2E/DX2 analytically  !
 ! A13   A(7,8,10)             122.2879         calculate D2E/DX2 analytically  !
 ! A14   A(7,8,11)             118.7922         calculate D2E/DX2 analytically  !
 ! A15   A(10,8,11)            118.8754         calculate D2E/DX2 analytically  !
 ! A16   A(7,9,12)             116.003          calculate D2E/DX2 analytically  !
 ! A17   A(7,9,13)             113.0758         calculate D2E/DX2 analytically  !
 ! A18   A(7,9,50)             108.6132         calculate D2E/DX2 analytically  !
 ! A19   A(12,9,13)            110.4855         calculate D2E/DX2 analytically  !
 ! A20   A(12,9,50)            105.268          calculate D2E/DX2 analytically  !
 ! A21   A(13,9,50)            102.1295         calculate D2E/DX2 analytically  !
 ! A22   A(8,10,14)            121.3912         calculate D2E/DX2 analytically  !
 ! A23   A(8,10,15)            119.8002         calculate D2E/DX2 analytically  !
 ! A24   A(14,10,15)           118.7693         calculate D2E/DX2 analytically  !
 ! A25   A(9,12,14)            121.3991         calculate D2E/DX2 analytically  !
 ! A26   A(9,12,18)            111.3287         calculate D2E/DX2 analytically  !
 ! A27   A(14,12,18)           127.265          calculate D2E/DX2 analytically  !
 ! A28   A(10,14,12)           119.7918         calculate D2E/DX2 analytically  !
 ! A29   A(10,14,16)           121.2138         calculate D2E/DX2 analytically  !
 ! A30   A(12,14,16)           118.9832         calculate D2E/DX2 analytically  !
 ! A31   A(14,16,17)           110.1777         calculate D2E/DX2 analytically  !
 ! A32   A(12,18,19)           119.7433         calculate D2E/DX2 analytically  !
 ! A33   A(18,19,20)           110.9709         calculate D2E/DX2 analytically  !
 ! A34   A(18,19,21)           105.274          calculate D2E/DX2 analytically  !
 ! A35   A(18,19,22)           110.1154         calculate D2E/DX2 analytically  !
 ! A36   A(20,19,21)           110.2515         calculate D2E/DX2 analytically  !
 ! A37   A(20,19,22)           110.183          calculate D2E/DX2 analytically  !
 ! A38   A(21,19,22)           109.9437         calculate D2E/DX2 analytically  !
 ! A39   A(24,23,25)           119.024          calculate D2E/DX2 analytically  !
 ! A40   A(24,23,29)           114.348          calculate D2E/DX2 analytically  !
 ! A41   A(25,23,29)           126.6275         calculate D2E/DX2 analytically  !
 ! A42   A(23,25,26)           121.987          calculate D2E/DX2 analytically  !
 ! A43   A(23,25,27)           123.8627         calculate D2E/DX2 analytically  !
 ! A44   A(26,25,27)           114.1499         calculate D2E/DX2 analytically  !
 ! A45   A(25,27,28)           120.3437         calculate D2E/DX2 analytically  !
 ! A46   A(25,27,45)           119.4886         calculate D2E/DX2 analytically  !
 ! A47   A(28,27,45)           120.1675         calculate D2E/DX2 analytically  !
 ! A48   A(23,29,30)           118.6465         calculate D2E/DX2 analytically  !
 ! A49   A(23,29,31)           123.0409         calculate D2E/DX2 analytically  !
 ! A50   A(30,29,31)           118.3125         calculate D2E/DX2 analytically  !
 ! A51   A(29,30,32)           121.0616         calculate D2E/DX2 analytically  !
 ! A52   A(29,30,33)           119.4958         calculate D2E/DX2 analytically  !
 ! A53   A(32,30,33)           119.4405         calculate D2E/DX2 analytically  !
 ! A54   A(29,31,34)           121.1312         calculate D2E/DX2 analytically  !
 ! A55   A(29,31,35)           121.4687         calculate D2E/DX2 analytically  !
 ! A56   A(34,31,35)           117.3996         calculate D2E/DX2 analytically  !
 ! A57   A(30,32,36)           120.0916         calculate D2E/DX2 analytically  !
 ! A58   A(30,32,37)           120.3596         calculate D2E/DX2 analytically  !
 ! A59   A(36,32,37)           119.5459         calculate D2E/DX2 analytically  !
 ! A60   A(31,34,36)           119.8336         calculate D2E/DX2 analytically  !
 ! A61   A(31,34,40)           119.9915         calculate D2E/DX2 analytically  !
 ! A62   A(36,34,40)           120.1382         calculate D2E/DX2 analytically  !
 ! A63   A(32,36,34)           119.5648         calculate D2E/DX2 analytically  !
 ! A64   A(32,36,38)           123.204          calculate D2E/DX2 analytically  !
 ! A65   A(34,36,38)           117.2301         calculate D2E/DX2 analytically  !
 ! A66   A(36,38,39)           110.2919         calculate D2E/DX2 analytically  !
 ! A67   A(34,40,41)           113.708          calculate D2E/DX2 analytically  !
 ! A68   A(40,41,42)           110.2021         calculate D2E/DX2 analytically  !
 ! A69   A(40,41,43)           106.5946         calculate D2E/DX2 analytically  !
 ! A70   A(40,41,44)           111.0695         calculate D2E/DX2 analytically  !
 ! A71   A(42,41,43)           109.5374         calculate D2E/DX2 analytically  !
 ! A72   A(42,41,44)           109.84           calculate D2E/DX2 analytically  !
 ! A73   A(43,41,44)           109.5361         calculate D2E/DX2 analytically  !
 ! A74   A(5,45,27)            113.6076         calculate D2E/DX2 analytically  !
 ! A75   A(5,45,46)            107.2509         calculate D2E/DX2 analytically  !
 ! A76   A(5,45,47)            109.9979         calculate D2E/DX2 analytically  !
 ! A77   A(27,45,46)           110.057          calculate D2E/DX2 analytically  !
 ! A78   A(27,45,47)           107.3085         calculate D2E/DX2 analytically  !
 ! A79   A(46,45,47)           108.5329         calculate D2E/DX2 analytically  !
 ! A80   A(9,50,48)            117.4845         calculate D2E/DX2 analytically  !
 ! A81   A(9,50,49)            117.0541         calculate D2E/DX2 analytically  !
 ! A82   A(48,50,49)           125.4613         calculate D2E/DX2 analytically  !
 ! D1    D(2,1,3,4)           -179.134          calculate D2E/DX2 analytically  !
 ! D2    D(2,1,3,5)             -0.3433         calculate D2E/DX2 analytically  !
 ! D3    D(7,1,3,4)              0.3401         calculate D2E/DX2 analytically  !
 ! D4    D(7,1,3,5)            179.1309         calculate D2E/DX2 analytically  !
 ! D5    D(2,1,7,8)              2.5615         calculate D2E/DX2 analytically  !
 ! D6    D(2,1,7,9)           -177.6499         calculate D2E/DX2 analytically  !
 ! D7    D(3,1,7,8)           -176.9352         calculate D2E/DX2 analytically  !
 ! D8    D(3,1,7,9)              2.8534         calculate D2E/DX2 analytically  !
 ! D9    D(1,3,5,6)           -175.262          calculate D2E/DX2 analytically  !
 ! D10   D(1,3,5,45)             4.4096         calculate D2E/DX2 analytically  !
 ! D11   D(4,3,5,6)              3.6147         calculate D2E/DX2 analytically  !
 ! D12   D(4,3,5,45)          -176.7138         calculate D2E/DX2 analytically  !
 ! D13   D(3,5,45,27)           65.6289         calculate D2E/DX2 analytically  !
 ! D14   D(3,5,45,46)         -172.5262         calculate D2E/DX2 analytically  !
 ! D15   D(3,5,45,47)          -54.6745         calculate D2E/DX2 analytically  !
 ! D16   D(6,5,45,27)         -114.6993         calculate D2E/DX2 analytically  !
 ! D17   D(6,5,45,46)            7.1456         calculate D2E/DX2 analytically  !
 ! D18   D(6,5,45,47)          124.9974         calculate D2E/DX2 analytically  !
 ! D19   D(1,7,8,10)           174.9803         calculate D2E/DX2 analytically  !
 ! D20   D(1,7,8,11)            -2.5653         calculate D2E/DX2 analytically  !
 ! D21   D(9,7,8,10)            -4.8127         calculate D2E/DX2 analytically  !
 ! D22   D(9,7,8,11)           177.6417         calculate D2E/DX2 analytically  !
 ! D23   D(1,7,9,12)          -173.0075         calculate D2E/DX2 analytically  !
 ! D24   D(1,7,9,13)           -43.8782         calculate D2E/DX2 analytically  !
 ! D25   D(1,7,9,50)            68.7338         calculate D2E/DX2 analytically  !
 ! D26   D(8,7,9,12)             6.7845         calculate D2E/DX2 analytically  !
 ! D27   D(8,7,9,13)           135.9138         calculate D2E/DX2 analytically  !
 ! D28   D(8,7,9,50)          -111.4741         calculate D2E/DX2 analytically  !
 ! D29   D(7,8,10,14)           -0.7917         calculate D2E/DX2 analytically  !
 ! D30   D(7,8,10,15)         -178.4828         calculate D2E/DX2 analytically  !
 ! D31   D(11,8,10,14)         176.7519         calculate D2E/DX2 analytically  !
 ! D32   D(11,8,10,15)          -0.9392         calculate D2E/DX2 analytically  !
 ! D33   D(7,9,12,14)           -3.5975         calculate D2E/DX2 analytically  !
 ! D34   D(7,9,12,18)          177.3134         calculate D2E/DX2 analytically  !
 ! D35   D(13,9,12,14)        -133.9714         calculate D2E/DX2 analytically  !
 ! D36   D(13,9,12,18)          46.9395         calculate D2E/DX2 analytically  !
 ! D37   D(50,9,12,14)         116.4868         calculate D2E/DX2 analytically  !
 ! D38   D(50,9,12,18)         -62.6023         calculate D2E/DX2 analytically  !
 ! D39   D(7,9,50,48)         -111.7191         calculate D2E/DX2 analytically  !
 ! D40   D(7,9,50,49)           68.4019         calculate D2E/DX2 analytically  !
 ! D41   D(12,9,50,48)         123.4277         calculate D2E/DX2 analytically  !
 ! D42   D(12,9,50,49)         -56.4513         calculate D2E/DX2 analytically  !
 ! D43   D(13,9,50,48)           7.9776         calculate D2E/DX2 analytically  !
 ! D44   D(13,9,50,49)        -171.9014         calculate D2E/DX2 analytically  !
 ! D45   D(8,10,14,12)           4.2117         calculate D2E/DX2 analytically  !
 ! D46   D(8,10,14,16)        -174.5613         calculate D2E/DX2 analytically  !
 ! D47   D(15,10,14,12)       -178.074          calculate D2E/DX2 analytically  !
 ! D48   D(15,10,14,16)          3.153          calculate D2E/DX2 analytically  !
 ! D49   D(9,12,14,10)          -1.7613         calculate D2E/DX2 analytically  !
 ! D50   D(9,12,14,16)         177.0391         calculate D2E/DX2 analytically  !
 ! D51   D(18,12,14,10)        177.1726         calculate D2E/DX2 analytically  !
 ! D52   D(18,12,14,16)         -4.027          calculate D2E/DX2 analytically  !
 ! D53   D(9,12,18,19)         146.6403         calculate D2E/DX2 analytically  !
 ! D54   D(14,12,18,19)        -32.3827         calculate D2E/DX2 analytically  !
 ! D55   D(10,14,16,17)         -2.1509         calculate D2E/DX2 analytically  !
 ! D56   D(12,14,16,17)        179.0664         calculate D2E/DX2 analytically  !
 ! D57   D(12,18,19,20)         81.7922         calculate D2E/DX2 analytically  !
 ! D58   D(12,18,19,21)       -158.9372         calculate D2E/DX2 analytically  !
 ! D59   D(12,18,19,22)        -40.4754         calculate D2E/DX2 analytically  !
 ! D60   D(24,23,25,26)        179.8928         calculate D2E/DX2 analytically  !
 ! D61   D(24,23,25,27)         -0.3685         calculate D2E/DX2 analytically  !
 ! D62   D(29,23,25,26)          0.1876         calculate D2E/DX2 analytically  !
 ! D63   D(29,23,25,27)        179.9263         calculate D2E/DX2 analytically  !
 ! D64   D(24,23,29,30)         -2.7991         calculate D2E/DX2 analytically  !
 ! D65   D(24,23,29,31)        177.1441         calculate D2E/DX2 analytically  !
 ! D66   D(25,23,29,30)        176.9179         calculate D2E/DX2 analytically  !
 ! D67   D(25,23,29,31)         -3.1389         calculate D2E/DX2 analytically  !
 ! D68   D(23,25,27,28)       -176.2208         calculate D2E/DX2 analytically  !
 ! D69   D(23,25,27,45)          3.6052         calculate D2E/DX2 analytically  !
 ! D70   D(26,25,27,28)          3.5364         calculate D2E/DX2 analytically  !
 ! D71   D(26,25,27,45)       -176.6376         calculate D2E/DX2 analytically  !
 ! D72   D(25,27,45,5)          66.7345         calculate D2E/DX2 analytically  !
 ! D73   D(25,27,45,46)        -53.5373         calculate D2E/DX2 analytically  !
 ! D74   D(25,27,45,47)       -171.4545         calculate D2E/DX2 analytically  !
 ! D75   D(28,27,45,5)        -113.4391         calculate D2E/DX2 analytically  !
 ! D76   D(28,27,45,46)        126.2891         calculate D2E/DX2 analytically  !
 ! D77   D(28,27,45,47)          8.3719         calculate D2E/DX2 analytically  !
 ! D78   D(23,29,30,32)       -179.5063         calculate D2E/DX2 analytically  !
 ! D79   D(23,29,30,33)         -0.0318         calculate D2E/DX2 analytically  !
 ! D80   D(31,29,30,32)          0.5478         calculate D2E/DX2 analytically  !
 ! D81   D(31,29,30,33)       -179.9777         calculate D2E/DX2 analytically  !
 ! D82   D(23,29,31,34)        179.6174         calculate D2E/DX2 analytically  !
 ! D83   D(23,29,31,35)         -0.1086         calculate D2E/DX2 analytically  !
 ! D84   D(30,29,31,34)         -0.4392         calculate D2E/DX2 analytically  !
 ! D85   D(30,29,31,35)        179.8348         calculate D2E/DX2 analytically  !
 ! D86   D(29,30,32,36)         -0.0618         calculate D2E/DX2 analytically  !
 ! D87   D(29,30,32,37)        179.3135         calculate D2E/DX2 analytically  !
 ! D88   D(33,30,32,36)       -179.5366         calculate D2E/DX2 analytically  !
 ! D89   D(33,30,32,37)         -0.1612         calculate D2E/DX2 analytically  !
 ! D90   D(29,31,34,36)         -0.1515         calculate D2E/DX2 analytically  !
 ! D91   D(29,31,34,40)       -177.9515         calculate D2E/DX2 analytically  !
 ! D92   D(35,31,34,36)        179.5853         calculate D2E/DX2 analytically  !
 ! D93   D(35,31,34,40)          1.7852         calculate D2E/DX2 analytically  !
 ! D94   D(30,32,36,34)         -0.5391         calculate D2E/DX2 analytically  !
 ! D95   D(30,32,36,38)        179.0777         calculate D2E/DX2 analytically  !
 ! D96   D(37,32,36,34)       -179.9196         calculate D2E/DX2 analytically  !
 ! D97   D(37,32,36,38)         -0.3027         calculate D2E/DX2 analytically  !
 ! D98   D(31,34,36,32)          0.6448         calculate D2E/DX2 analytically  !
 ! D99   D(31,34,36,38)       -178.9947         calculate D2E/DX2 analytically  !
 ! D100  D(40,34,36,32)        178.4416         calculate D2E/DX2 analytically  !
 ! D101  D(40,34,36,38)         -1.1979         calculate D2E/DX2 analytically  !
 ! D102  D(31,34,40,41)       -107.0432         calculate D2E/DX2 analytically  !
 ! D103  D(36,34,40,41)         75.1636         calculate D2E/DX2 analytically  !
 ! D104  D(32,36,38,39)         -0.2304         calculate D2E/DX2 analytically  !
 ! D105  D(34,36,38,39)        179.3948         calculate D2E/DX2 analytically  !
 ! D106  D(34,40,41,42)         61.854          calculate D2E/DX2 analytically  !
 ! D107  D(34,40,41,43)       -179.3633         calculate D2E/DX2 analytically  !
 ! D108  D(34,40,41,44)        -60.1052         calculate D2E/DX2 analytically  !
 --------------------------------------------------------------------------------
 Trust Radius=3.00D-01 FncErr=1.00D-07 GrdErr=1.00D-06 EigMax=2.50D+02 EigMin=1.00D-04
 Number of steps in this run=    251 maximum allowed number of steps=    300.
 GradGradGradGradGradGradGradGradGradGradGradGradGradGradGradGradGradGrad

                          Input orientation:                          
 ---------------------------------------------------------------------
 Center     Atomic      Atomic             Coordinates (Angstroms)
 Number     Number       Type             X           Y           Z
 ---------------------------------------------------------------------
      1          6           0        2.015762    1.125279    1.289298
      2          1           0        1.682099    2.158957    1.319486
      3          6           0        1.273049    0.172046    1.899888
      4          1           0        1.571289   -0.871688    1.909352
      5          6           0        0.024266    0.445714    2.621821
      6          8           0       -0.547365   -0.447444    3.220547
      7          6           0        3.249834    0.923583    0.585445
      8          6           0        3.938497    1.998088    0.061095
      9          6           0        3.817554   -0.450830    0.409226
     10          6           0        5.190628    1.859676   -0.540054
     11          1           0        3.508873    2.989952    0.154377
     12          6           0        5.179048   -0.523279   -0.194303
     13          1           0        3.770088   -1.053887    1.319527
     14          6           0        5.829198    0.603694   -0.628242
     15          1           0        5.707614    2.736058   -0.917254
     16          8           0        7.093973    0.488647   -1.115075
     17          1           0        7.422759    1.352579   -1.396127
     18          8           0        5.618717   -1.788383   -0.255323
     19          6           0        6.460117   -2.198263   -1.343928
     20          1           0        7.495207   -1.918518   -1.162484
     21          1           0        6.364850   -3.280934   -1.387811
     22          1           0        6.108660   -1.755699   -2.276945
     23          6           0       -2.890489    0.722540    1.172882
     24          1           0       -2.632966    0.389664    2.175135
     25          6           0       -2.153156    1.686446    0.596628
     26          1           0       -2.366406    2.053846   -0.402703
     27          6           0       -1.005560    2.338279    1.245102
     28          8           0       -0.424125    3.252685    0.691158
     29          6           0       -4.040547    0.036427    0.586870
     30          6           0       -4.648783   -0.991519    1.312692
     31          6           0       -4.565761    0.362490   -0.673782
     32          6           0       -5.738213   -1.683779    0.799437
     33          1           0       -4.258824   -1.259103    2.289193
     34          6           0       -5.649941   -0.317449   -1.193248
     35          1           0       -4.135500    1.152820   -1.279215
     36          6           0       -6.242900   -1.358564   -0.454655
     37          1           0       -6.195113   -2.487970    1.368470
     38          8           0       -7.288541   -2.002763   -1.022395
     39          1           0       -7.610558   -2.700661   -0.436300
     40          8           0       -6.115630   -0.009338   -2.439000
     41          6           0       -7.353837    0.700957   -2.429441
     42          1           0       -7.235146    1.660215   -1.917078
     43          1           0       -7.620599    0.874819   -3.470519
     44          1           0       -8.137921    0.116350   -1.944400
     45          6           0       -0.549843    1.861546    2.623173
     46          1           0       -1.390224    1.869152    3.318404
     47          1           0        0.201156    2.568351    2.979191
     48          8           0        2.261149   -2.176093   -0.105602
     49          8           0        2.867103   -0.897679   -1.720926
     50          7           0        2.890029   -1.254029   -0.566780
 ---------------------------------------------------------------------
                    Distance matrix (angstroms):
                    1          2          3          4          5
     1  C    0.000000
     2  H    1.086615   0.000000
     3  C    1.353919   2.109977   0.000000
     4  H    2.137734   3.089504   1.085550   0.000000
     5  C    2.490679   2.716558   1.468175   2.153239   0.000000
     6  O    3.573906   3.921463   2.332770   2.527431   1.217771
     7  C    1.434929   2.126678   2.490029   2.791638   3.844408
     8  C    2.442782   2.588583   3.717553   4.153956   4.928325
     9  C    2.550510   3.492812   3.014060   2.733718   4.482009
    10  C    3.737063   3.982115   4.914147   5.153597   6.219971
    11  H    2.644698   2.320589   3.998288   4.663307   4.970302
    12  C    3.863314   4.659894   4.486195   4.190786   5.953258
    13  H    2.797739   3.831719   2.841644   2.283815   4.239806
    14  C    4.300152   4.838484   5.228409   5.171647   6.654705
    15  H    4.592739   4.641210   5.846009   6.173713   7.076099
    16  O    5.654603   6.164853   6.563033   6.441872   7.996686
    17  H    6.041422   6.401561   7.076461   7.079072   8.467822
    18  O    4.884319   5.792969   5.231927   4.680580   6.675855
    19  C    6.142646   6.993469   6.560975   6.020322   8.008618
    20  H    6.730546   7.521849   7.243192   6.754616   8.702041
    21  H    6.745086   7.671378   6.975563   6.297141   8.376638
    22  H    6.145725   6.917608   6.674224   6.236529   8.115662
    23  C    4.924130   4.795138   4.262233   4.794936   3.266781
    24  H    4.789208   4.741552   3.921743   4.397432   2.695098
    25  C    4.263166   3.931281   3.966204   4.705188   3.222110
    26  H    4.788372   4.400838   4.699864   5.423079   4.177218
    27  C    3.256026   2.694661   3.211442   4.169564   2.556892
    28  O    3.291911   2.455039   3.719108   4.740900   3.436219
    29  C    6.193374   6.147400   5.475098   5.836636   4.564126
    30  C    6.992678   7.071464   6.063561   6.249772   5.061309
    31  C    6.910281   6.799718   6.383709   6.771939   5.651219
    32  C    8.261653   8.372461   7.335726   7.437756   6.407963
    33  H    6.786421   6.922285   5.727247   5.855304   4.621894
    34  C    8.185812   8.136660   7.598347   7.879053   6.879957
    35  H    6.666037   6.450582   6.349882   6.843466   5.746454
    36  C    8.798657   8.850206   8.023473   8.178455   7.210929
    37  H    8.971082   9.145862   7.945535   7.951220   6.989854
    38  O   10.084574  10.162515   9.304319   9.400588   8.529508
    39  H   10.501503  10.632598   9.624380   9.651608   8.805812
    40  O    9.017045   8.923693   8.570381   8.873587   7.969775
    41  C   10.089522   9.890822   9.666747  10.047697   8.945211
    42  H    9.805422   9.499544   9.443158   9.930024   8.647293
    43  H   10.750723  10.541980  10.413075  10.792780   9.784922
    44  H   10.703832  10.547890  10.166021  10.492682   9.358427
    45  C    2.983897   2.601849   2.588530   3.532607   1.527804
    46  H    4.033778   3.676796   3.461990   4.274130   2.124191
    47  H    2.868970   2.261728   2.838331   3.854308   2.159766
    48  O    3.592356   4.599874   3.242235   2.497483   4.395037
    49  O    3.725398   4.471171   4.098245   3.854703   5.361519
    50  N    3.141731   4.082349   3.276090   2.831341   4.611821
                    6          7          8          9         10
     6  O    0.000000
     7  C    4.821016   0.000000
     8  C    6.007140   1.379769   0.000000
     9  C    5.191923   1.497455   2.476494   0.000000
    10  C    7.238058   2.430988   1.395840   2.850421   0.000000
    11  H    6.137601   2.126687   1.084929   3.463988   2.141975
    12  C    6.667741   2.534420   2.821611   1.491027   2.407935
    13  H    4.756265   2.172540   3.305536   1.092968   3.736954
    14  C    7.521877   2.868534   2.448320   2.497013   1.411751
    15  H    8.147445   3.403507   2.152102   3.935496   1.085173
    16  O    8.835380   4.225914   3.690368   3.733769   2.415180
    17  H    9.384916   4.639393   3.831482   4.416909   2.443853
    18  O    7.204191   3.697738   4.154591   2.339842   3.684110
    19  C    8.544274   4.875892   5.093331   3.620802   4.327202
    20  H    9.276745   5.399629   5.430206   4.260224   4.469144
    21  H    8.777491   5.592408   5.987870   4.210409   5.340726
    22  H    8.731359   4.852290   4.926150   3.763956   4.114670
    23  C    3.324459   6.171634   7.035492   6.852577   8.338566
    24  H    2.478582   6.117149   7.088041   6.740481   8.410815
    25  C    3.743929   5.456591   6.123084   6.344483   7.433251
    26  H    4.763749   5.813440   6.322185   6.721161   7.560776
    27  C    3.445660   4.532646   5.095223   5.633848   6.465956
    28  O    4.483743   4.351306   4.582954   5.638028   5.914542
    29  C    4.401443   7.344160   8.233450   7.875197   9.476749
    30  C    4.556046   8.159941   9.178541   8.531557  10.410378
    31  C    5.654140   7.936246   8.691239   8.492018   9.871503
    32  C    5.859625   9.361042  10.379789   9.642879  11.566757
    33  H    3.911667   8.002925   9.097790   8.331595  10.345219
    34  C    6.747946   9.160235   9.943502   9.603082  11.076302
    35  H    5.973560   7.620542   8.228021   8.286953   9.382039
    36  C    6.839325   9.818452  10.732845  10.138196  11.878128
    37  H    6.284185  10.072677  11.159032  10.262728  12.336108
    38  O    8.115728  11.054682  11.967755  11.305016  13.072136
    39  H    8.266693  11.494660  12.478234  11.678117  13.589621
    40  O    7.951603   9.885824  10.552995  10.342895  11.615966
    41  C    8.920160  11.026193  11.636242  11.583809  12.738760
    42  H    8.692745  10.804630  11.352428  11.490447  12.503432
    43  H    9.825954  11.602565  12.138646  12.150766  13.178964
    44  H    9.198428  11.693275  12.385589  12.198140  13.515235
    45  C    2.385015   4.412443   5.169921   5.415054   6.554313
    46  H    2.467104   5.467477   6.246756   6.400515   7.628591
    47  H    3.116658   4.210667   4.775793   5.366424   6.146717
    48  O    4.683935   3.326114   4.501675   2.379912   5.005799
    49  O    6.023244   2.963583   3.564962   2.374990   3.794236
    50  N    5.177848   2.489794   3.474158   1.567807   3.871514
                   11         12         13         14         15
    11  H    0.000000
    12  C    3.905618   0.000000
    13  H    4.216449   2.135040   0.000000
    14  C    3.419156   1.371519   3.283491   0.000000
    15  H    2.459130   3.380136   4.808418   2.155293   0.000000
    16  O    4.552030   2.353455   4.399421   1.360109   2.648015
    17  H    4.517029   3.161876   5.148578   1.920914   2.255007
    18  O    5.239445   1.340717   2.537137   2.430104   4.573470
    19  C    6.154050   2.401738   3.954724   2.959937   5.009574
    20  H    6.458952   2.872047   4.558999   3.069618   4.992064
    21  H    7.061087   3.230363   4.361445   3.994271   6.071044
    22  H    5.932236   2.592380   4.346960   2.891895   4.710147
    23  C    6.865154   8.278810   6.894962   8.904556   9.074707
    24  H    6.969013   8.214334   6.619291   8.917004   9.199659
    25  C    5.826945   7.698681   6.566342   8.148046   8.073737
    26  H    5.975411   7.976145   7.090885   8.325968   8.119112
    27  C    4.689825   6.964896   5.858254   7.296034   7.064044
    28  O    3.978145   6.814507   6.044240   6.918239   6.360198
    29  C    8.118134   9.269543   7.920328   9.960429  10.226291
    30  C    9.151019   9.953720   8.419105  10.774972  11.230425
    31  C    8.531653   9.796724   8.687105  10.397857  10.546816
    32  C   10.381159  11.023651   9.543325  11.877534  12.389066
    33  H    9.107635   9.786860   8.089858  10.665347  11.205914
    34  C    9.830507  10.876915   9.777185  11.529891  11.764104
    35  H    7.991663   9.526130   8.609375  10.001026   9.976199
    36  C   10.694746  11.455409  10.173519  12.231768  12.640994
    37  H   11.209325  11.647910  10.067980  12.574947  13.198102
    38  O   11.953917  12.582345  11.343644  13.379988  13.833565
    39  H   12.504948  12.975885  11.632451  13.841339  14.393156
    40  O   10.409246  11.527036  10.627560  12.096842  12.232825
    41  C   11.397986  12.789363  11.869118  13.305871  13.305256
    42  H   11.022389  12.721942  11.788008  13.170209  13.025825
    43  H   11.894486  13.286054  12.506486  13.749513  13.697614
    44  H   12.178270  13.446696  12.402554  14.037457  14.128578
    45  C    4.882768   6.815113   5.372249   7.269530   7.242594
    46  H    5.938721   7.824205   6.258474   8.324509   8.310935
    47  H    4.370161   6.663982   5.349053   6.967661   6.747702
    48  O    5.320942   3.354668   2.359499   4.553169   6.055257
    49  O    4.363749   2.795683   3.175553   3.496010   4.681713
    50  N    4.349069   2.431531   2.091104   3.477589   4.897184
                   16         17         18         19         20
    16  O    0.000000
    17  H    0.966162   0.000000
    18  O    2.846124   3.797584   0.000000
    19  C    2.770131   3.679386   1.435624   0.000000
    20  H    2.440835   3.280231   2.088322   1.087470   0.000000
    21  H    3.849123   4.752756   2.016668   1.087740   1.784561
    22  H    2.712540   3.487706   2.080401   1.090828   1.786351
    23  C   10.245923  10.647058   8.986162  10.114310  10.967762
    24  H   10.268818  10.714417   8.873630  10.087881  10.910880
    25  C    9.480193   9.786761   8.555834   9.645994  10.448979
    26  H    9.615409   9.864402   8.862655   9.842451  10.658722
    27  C    8.636782   8.887308   7.947431   9.111510   9.807131
    28  O    8.211223   8.339110   7.926168   9.013723   9.638109
    29  C   11.272916  11.707771   9.866134  10.908059  11.830286
    30  C   12.082105  12.591847  10.417064  11.485709  12.428287
    31  C   11.668764  12.051003  10.417532  11.339160  12.284493
    32  C   13.154839  13.683975  11.406285  12.395885  13.380121
    33  H   11.980387  12.524450  10.213742  11.356817  12.268095
    34  C   12.769622  13.180503  11.402895  12.256169  13.242330
    35  H   11.250294  11.560576  10.239325  11.113102  12.029966
    36  C   13.480376  13.963771  11.871076  12.761761  13.767722
    37  H   13.842978  14.416631  11.945405  12.945883  13.933946
    38  O   14.597000  15.093719  12.931809  13.753807  14.784652
    39  H   15.061728  15.599700  13.261928  14.108866  15.143422
    40  O   13.285119  13.646625  12.067658  12.811714  13.803237
    41  C   14.509026  14.827007  13.386963  14.156594  15.131456
    42  H   14.399285  14.670385  13.411788  14.239964  15.177616
    43  H   14.906907  15.193221  13.881989  14.568212  15.544046
    44  H   15.258996  15.619335  13.990214  14.792590  15.784383
    45  C    8.619007   8.942941   7.723915   9.019949   9.661414
    46  H    9.671770  10.008112   8.676079   9.995452  10.647802
    47  H    8.282458   8.530712   7.667671   8.976890   9.512552
    48  O    5.610353   6.384293   3.383194   4.377817   5.345906
    49  O    4.489474   5.091479   3.242334   3.839713   4.772139
    50  N    4.583742   5.294135   2.797907   3.773734   4.690850
                   21         22         23         24         25
    21  H    0.000000
    22  H    1.783966   0.000000
    23  C   10.404146   9.951264   0.000000
    24  H   10.350293  10.041893   1.087031   0.000000
    25  C   10.058295   9.400180   1.343445   2.098463   0.000000
    26  H   10.279355   9.479038   2.128264   3.079903   1.085873
    27  C    9.634870   8.931830   2.483704   2.703796   1.470504
    28  O    9.648859   8.750476   3.566040   3.908716   2.334864
    29  C   11.098492  10.696707   1.461778   2.151428   2.506971
    30  C   11.568675  11.366267   2.459500   2.591330   3.729933
    31  C   11.543943  11.000005   2.519194   3.442784   3.031082
    32  C   12.402382  12.240004   3.746914   3.979230   4.924651
    33  H   11.422373  11.339354   2.654317   2.318373   3.996858
    34  C   12.376401  11.895699   3.780836   4.576915   4.409848
    35  H   11.398566  10.695688   2.783518   3.843507   2.780868
    36  C   12.787558  12.491577   4.268317   4.796219   5.206082
    37  H   12.883266  12.853330   4.611525   4.649771   5.861647
    38  O   13.717957  13.458080   5.620443   6.133701   6.527149
    39  H   14.019776  13.874360   6.048704   6.414524   7.077915
    40  O   12.944911  12.349466   4.897231   5.794686   5.271804
    41  C   14.322808  13.685658   5.735736   6.601942   6.097160
    42  H   14.479466  13.778792   5.413236   6.288128   5.669746
    43  H   14.737731  14.029853   6.630105   7.548858   6.862459
    44  H   14.905760  14.372898   6.133551   6.881118   6.688754
    45  C    9.505055   9.023928   2.979816   2.589706   2.590012
    46  H   10.431348  10.033979   2.858107   2.245074   2.832580
    47  H    9.553845   9.012379   4.028404   3.664074   3.463691
    48  O    4.439042   4.437882   6.047807   5.978063   5.907489
    49  O    4.245598   3.398977   6.644479   6.862019   6.103423
    50  N    4.105706   3.679120   6.351979   6.381481   5.952615
                   26         27         28         29         30
    26  H    0.000000
    27  C    2.155938   0.000000
    28  O    2.531048   1.216988   0.000000
    29  C    2.802139   3.865609   4.840837   0.000000
    30  C    4.174454   4.936111   6.020574   1.397655   0.000000
    31  C    2.787710   4.501210   5.231581   1.404069   2.405475
    32  C    5.175332   6.226843   7.253960   2.426183   1.389069
    33  H    4.669387   4.961352   6.133096   2.150336   1.084999
    34  C    4.126694   5.879517   6.603484   2.425737   2.781443
    35  H    2.170210   4.192137   4.697458   2.176608   3.402886
    36  C    5.164731   6.632161   7.512300   2.807336   2.408204
    37  H    6.198720   7.087972   8.168119   3.409638   2.152583
    38  O    6.408393   7.966307   8.813411   4.159026   3.666548
    39  H    7.078672   8.476086   9.399911   4.613405   3.840866
    40  O    4.739189   6.722851   7.268557   3.669326   4.146265
    41  C    5.550895   7.515565   8.016880   4.529639   4.917861
    42  H    5.113990   7.019038   7.465176   4.371717   4.914507
    43  H    6.197430   8.254547   8.646562   5.475590   5.932454
    44  H    6.280215   8.122836   8.734152   4.816865   4.900011
    45  C    3.534517   1.527754   2.384063   4.434253   5.163201
    46  H    3.851452   2.160238   3.122488   4.224259   4.777501
    47  H    4.277184   2.125126   2.468681   5.488705   6.242740
    48  O    6.276537   5.733702   6.108777   6.714620   7.152757
    49  O    6.151328   5.853739   5.820297   7.342622   8.105565
    50  N    6.212814   5.600285   5.733803   7.143463   7.773995
                   31         32         33         34         35
    31  C    0.000000
    32  C    2.780690   0.000000
    33  H    3.391606   2.142035   0.000000
    34  C    1.381162   2.417735   3.866434   0.000000
    35  H    1.084571   3.864683   4.308841   2.112490   0.000000
    36  C    2.413056   1.390403   3.387499   1.407494   3.380545
    37  H    3.866614   1.085946   2.471246   3.401584   4.950514
    38  O    3.623463   2.413367   4.549597   2.356795   4.468258
    39  H    4.325516   2.463082   4.554176   3.177529   5.256981
    40  O    2.378307   3.665197   5.231199   1.365173   2.572280
    41  C    3.312139   4.326992   5.973813   2.338500   3.447448
    42  H    3.217995   4.560982   5.922298   2.635898   3.205015
    43  H    4.173278   5.321872   7.002102   3.238974   4.126138
    44  H    3.799392   4.065427   5.904453   2.634853   4.187614
    45  C    5.407835   6.543281   4.858656   6.732317   5.346762
    46  H    5.318986   6.154146   4.367393   6.578861   5.402571
    47  H    6.397932   7.622863   5.917510   7.744187   6.240540
    48  O    7.305747   8.065436   7.006137   8.198956   7.305898
    49  O    7.611308   9.001203   8.184774   8.553079   7.310000
    50  N    7.629770   8.746302   7.698227   8.613985   7.460465
                   36         37         38         39         40
    36  C    0.000000
    37  H    2.145140   0.000000
    38  O    1.353029   2.673434   0.000000
    39  H    1.916260   2.303458   0.966574   0.000000
    40  O    2.402964   4.543871   2.712238   3.672715   0.000000
    41  C    3.061958   5.092742   3.048630   3.950889   1.427503
    42  H    3.498036   5.392952   3.771036   4.620701   2.076806
    43  H    3.997685   6.062687   3.792630   4.689418   2.027485
    44  H    2.825918   4.640268   2.462149   3.238522   2.085685
    45  C    7.228626   7.236134   8.580974   8.945826   7.752663
    46  H    6.942808   6.773013   8.283985   8.583330   7.681529
    47  H    8.290828   8.311020   9.643824  10.022522   8.712236
    48  O    8.550383   8.589442   9.595162   9.891165   8.961585
    49  O    9.209127   9.705522  10.239447  10.708987   9.055070
    50  N    9.134215   9.370571  10.216236  10.600571   9.282045
                   41         42         43         44         45
    41  C    0.000000
    42  H    1.093974   0.000000
    43  H    1.088684   1.782863   0.000000
    44  H    1.091704   1.788650   1.780993   0.000000
    45  C    8.553959   8.083791   9.386283   9.027035   0.000000
    46  H    8.364632   7.849652   9.267995   8.735034   1.090708
    47  H    9.477256   8.949679  10.278456   9.989708   1.091019
    48  O   10.301728  10.400880  10.875646  10.806346   5.625871
    49  O   10.369439  10.422895  10.779366  11.053902   6.177382
    50  N   10.593784  10.622395  11.110220  11.197832   5.631636
                   46         47         48         49         50
    46  H    0.000000
    47  H    1.770999   0.000000
    48  O    6.435864   6.022397   0.000000
    49  O    7.153673   6.419637   2.147277   0.000000
    50  N    6.570348   5.866390   1.207633   1.208124   0.000000
 Stoichiometry    C21H20NO8(2)
 Framework group  C1[X(C21H20NO8)]
 Deg. of freedom   144
 Full point group                 C1      NOp   1
 Largest Abelian subgroup         C1      NOp   1
 Largest concise Abelian subgroup C1      NOp   1
                         Standard orientation:                         
 ---------------------------------------------------------------------
 Center     Atomic      Atomic             Coordinates (Angstroms)
 Number     Number       Type             X           Y           Z
 ---------------------------------------------------------------------
      1          6           0        2.081318    1.555422    0.145911
      2          1           0        1.765321    2.340081   -0.536137
      3          6           0        1.331147    1.288772    1.241008
      4          1           0        1.612095    0.524493    1.958898
      5          6           0        0.096920    2.007200    1.581719
      6          8           0       -0.481369    1.772819    2.627479
      7          6           0        3.302278    0.902321   -0.230571
      8          6           0        4.001587    1.317631   -1.345131
      9          6           0        3.844648   -0.236254    0.576803
     10          6           0        5.243037    0.780392   -1.689436
     11          1           0        3.589806    2.116659   -1.952637
     12          6           0        5.196500   -0.729140    0.186010
     13          1           0        3.799422   -0.057309    1.654074
     14          6           0        5.859395   -0.213049   -0.898096
     15          1           0        5.769396    1.154428   -2.561585
     16          8           0        7.115413   -0.655642   -1.174549
     17          1           0        7.454703   -0.221266   -1.968066
     18          8           0        5.614216   -1.706526    1.003172
     19          6           0        6.433954   -2.765573    0.486003
     20          1           0        7.475900   -2.459305    0.429984
     21          1           0        6.320119   -3.586278    1.190747
     22          1           0        6.077373   -3.068999   -0.499233
     23          6           0       -2.832074    1.285960    0.327657
     24          1           0       -2.566650    1.718841    1.288802
     25          6           0       -2.086643    1.583910   -0.749563
     26          1           0       -2.307190    1.177355   -1.732005
     27          6           0       -0.919743    2.478136   -0.716610
     28          8           0       -0.330697    2.758348   -1.744018
     29          6           0       -4.001163    0.409195    0.363792
     30          6           0       -4.616577    0.163391    1.594355
     31          6           0       -4.537809   -0.198833   -0.782386
     32          6           0       -5.724177   -0.669650    1.688058
     33          1           0       -4.218010    0.623733    2.492382
     34          6           0       -5.640038   -1.027190   -0.701613
     35          1           0       -4.102658   -0.041304   -1.763265
     36          6           0       -6.240225   -1.274272    0.547293
     37          1           0       -6.186680   -0.861536    2.651671
     38          8           0       -7.303980   -2.110135    0.568431
     39          1           0       -7.629635   -2.215446    1.472379
     40          8           0       -6.117270   -1.639494   -1.824569
     41          6           0       -7.343256   -1.086393   -2.302902
     42          1           0       -7.201747   -0.037712   -2.580430
     43          1           0       -7.621082   -1.661952   -3.184252
     44          1           0       -8.130349   -1.167656   -1.550773
     45          6           0       -0.453503    3.057225    0.618046
     46          1           0       -1.284206    3.553917    1.120912
     47          1           0        0.313868    3.801122    0.398771
     48          8           0        2.252986   -1.816895    1.371891
     49          8           0        2.858308   -1.993029   -0.680756
     50          7           0        2.890842   -1.468950    0.407291
 ---------------------------------------------------------------------
 Rotational constants (GHZ):           0.2898143           0.0548588           0.0523436
 Standard basis: 6-311+G(d) (5D, 7F)
 There are   750 symmetry adapted cartesian basis functions of A   symmetry.
 There are   720 symmetry adapted basis functions of A   symmetry.
   720 basis functions,  1180 primitive gaussians,   750 cartesian basis functions
   109 alpha electrons      108 beta electrons
       nuclear repulsion energy      2739.5729025193 Hartrees.
 NAtoms=   50 NActive=   50 NUniq=   50 SFac= 1.00D+00 NAtFMM=   60 NAOKFM=F Big=F
 Integral buffers will be    131072 words long.
 Raffenetti 2 integral format.
 Two-electron integral symmetry is turned on.
 Force inversion solution in PCM.
 Using the following non-standard input for PCM:
 Eps=7
 EpsInf=1.85341
 HbondAcidity=0
 HbondBasicity=0.48
 SurfaceTensionAtInterface=60.62
 CarbonAromaticity=0
 ElectronegativeHalogenicity=0
 --- end of non-standard input.
 Force inversion solution in PCM.
 ------------------------------------------------------------------------------
 Polarizable Continuum Model (PCM)
 =================================
 Model                : PCM.
 Atomic radii         : SMD-Coulomb.
 Polarization charges : Total charges.
 Charge compensation  : None.
 Solution method      : Matrix inversion.
 Cavity type          : VdW (van der Waals Surface) (Alpha=1.000).
 Cavity algorithm     : GePol (No added spheres)
                        Default sphere list used, NSphG=   50.
                        Lebedev-Laikov grids with approx.  5.0 points / Ang**2.
                        Smoothing algorithm: York/Karplus (Gamma=1.0000).
                        Polarization charges: spherical gaussians, with
                                              point-specific exponents (IZeta= 3).
                        Self-potential: point-specific (ISelfS= 7).
                        Self-field    : sphere-specific E.n sum rule (ISelfD= 2).
 1st derivatives      : Analytical E(r).r(x)/FMM algorithm (CHGder, D1EAlg=3).
                        Cavity 1st derivative terms included.
 2nd derivatives      : Analytical E(r).r(xy)/FMM algorithm (CHGder, D2EAlg=3).
                        Cavity 2nd derivative terms included.
 Solvent              : Generic,
                        Eps                           =   7.000000
                        Eps(infinity)                 =   1.853410
                        RSolv                         =   0.000000 Ang.
                        Molar volume                  =   0.000000 cm**3/mol
                        Thermal expansion coefficient =   0.000000 K**-1
                        Absolute temperature          = 298.150000 K
                        Numeral density               =   0.000000 Ang**-3
                        Hydrogen bond acidity         =   0.000000
                        Hydrogen bond basicity        =   0.480000
                        Surface tension at interface  =  60.620000 (cal/mol)*Ang**-2
                        Carbon aromaticity            =   0.000000
                        Electronegative halogenicity  =   0.000000
 ------------------------------------------------------------------------------
 ------------------------------------------------------------------------------
 Atomic radii for non-electrostatic terms: SMD-CDS.
 ------------------------------------------------------------------------------
 Nuclear repulsion after PCM non-electrostatic terms =     2739.5687674873 Hartrees.
 One-electron integrals computed using PRISM.
 NBasis=   720 RedAO= T EigKep=  1.13D-06  NBF=   720
 NBsUse=   716 1.00D-06 EigRej=  7.21D-07 NBFU=   716
 Initial guess from the checkpoint file:  "CURCUMIN-OPT-FREQ-Reag-1-M06-2X-6-311+G-D-363.chk"
 B after Tr=     0.000000    0.000000    0.000000
         Rot=    1.000000    0.000000   -0.000000    0.000000 Ang=   0.00 deg.
 Initial guess <Sx>= 0.0000 <Sy>= 0.0000 <Sz>= 0.5000 <S**2>= 0.7940 S= 0.5217
 Requested convergence on RMS density matrix=1.00D-08 within 128 cycles.
 Requested convergence on MAX density matrix=1.00D-06.
 Requested convergence on             energy=1.00D-06.
 No special actions if energy rises.
 Inv3:  Mode=1 IEnd=    49231803.
 Iteration    1 A*A^-1 deviation from unit magnitude is 3.55D-15 for   1868.
 Iteration    1 A*A^-1 deviation from orthogonality  is 2.00D-15 for   3336   1515.
 Iteration    1 A^-1*A deviation from unit magnitude is 3.77D-15 for   1868.
 Iteration    1 A^-1*A deviation from orthogonality  is 1.14D-14 for   3772   3670.
 Error on total polarization charges =  0.03730
 SCF Done:  E(UM062X) =  -1468.44183115     A.U. after    2 cycles
            NFock=  2  Conv=0.12D-08     -V/T= 2.0035
 <Sx>= 0.0000 <Sy>= 0.0000 <Sz>= 0.5000 <S**2>= 0.7940 S= 0.5217
 <L.S>=  0.00000000000    
 SMD-CDS (non-electrostatic) energy       (kcal/mol) =      -2.59
 (included in total energy above)
 Annihilation of the first spin contaminant:
 S**2 before annihilation     0.7940,   after     0.7511
 DoSCS=F DFT=T ScalE2(SS,OS)=  1.000000  1.000000
 Range of M.O.s used for correlation:     1   716
 NBasis=   720 NAE=   109 NBE=   108 NFC=     0 NFV=     0
 NROrb=    716 NOA=   109 NOB=   108 NVA=   607 NVB=   608

 **** Warning!!: The largest alpha MO coefficient is  0.12962032D+03


 **** Warning!!: The largest beta MO coefficient is  0.14837281D+03

 Symmetrizing basis deriv contribution to polar:
 IMax=3 JMax=2 DiffMx= 0.00D+00
 G2DrvN: will do    26 centers at a time, making    2 passes.
 Calling FoFCou, ICntrl=  3107 FMM=F I1Cent=   0 AccDes= 0.00D+00.
 Calling FoFCou, ICntrl=  3107 FMM=F I1Cent=   0 AccDes= 0.00D+00.
 NEqPCM:  Using equilibrium solvation (IEInf=0, Eps=   7.0000, EpsInf=   1.8534)
 G2PCM: DoFxE=T DoFxN=T DoGrad=T DoDP/DQ/DG/TGxP=FFFF NFrqRd=   0 IEInf=0 SqF1=F DoCFld=F IF1Alg=4.
 End of G2Drv F.D. properties file   721 does not exist.
 End of G2Drv F.D. properties file   722 does not exist.
 End of G2Drv F.D. properties file   788 does not exist.
          IDoAtm=11111111111111111111111111111111111111111111111111
 NEqPCM:  Using equilibrium solvation (IEInf=0, Eps=   7.0000, EpsInf=   1.8534)
          Differentiating once with respect to nuclear coordinates.
 CalDSu exits because no D1Ps are significant.
          There are   153 degrees of freedom in the 1st order CPHF.  IDoFFX=6 NUNeed=     0.
    150 vectors produced by pass  0 Test12= 1.32D-13 1.00D-09 XBig12= 6.61D-01 1.45D-01.
 AX will form    38 AO Fock derivatives at one time.
    150 vectors produced by pass  1 Test12= 1.32D-13 1.00D-09 XBig12= 3.17D-02 3.45D-02.
    147 vectors produced by pass  2 Test12= 1.32D-13 1.00D-09 XBig12= 2.08D-03 9.67D-03.
    147 vectors produced by pass  3 Test12= 1.32D-13 1.00D-09 XBig12= 4.24D-05 9.87D-04.
    147 vectors produced by pass  4 Test12= 1.32D-13 1.00D-09 XBig12= 5.24D-07 5.44D-05.
    147 vectors produced by pass  5 Test12= 1.32D-13 1.00D-09 XBig12= 4.79D-09 4.18D-06.
    142 vectors produced by pass  6 Test12= 1.32D-13 1.00D-09 XBig12= 5.10D-11 3.40D-07.
    110 vectors produced by pass  7 Test12= 1.32D-13 1.00D-09 XBig12= 5.61D-13 3.63D-08.
     87 vectors produced by pass  8 Test12= 1.32D-13 1.00D-09 XBig12= 7.47D-14 9.60D-09.
     76 vectors produced by pass  9 Test12= 1.32D-13 1.00D-09 XBig12= 5.91D-14 1.04D-08.
     69 vectors produced by pass 10 Test12= 1.32D-13 1.00D-09 XBig12= 1.53D-13 1.60D-08.
     63 vectors produced by pass 11 Test12= 1.32D-13 1.00D-09 XBig12= 8.52D-14 9.85D-09.
     54 vectors produced by pass 12 Test12= 1.32D-13 1.00D-09 XBig12= 1.13D-13 1.29D-08.
     54 vectors produced by pass 13 Test12= 1.32D-13 1.00D-09 XBig12= 7.81D-14 1.24D-08.
     54 vectors produced by pass 14 Test12= 1.32D-13 1.00D-09 XBig12= 7.83D-14 1.20D-08.
     54 vectors produced by pass 15 Test12= 1.32D-13 1.00D-09 XBig12= 9.59D-14 1.16D-08.
     40 vectors produced by pass 16 Test12= 1.32D-13 1.00D-09 XBig12= 5.64D-14 9.21D-09.
     29 vectors produced by pass 17 Test12= 1.32D-13 1.00D-09 XBig12= 2.68D-14 5.88D-09.
     29 vectors produced by pass 18 Test12= 1.32D-13 1.00D-09 XBig12= 5.41D-14 6.86D-09.
     27 vectors produced by pass 19 Test12= 1.32D-13 1.00D-09 XBig12= 2.35D-14 5.03D-09.
     27 vectors produced by pass 20 Test12= 1.32D-13 1.00D-09 XBig12= 4.79D-14 6.56D-09.
     27 vectors produced by pass 21 Test12= 1.32D-13 1.00D-09 XBig12= 3.69D-14 6.44D-09.
     27 vectors produced by pass 22 Test12= 1.32D-13 1.00D-09 XBig12= 5.37D-14 6.97D-09.
     27 vectors produced by pass 23 Test12= 1.32D-13 1.00D-09 XBig12= 6.09D-14 8.24D-09.
     23 vectors produced by pass 24 Test12= 1.32D-13 1.00D-09 XBig12= 2.57D-14 5.11D-09.
     23 vectors produced by pass 25 Test12= 1.32D-13 1.00D-09 XBig12= 3.77D-14 7.28D-09.
     23 vectors produced by pass 26 Test12= 1.32D-13 1.00D-09 XBig12= 2.34D-14 5.79D-09.
     23 vectors produced by pass 27 Test12= 1.32D-13 1.00D-09 XBig12= 5.71D-14 7.38D-09.
     23 vectors produced by pass 28 Test12= 1.32D-13 1.00D-09 XBig12= 3.97D-14 8.28D-09.
     23 vectors produced by pass 29 Test12= 1.32D-13 1.00D-09 XBig12= 6.05D-14 6.56D-09.
     22 vectors produced by pass 30 Test12= 1.32D-13 1.00D-09 XBig12= 2.85D-14 5.79D-09.
     22 vectors produced by pass 31 Test12= 1.32D-13 1.00D-09 XBig12= 3.78D-14 6.22D-09.
     19 vectors produced by pass 32 Test12= 1.32D-13 1.00D-09 XBig12= 2.65D-14 4.57D-09.
     19 vectors produced by pass 33 Test12= 1.32D-13 1.00D-09 XBig12= 3.21D-14 6.07D-09.
     19 vectors produced by pass 34 Test12= 1.32D-13 1.00D-09 XBig12= 6.21D-14 8.41D-09.
     19 vectors produced by pass 35 Test12= 1.32D-13 1.00D-09 XBig12= 2.12D-14 4.87D-09.
     19 vectors produced by pass 36 Test12= 1.32D-13 1.00D-09 XBig12= 5.54D-14 6.84D-09.
     19 vectors produced by pass 37 Test12= 1.32D-13 1.00D-09 XBig12= 2.74D-14 6.30D-09.
     19 vectors produced by pass 38 Test12= 1.32D-13 1.00D-09 XBig12= 6.80D-14 7.66D-09.
     19 vectors produced by pass 39 Test12= 1.32D-13 1.00D-09 XBig12= 5.39D-14 7.86D-09.
     14 vectors produced by pass 40 Test12= 1.32D-13 1.00D-09 XBig12= 1.81D-14 3.86D-09.
     14 vectors produced by pass 41 Test12= 1.32D-13 1.00D-09 XBig12= 3.94D-14 5.99D-09.
     14 vectors produced by pass 42 Test12= 1.32D-13 1.00D-09 XBig12= 4.53D-14 6.81D-09.
     14 vectors produced by pass 43 Test12= 1.32D-13 1.00D-09 XBig12= 5.19D-14 6.74D-09.
     14 vectors produced by pass 44 Test12= 1.32D-13 1.00D-09 XBig12= 2.55D-14 5.20D-09.
     13 vectors produced by pass 45 Test12= 1.32D-13 1.00D-09 XBig12= 1.96D-14 4.39D-09.
     13 vectors produced by pass 46 Test12= 1.32D-13 1.00D-09 XBig12= 2.99D-14 5.41D-09.
     13 vectors produced by pass 47 Test12= 1.32D-13 1.00D-09 XBig12= 4.53D-14 6.39D-09.
     13 vectors produced by pass 48 Test12= 1.32D-13 1.00D-09 XBig12= 3.58D-14 5.26D-09.
     13 vectors produced by pass 49 Test12= 1.32D-13 1.00D-09 XBig12= 3.90D-14 5.57D-09.
     12 vectors produced by pass 50 Test12= 1.32D-13 1.00D-09 XBig12= 2.83D-14 5.14D-09.
     10 vectors produced by pass 51 Test12= 1.32D-13 1.00D-09 XBig12= 2.61D-14 5.72D-09.
      6 vectors produced by pass 52 Test12= 1.32D-13 1.00D-09 XBig12= 1.88D-14 4.34D-09.
      6 vectors produced by pass 53 Test12= 1.32D-13 1.00D-09 XBig12= 3.47D-14 5.69D-09.
      6 vectors produced by pass 54 Test12= 1.32D-13 1.00D-09 XBig12= 2.53D-14 4.65D-09.
      6 vectors produced by pass 55 Test12= 1.32D-13 1.00D-09 XBig12= 3.82D-14 6.55D-09.
      5 vectors produced by pass 56 Test12= 1.32D-13 1.00D-09 XBig12= 1.87D-14 4.73D-09.
      5 vectors produced by pass 57 Test12= 1.32D-13 1.00D-09 XBig12= 8.97D-14 9.83D-09.
      5 vectors produced by pass 58 Test12= 1.32D-13 1.00D-09 XBig12= 2.46D-14 4.75D-09.
      5 vectors produced by pass 59 Test12= 1.32D-13 1.00D-09 XBig12= 7.09D-14 8.63D-09.
      5 vectors produced by pass 60 Test12= 1.32D-13 1.00D-09 XBig12= 3.66D-14 5.03D-09.
      5 vectors produced by pass 61 Test12= 1.32D-13 1.00D-09 XBig12= 3.52D-14 4.98D-09.
      5 vectors produced by pass 62 Test12= 1.32D-13 1.00D-09 XBig12= 4.96D-14 6.53D-09.
      5 vectors produced by pass 63 Test12= 1.32D-13 1.00D-09 XBig12= 3.59D-14 6.45D-09.
      5 vectors produced by pass 64 Test12= 1.32D-13 1.00D-09 XBig12= 5.23D-14 7.48D-09.
      5 vectors produced by pass 65 Test12= 1.32D-13 1.00D-09 XBig12= 2.94D-14 5.24D-09.
      5 vectors produced by pass 66 Test12= 1.32D-13 1.00D-09 XBig12= 4.36D-14 6.20D-09.
      5 vectors produced by pass 67 Test12= 1.32D-13 1.00D-09 XBig12= 2.79D-14 4.64D-09.
      5 vectors produced by pass 68 Test12= 1.32D-13 1.00D-09 XBig12= 4.64D-14 6.19D-09.
      4 vectors produced by pass 69 Test12= 1.32D-13 1.00D-09 XBig12= 2.52D-14 4.47D-09.
      4 vectors produced by pass 70 Test12= 1.32D-13 1.00D-09 XBig12= 2.72D-14 5.24D-09.
      4 vectors produced by pass 71 Test12= 1.32D-13 1.00D-09 XBig12= 4.63D-14 5.80D-09.
      4 vectors produced by pass 72 Test12= 1.32D-13 1.00D-09 XBig12= 1.55D-14 3.76D-09.
      4 vectors produced by pass 73 Test12= 1.32D-13 1.00D-09 XBig12= 4.96D-14 7.57D-09.
      4 vectors produced by pass 74 Test12= 1.32D-13 1.00D-09 XBig12= 3.60D-14 5.14D-09.
      4 vectors produced by pass 75 Test12= 1.32D-13 1.00D-09 XBig12= 4.79D-14 6.13D-09.
      4 vectors produced by pass 76 Test12= 1.32D-13 1.00D-09 XBig12= 8.08D-14 8.69D-09.
      4 vectors produced by pass 77 Test12= 1.32D-13 1.00D-09 XBig12= 1.72D-14 3.89D-09.
      4 vectors produced by pass 78 Test12= 1.32D-13 1.00D-09 XBig12= 3.54D-14 5.65D-09.
      4 vectors produced by pass 79 Test12= 1.32D-13 1.00D-09 XBig12= 1.03D-13 8.47D-09.
      4 vectors produced by pass 80 Test12= 1.32D-13 1.00D-09 XBig12= 2.60D-14 4.68D-09.
      4 vectors produced by pass 81 Test12= 1.32D-13 1.00D-09 XBig12= 9.13D-14 1.11D-08.
      4 vectors produced by pass 82 Test12= 1.32D-13 1.00D-09 XBig12= 3.40D-14 5.01D-09.
      4 vectors produced by pass 83 Test12= 1.32D-13 1.00D-09 XBig12= 3.51D-14 5.69D-09.
      4 vectors produced by pass 84 Test12= 1.32D-13 1.00D-09 XBig12= 6.17D-14 8.04D-09.
      4 vectors produced by pass 85 Test12= 1.32D-13 1.00D-09 XBig12= 5.27D-14 6.65D-09.
      4 vectors produced by pass 86 Test12= 1.32D-13 1.00D-09 XBig12= 5.70D-14 1.05D-08.
      4 vectors produced by pass 87 Test12= 1.32D-13 1.00D-09 XBig12= 2.75D-14 4.45D-09.
      4 vectors produced by pass 88 Test12= 1.32D-13 1.00D-09 XBig12= 3.49D-14 4.87D-09.
      4 vectors produced by pass 89 Test12= 1.32D-13 1.00D-09 XBig12= 6.46D-14 7.42D-09.
      4 vectors produced by pass 90 Test12= 1.32D-13 1.00D-09 XBig12= 2.52D-14 4.08D-09.
      4 vectors produced by pass 91 Test12= 1.32D-13 1.00D-09 XBig12= 6.66D-14 8.17D-09.
      3 vectors produced by pass 92 Test12= 1.32D-13 1.00D-09 XBig12= 9.70D-15 2.71D-09.
      3 vectors produced by pass 93 Test12= 1.32D-13 1.00D-09 XBig12= 4.46D-14 6.39D-09.
      3 vectors produced by pass 94 Test12= 1.32D-13 1.00D-09 XBig12= 5.30D-14 7.17D-09.
      3 vectors produced by pass 95 Test12= 1.32D-13 1.00D-09 XBig12= 1.69D-14 4.22D-09.
      3 vectors produced by pass 96 Test12= 1.32D-13 1.00D-09 XBig12= 2.95D-14 6.29D-09.
      3 vectors produced by pass 97 Test12= 1.32D-13 1.00D-09 XBig12= 6.43D-14 7.56D-09.
      3 vectors produced by pass 98 Test12= 1.32D-13 1.00D-09 XBig12= 1.80D-14 3.69D-09.
      3 vectors produced by pass 99 Test12= 1.32D-13 1.00D-09 XBig12= 2.36D-14 4.54D-09.
      3 vectors produced by pass100 Test12= 1.32D-13 1.00D-09 XBig12= 2.19D-14 4.55D-09.
      3 vectors produced by pass101 Test12= 1.32D-13 1.00D-09 XBig12= 3.85D-14 6.70D-09.
      3 vectors produced by pass102 Test12= 1.32D-13 1.00D-09 XBig12= 4.85D-14 6.58D-09.
      3 vectors produced by pass103 Test12= 1.32D-13 1.00D-09 XBig12= 2.23D-14 4.52D-09.
      3 vectors produced by pass104 Test12= 1.32D-13 1.00D-09 XBig12= 5.91D-14 6.29D-09.
      3 vectors produced by pass105 Test12= 1.32D-13 1.00D-09 XBig12= 1.99D-14 3.84D-09.
      3 vectors produced by pass106 Test12= 1.32D-13 1.00D-09 XBig12= 4.23D-14 5.77D-09.
      3 vectors produced by pass107 Test12= 1.32D-13 1.00D-09 XBig12= 4.66D-14 5.91D-09.
      3 vectors produced by pass108 Test12= 1.32D-13 1.00D-09 XBig12= 6.27D-14 6.44D-09.
      3 vectors produced by pass109 Test12= 1.32D-13 1.00D-09 XBig12= 4.28D-14 6.55D-09.
      3 vectors produced by pass110 Test12= 1.32D-13 1.00D-09 XBig12= 3.53D-14 5.65D-09.
      3 vectors produced by pass111 Test12= 1.32D-13 1.00D-09 XBig12= 2.50D-14 4.76D-09.
      2 vectors produced by pass112 Test12= 1.32D-13 1.00D-09 XBig12= 1.29D-14 3.36D-09.
 InvSVY:  IOpt=1 It=  1 EMax= 1.11D-15
 Solved reduced A of dimension  2618 with   153 vectors.
 End of Minotr F.D. properties file   721 does not exist.
 End of Minotr F.D. properties file   722 does not exist.
 End of Minotr F.D. properties file   788 does not exist.

 **********************************************************************

            Population analysis using the SCF density.

 **********************************************************************

 Orbital symmetries:
 Alpha Orbitals:
       Occupied  (A) (A) (A) (A) (A) (A) (A) (A) (A) (A) (A) (A)
                 (A) (A) (A) (A) (A) (A) (A) (A) (A) (A) (A) (A)
                 (A) (A) (A) (A) (A) (A) (A) (A) (A) (A) (A) (A)
                 (A) (A) (A) (A) (A) (A) (A) (A) (A) (A) (A) (A)
                 (A) (A) (A) (A) (A) (A) (A) (A) (A) (A) (A) (A)
                 (A) (A) (A) (A) (A) (A) (A) (A) (A) (A) (A) (A)
                 (A) (A) (A) (A) (A) (A) (A) (A) (A) (A) (A) (A)
                 (A) (A) (A) (A) (A) (A) (A) (A) (A) (A) (A) (A)
                 (A) (A) (A) (A) (A) (A) (A) (A) (A) (A) (A) (A)
                 (A)
       Virtual   (A) (A) (A) (A) (A) (A) (A) (A) (A) (A) (A) (A)
                 (A) (A) (A) (A) (A) (A) (A) (A) (A) (A) (A) (A)
                 (A) (A) (A) (A) (A) (A) (A) (A) (A) (A) (A) (A)
                 (A) (A) (A) (A) (A) (A) (A) (A) (A) (A) (A) (A)
                 (A) (A) (A) (A) (A) (A) (A) (A) (A) (A) (A) (A)
                 (A) (A) (A) (A) (A) (A) (A) (A) (A) (A) (A) (A)
                 (A) (A) (A) (A) (A) (A) (A) (A) (A) (A) (A) (A)
                 (A) (A) (A) (A) (A) (A) (A) (A) (A) (A) (A) (A)
                 (A) (A) (A) (A) (A) (A) (A) (A) (A) (A) (A) (A)
                 (A) (A) (A) (A) (A) (A) (A) (A) (A) (A) (A) (A)
                 (A) (A) (A) (A) (A) (A) (A) (A) (A) (A) (A) (A)
                 (A) (A) (A) (A) (A) (A) (A) (A) (A) (A) (A) (A)
                 (A) (A) (A) (A) (A) (A) (A) (A) (A) (A) (A) (A)
                 (A) (A) (A) (A) (A) (A) (A) (A) (A) (A) (A) (A)
                 (A) (A) (A) (A) (A) (A) (A) (A) (A) (A) (A) (A)
                 (A) (A) (A) (A) (A) (A) (A) (A) (A) (A) (A) (A)
                 (A) (A) (A) (A) (A) (A) (A) (A) (A) (A) (A) (A)
                 (A) (A) (A) (A) (A) (A) (A) (A) (A) (A) (A) (A)
                 (A) (A) (A) (A) (A) (A) (A) (A) (A) (A) (A) (A)
                 (A) (A) (A) (A) (A) (A) (A) (A) (A) (A) (A) (A)
                 (A) (A) (A) (A) (A) (A) (A) (A) (A) (A) (A) (A)
                 (A) (A) (A) (A) (A) (A) (A) (A) (A) (A) (A) (A)
                 (A) (A) (A) (A) (A) (A) (A) (A) (A) (A) (A) (A)
                 (A) (A) (A) (A) (A) (A) (A) (A) (A) (A) (A) (A)
                 (A) (A) (A) (A) (A) (A) (A) (A) (A) (A) (A) (A)
                 (A) (A) (A) (A) (A) (A) (A) (A) (A) (A) (A) (A)
                 (A) (A) (A) (A) (A) (A) (A) (A) (A) (A) (A) (A)
                 (A) (A) (A) (A) (A) (A) (A) (A) (A) (A) (A) (A)
                 (A) (A) (A) (A) (A) (A) (A) (A) (A) (A) (A) (A)
                 (A) (A) (A) (A) (A) (A) (A) (A) (A) (A) (A) (A)
                 (A) (A) (A) (A) (A) (A) (A) (A) (A) (A) (A) (A)
                 (A) (A) (A) (A) (A) (A) (A) (A) (A) (A) (A) (A)
                 (A) (A) (A) (A) (A) (A) (A) (A) (A) (A) (A) (A)
                 (A) (A) (A) (A) (A) (A) (A) (A) (A) (A) (A) (A)
                 (A) (A) (A) (A) (A) (A) (A) (A) (A) (A) (A) (A)
                 (A) (A) (A) (A) (A) (A) (A) (A) (A) (A) (A) (A)
                 (A) (A) (A) (A) (A) (A) (A) (A) (A) (A) (A) (A)
                 (A) (A) (A) (A) (A) (A) (A) (A) (A) (A) (A) (A)
                 (A) (A) (A) (A) (A) (A) (A) (A) (A) (A) (A) (A)
                 (A) (A) (A) (A) (A) (A) (A) (A) (A) (A) (A) (A)
                 (A) (A) (A) (A) (A) (A) (A) (A) (A) (A) (A) (A)
                 (A) (A) (A) (A) (A) (A) (A) (A) (A) (A) (A) (A)
                 (A) (A) (A) (A) (A) (A) (A) (A) (A) (A) (A) (A)
                 (A) (A) (A) (A) (A) (A) (A) (A) (A) (A) (A) (A)
                 (A) (A) (A) (A) (A) (A) (A) (A) (A) (A) (A) (A)
                 (A) (A) (A) (A) (A) (A) (A) (A) (A) (A) (A) (A)
                 (A) (A) (A) (A) (A) (A) (A) (A) (A) (A) (A) (A)
                 (A) (A) (A) (A) (A) (A) (A) (A) (A) (A) (A) (A)
                 (A) (A) (A) (A) (A) (A) (A) (A) (A) (A) (A) (A)
                 (A) (A) (A) (A) (A) (A) (A) (A) (A) (A) (A) (A)
                 (A) (A) (A) (A) (A) (A) (A)
 Beta  Orbitals:
       Occupied  (A) (A) (A) (A) (A) (A) (A) (A) (A) (A) (A) (A)
                 (A) (A) (A) (A) (A) (A) (A) (A) (A) (A) (A) (A)
                 (A) (A) (A) (A) (A) (A) (A) (A) (A) (A) (A) (A)
                 (A) (A) (A) (A) (A) (A) (A) (A) (A) (A) (A) (A)
                 (A) (A) (A) (A) (A) (A) (A) (A) (A) (A) (A) (A)
                 (A) (A) (A) (A) (A) (A) (A) (A) (A) (A) (A) (A)
                 (A) (A) (A) (A) (A) (A) (A) (A) (A) (A) (A) (A)
                 (A) (A) (A) (A) (A) (A) (A) (A) (A) (A) (A) (A)
                 (A) (A) (A) (A) (A) (A) (A) (A) (A) (A) (A) (A)
       Virtual   (A) (A) (A) (A) (A) (A) (A) (A) (A) (A) (A) (A)
                 (A) (A) (A) (A) (A) (A) (A) (A) (A) (A) (A) (A)
                 (A) (A) (A) (A) (A) (A) (A) (A) (A) (A) (A) (A)
                 (A) (A) (A) (A) (A) (A) (A) (A) (A) (A) (A) (A)
                 (A) (A) (A) (A) (A) (A) (A) (A) (A) (A) (A) (A)
                 (A) (A) (A) (A) (A) (A) (A) (A) (A) (A) (A) (A)
                 (A) (A) (A) (A) (A) (A) (A) (A) (A) (A) (A) (A)
                 (A) (A) (A) (A) (A) (A) (A) (A) (A) (A) (A) (A)
                 (A) (A) (A) (A) (A) (A) (A) (A) (A) (A) (A) (A)
                 (A) (A) (A) (A) (A) (A) (A) (A) (A) (A) (A) (A)
                 (A) (A) (A) (A) (A) (A) (A) (A) (A) (A) (A) (A)
                 (A) (A) (A) (A) (A) (A) (A) (A) (A) (A) (A) (A)
                 (A) (A) (A) (A) (A) (A) (A) (A) (A) (A) (A) (A)
                 (A) (A) (A) (A) (A) (A) (A) (A) (A) (A) (A) (A)
                 (A) (A) (A) (A) (A) (A) (A) (A) (A) (A) (A) (A)
                 (A) (A) (A) (A) (A) (A) (A) (A) (A) (A) (A) (A)
                 (A) (A) (A) (A) (A) (A) (A) (A) (A) (A) (A) (A)
                 (A) (A) (A) (A) (A) (A) (A) (A) (A) (A) (A) (A)
                 (A) (A) (A) (A) (A) (A) (A) (A) (A) (A) (A) (A)
                 (A) (A) (A) (A) (A) (A) (A) (A) (A) (A) (A) (A)
                 (A) (A) (A) (A) (A) (A) (A) (A) (A) (A) (A) (A)
                 (A) (A) (A) (A) (A) (A) (A) (A) (A) (A) (A) (A)
                 (A) (A) (A) (A) (A) (A) (A) (A) (A) (A) (A) (A)
                 (A) (A) (A) (A) (A) (A) (A) (A) (A) (A) (A) (A)
                 (A) (A) (A) (A) (A) (A) (A) (A) (A) (A) (A) (A)
                 (A) (A) (A) (A) (A) (A) (A) (A) (A) (A) (A) (A)
                 (A) (A) (A) (A) (A) (A) (A) (A) (A) (A) (A) (A)
                 (A) (A) (A) (A) (A) (A) (A) (A) (A) (A) (A) (A)
                 (A) (A) (A) (A) (A) (A) (A) (A) (A) (A) (A) (A)
                 (A) (A) (A) (A) (A) (A) (A) (A) (A) (A) (A) (A)
                 (A) (A) (A) (A) (A) (A) (A) (A) (A) (A) (A) (A)
                 (A) (A) (A) (A) (A) (A) (A) (A) (A) (A) (A) (A)
                 (A) (A) (A) (A) (A) (A) (A) (A) (A) (A) (A) (A)
                 (A) (A) (A) (A) (A) (A) (A) (A) (A) (A) (A) (A)
                 (A) (A) (A) (A) (A) (A) (A) (A) (A) (A) (A) (A)
                 (A) (A) (A) (A) (A) (A) (A) (A) (A) (A) (A) (A)
                 (A) (A) (A) (A) (A) (A) (A) (A) (A) (A) (A) (A)
                 (A) (A) (A) (A) (A) (A) (A) (A) (A) (A) (A) (A)
                 (A) (A) (A) (A) (A) (A) (A) (A) (A) (A) (A) (A)
                 (A) (A) (A) (A) (A) (A) (A) (A) (A) (A) (A) (A)
                 (A) (A) (A) (A) (A) (A) (A) (A) (A) (A) (A) (A)
                 (A) (A) (A) (A) (A) (A) (A) (A) (A) (A) (A) (A)
                 (A) (A) (A) (A) (A) (A) (A) (A) (A) (A) (A) (A)
                 (A) (A) (A) (A) (A) (A) (A) (A) (A) (A) (A) (A)
                 (A) (A) (A) (A) (A) (A) (A) (A) (A) (A) (A) (A)
                 (A) (A) (A) (A) (A) (A) (A) (A) (A) (A) (A) (A)
                 (A) (A) (A) (A) (A) (A) (A) (A) (A) (A) (A) (A)
                 (A) (A) (A) (A) (A) (A) (A) (A) (A) (A) (A) (A)
                 (A) (A) (A) (A) (A) (A) (A) (A) (A) (A) (A) (A)
                 (A) (A) (A) (A) (A) (A) (A) (A) (A) (A) (A) (A)
                 (A) (A) (A) (A) (A) (A) (A) (A)
 The electronic state is 2-A.
 Alpha  occ. eigenvalues --  -19.67560 -19.67535 -19.67335 -19.66769 -19.66573
 Alpha  occ. eigenvalues --  -19.64135 -19.61851 -19.61814 -15.00237 -10.63784
 Alpha  occ. eigenvalues --  -10.63772 -10.63039 -10.62405 -10.62337 -10.61838
 Alpha  occ. eigenvalues --  -10.60297 -10.58477 -10.57790 -10.57481 -10.57032
 Alpha  occ. eigenvalues --  -10.57016 -10.56720 -10.56640 -10.55801 -10.55342
 Alpha  occ. eigenvalues --  -10.55135 -10.55099 -10.55054 -10.54757 -10.54493
 Alpha  occ. eigenvalues --   -1.38560  -1.22257  -1.20796  -1.20025  -1.19766
 Alpha  occ. eigenvalues --   -1.17743  -1.17523  -1.17115  -0.99824  -0.97522
 Alpha  occ. eigenvalues --   -0.92434  -0.91280  -0.90929  -0.87687  -0.85938
 Alpha  occ. eigenvalues --   -0.85335  -0.82873  -0.81357  -0.79071  -0.78080
 Alpha  occ. eigenvalues --   -0.75028  -0.73752  -0.71910  -0.70877  -0.68401
 Alpha  occ. eigenvalues --   -0.66978  -0.66608  -0.64750  -0.63733  -0.63667
 Alpha  occ. eigenvalues --   -0.63004  -0.61587  -0.61042  -0.60079  -0.59238
 Alpha  occ. eigenvalues --   -0.58980  -0.57636  -0.56897  -0.56351  -0.55796
[...]
 0470,-0.00000734,0.00003068,0.00000065,0.00002130,-0.00000999,0.000006
 46,0.00000041,-0.00000115,-0.00000649,-0.00001748,-0.00000678,0.000000
 03,0.00002313,-0.00001790,0.00002886,0.00001197,0.00001391,0.00000135,
 -0.00000306,-0.00000124,-0.00001675,-0.00000871,-0.00000751,0.00000330
 ,-0.00000064,-0.00000088,-0.00000282,0.00000696,0.00000029,0.00000147,
 0.00000140,-0.00000245,0.00000047,-0.00000131,-0.00000002,0.00000021,-
 0.00000121,0.00000202,0.00000238,-0.00000264,-0.00000002,-0.12667277,-
 0.16457697,-0.06470566,0.00180137,0.00119013,0.00108408,0.13322537,0.1
 7659632,0.00028082,-0.00113377,-0.00034220,0.00228374,-0.00060120,-0.0
 0197796,0.00029493,0.00020327,0.00002782,0.00001630,0.00005450,0.00007
 708,0.00078878,0.00087789,-0.00103504,-0.00099865,0.00118166,-0.000443
 93,0.00003980,0.00028758,-0.00010497,-0.00006864,-0.00002339,0.0000520
 8,-0.00011756,0.00000391,0.00006931,0.00004137,-0.00006357,-0.00002536
 ,0.00001628,0.00001093,-0.00001736,0.00001256,-0.00017012,0.00002016,0
 .00002003,0.00000150,0.00001198,0.00009848,0.00012950,-0.00004827,-0.0
 0000866,-0.00000003,0.00000577,-0.00010008,-0.00000874,0.00003950,0.00
 001357,0.00000656,-0.00000440,-0.00010036,0.00016674,0.00002892,0.0000
 4516,-0.00002218,-0.00004910,-0.00000747,-0.00000073,0.00000750,-0.000
 00275,0.00001010,0.00000615,-0.00000161,-0.00000373,0.00000831,0.00084
 760,0.00079483,-0.00029145,0.00008271,-0.00001669,0.00023383,-0.000726
 32,0.00302646,-0.00412352,-0.00118642,-0.00042142,-0.00041202,-0.02477
 297,-0.02069321,-0.01521689,0.00127965,-0.00129337,0.00485508,-0.00003
 936,-0.00018325,0.00016718,-0.00001008,0.00002620,-0.00003961,0.000032
 76,0.00003734,-0.00001800,-0.00002124,-0.00000602,-0.00001555,-0.00000
 195,-0.00000912,0.00000200,-0.00000745,-0.00005988,0.00006184,0.000003
 08,-0.00000649,0.00004993,0.00003163,0.00000969,0.00000311,-0.00000548
 ,-0.00000124,-0.00000085,-0.00005893,-0.00004123,-0.00001966,0.0000029
 6,0.00001113,-0.00000388,-0.00001437,0.00001754,-0.00001762,0.00001424
 ,-0.00000885,-0.00000030,-0.00000005,0.00000206,0.00000129,-0.00000251
 ,0.00000137,-0.00000167,-0.00000081,-0.00000164,0.00000212,-0.05547561
 ,-0.05845685,-0.07168476,0.01271520,0.01468807,0.00836295,0.06478034,0
 .06166746,0.08181915,-0.00333326,-0.00123298,0.00191426,0.00028347,0.0
 0003585,-0.00026350,0.00243122,-0.00026931,0.00071408,-0.00037459,0.00
 083821,-0.00095302,-0.00153973,0.00079394,0.00085217,0.00087194,0.0007
 1968,-0.00052316,-0.00545118,-0.00150480,-0.00173237,0.00141583,-0.001
 48465,-0.00102299,-0.00213657,-0.03268182,0.00574464,-0.00021982,-0.00
 003962,-0.00030895,-0.00007577,-0.00039687,0.00053135,0.00102878,-0.00
 255250,-0.00194114,-0.00053586,-0.00042245,0.00125581,0.00070909,0.000
 36023,0.00017763,-0.00011048,-0.00002389,-0.00001588,-0.00124404,-0.00
 028060,0.00064011,0.00013174,0.00010054,-0.00002448,-0.00092643,0.0016
 3802,0.00052941,0.00044530,-0.00021122,-0.00040019,-0.00007002,0.00001
 342,0.00002566,-0.00006650,0.00010682,0.00010076,-0.00001250,-0.000016
 07,0.00001109,-0.00000956,0.00004786,-0.00025266,-0.00001385,-0.000014
 78,-0.00000801,0.00006148,0.00008146,0.00024549,0.00003162,-0.00003734
 ,0.00001073,-0.00034224,-0.00020862,-0.00012619,0.00016835,0.00015881,
 -0.00002382,0.00001525,-0.00011047,0.00024681,-0.00006267,0.00003483,-
 0.00009598,0.00003632,0.00002233,-0.00008496,0.00005173,0.00010462,0.0
 0011404,0.00001645,-0.00002157,-0.00001486,-0.00001223,0.00007425,0.00
 007433,0.00000683,-0.00001279,-0.00001108,0.00002686,-0.00014374,-0.00
 005243,0.00001148,-0.00000204,-0.00001446,-0.00002568,0.00001786,0.000
 01541,0.00002959,-0.00000622,-0.00000174,-0.00005458,0.00009832,-0.000
 04504,0.00005246,-0.00002796,-0.00001719,0.00000286,0.00000518,0.00000
 696,-0.00001202,-0.00000336,0.00000388,-0.00000166,-0.00001339,0.00000
 244,-0.00024121,-0.00013299,-0.00000265,-0.00001694,0.00006600,0.00000
 076,0.00002698,-0.00004009,0.00002076,0.23006607,-0.00294383,-0.001076
 61,0.00186685,0.00025747,0.00003285,-0.00010332,0.00306225,0.00024366,
 -0.00204487,0.00054997,-0.00134698,-0.00195365,-0.00210804,0.00005477,
 0.00133287,0.00106786,0.00095442,-0.00080566,-0.00000642,0.00302239,-0
 .00167663,-0.00120415,-0.00156321,0.00133389,-0.02742498,-0.01528032,0
 .01135085,0.00113516,0.00020574,-0.00129687,-0.00000022,-0.00022097,0.
 00023089,-0.00024418,-0.00760718,-0.00467637,-0.00029407,-0.00035010,-
 0.00012365,0.00033251,0.00160544,0.00000832,-0.00006994,-0.00006846,-0
 .00006701,-0.00200178,-0.00062694,0.00117728,0.00014864,0.00022339,0.0
 0011137,0.00069814,0.00199533,0.00062648,0.00015096,-0.00023884,0.0000
 6944,0.00000447,0.00001020,-0.00008061,-0.00013347,0.00014496,0.000095
 40,0.00006746,-0.00000586,-0.00018601,-0.00009945,0.00005474,-0.000574
 40,-0.00004910,-0.00000364,0.00000984,0.00022567,0.00004274,0.00044047
 ,0.00002109,-0.00002870,0.00002271,-0.00056838,-0.00017972,-0.00029566
 ,0.00023382,0.00013634,0.00003041,0.00004269,-0.00025453,0.00058215,-0
 .00008646,0.00000166,-0.00022687,0.00011306,0.00006428,-0.00027732,0.0
 0013833,0.00020715,0.00031888,0.00000674,-0.00002315,0.00000162,-0.000
 09102,0.00024451,0.00011127,-0.00001016,-0.00000508,-0.00001591,-0.000
 06194,-0.00043782,-0.00021022,0.00001395,0.00001135,-0.00002452,0.0000
 8584,0.00011044,0.00005979,0.00002742,-0.00001625,0.00001907,0.0000064
 8,0.00015932,-0.00001015,0.00002291,-0.00000717,-0.00004972,0.00001389
 ,0.00000430,0.00001381,-0.00002558,-0.00001537,0.00000743,0.00000014,-
 0.00002706,0.00000197,0.00002377,-0.00019384,-0.00002170,0.00002685,0.
 00002231,0.00001976,0.00000744,-0.00005199,0.00005176,0.28796233,0.444
 55179,0.00062229,-0.00036880,-0.00005744,0.00011671,-0.00012307,0.0002
 1181,0.00036970,0.00101352,-0.00261173,0.00068522,-0.00205508,-0.00027
 311,-0.00066883,-0.00079772,0.00042146,0.00026854,0.00008567,-0.000206
 16,-0.00098184,0.00001640,0.00010343,0.00015002,-0.00096116,0.00066589
 ,-0.01029275,-0.00753176,0.01226913,0.00042934,-0.00072530,-0.00044558
 ,-0.00009665,-0.00022625,0.00003454,-0.00196815,-0.00423842,-0.0011781
 9,-0.00089940,-0.00197809,0.00348007,-0.00034235,0.00213030,0.00071249
 ,-0.00002313,-0.00004638,-0.00004283,-0.00073542,-0.00054588,0.0004339
 2,-0.00008691,0.00005283,-0.00000621,-0.00037235,0.00052773,0.00014234
 ,0.00009808,-0.00013199,-0.00073136,-0.00003064,-0.00000966,0.00014755
 ,-0.00000353,0.00004576,0.00004080,-0.00014317,-0.00005918,0.00017891,
 0.00000701,0.00010269,-0.00036719,-0.00003988,0.00000541,0.00002521,0.
 00006247,-0.00003915,0.00026938,0.00004338,-0.00002602,0.00002946,-0.0
 0023394,0.00009757,-0.00045106,0.00004119,-0.00010534,0.00023902,-0.00
 000761,-0.00019833,0.00036873,-0.00004403,-0.00000981,-0.00017876,0.00
 007330,0.00004699,-0.00019344,0.00009254,0.00012388,0.00020663,-0.0000
 1076,-0.00000074,0.00002911,-0.00009239,0.00016519,0.00002113,0.000004
 88,0.00000209,-0.00001876,-0.00003564,-0.00026017,-0.00014342,-0.00000
 435,0.00000768,-0.00001243,0.00005365,0.00004581,0.00004716,0.00000793
 ,0.00000064,0.00000591,0.00002448,0.00007011,0.00006566,0.00000240,0.0
 0001323,-0.00003607,0.00001203,-0.00000252,0.00000184,-0.00000801,-0.0
 0001111,0.00001222,0.00000126,-0.00002207,0.00000244,0.00040014,-0.000
 16630,-0.00004294,0.00007385,-0.00007454,0.00002364,-0.00001919,-0.000
 00553,0.00004499,-0.11093404,-0.20097132,0.22368143,-0.00123032,-0.000
 95995,0.00064460,0.00009334,-0.00003921,-0.00012357,0.00114270,0.00006
 183,-0.00091492,-0.00005919,-0.00013630,-0.00000020,-0.00122064,0.0000
 6107,0.00069409,0.00061711,0.00045240,-0.00042087,-0.00121718,-0.00066
 654,-0.00191157,0.00100362,-0.00042696,-0.00008960,0.01208950,0.002091
 40,-0.02289351,-0.00071460,0.00103723,-0.00016894,0.00008185,-0.000130
 53,0.00026297,0.00161091,0.00020500,-0.00262544,-0.00223207,-0.0027515
 1,-0.00388164,0.00141752,-0.00064939,-0.00138265,-0.00006295,-0.000041
 59,0.00004555,-0.00140070,0.00002294,0.00079893,0.00012341,0.00012311,
 -0.00017039,-0.00058953,0.00042147,0.00046400,0.00080858,-0.00033828,-
 0.00033754,-0.00009023,0.00000395,0.00003870,-0.00001321,0.00009021,0.
 00006701,-0.00023850,-0.00001229,-0.00018833,-0.00000214,0.00006402,-0
 .00024467,-0.00002971,-0.00000702,0.00000140,0.00003894,0.00004777,0.0
 0022740,0.00004672,-0.00003577,0.00001521,-0.00025030,-0.00004861,-0.0
 0035795,0.00007078,0.00001007,0.00015316,0.00001117,-0.00010419,0.0002
 3962,-0.00003052,0.00001732,-0.00010111,0.00004957,0.00004179,-0.00010
 933,0.00004643,0.00007384,0.00012572,0.00000439,-0.00001011,0.00000293
 ,-0.00003420,0.00009992,0.00005953,0.00000817,-0.00002143,-0.00000475,
 0.00000254,-0.00016400,-0.00008258,0.00000129,0.00000194,-0.00001009,-
 0.00000084,0.00002308,0.00001898,0.00001660,-0.00000306,0.00000344,-0.
 00002316,0.00006875,-0.00000396,0.00003291,-0.00001571,-0.00001864,0.0
 0000569,0.00000537,0.00000442,-0.00000964,-0.00000333,0.00000249,-0.00
 000506,-0.00001271,0.00000216,0.00010292,-0.00016862,0.00002593,0.0000
 2474,-0.00000360,0.00001172,0.00001527,-0.00001633,0.00003387,0.020966
 33,-0.02144281,0.05256380,0.07148637,-0.00147605,-0.00000190,0.0009348
 2,0.00009609,0.00003372,-0.00012386,0.00113314,-0.00024621,0.00019132,
 0.00004886,-0.00003487,-0.00084718,-0.00080615,0.00038156,0.00051552,0
 .00043288,0.00036926,-0.00031046,0.00006893,0.00144127,-0.00128167,-0.
 00005612,0.00061383,0.00004203,-0.00315281,0.01647203,-0.00957064,0.00
 004524,0.00126677,-0.00052937,0.00001889,-0.00004118,-0.00007990,-0.00
 116069,-0.00135076,-0.00258070,-0.00288171,-0.00138586,-0.00324733,0.0
 0112710,-0.00065827,-0.00052805,-0.00005348,-0.00004734,0.00000570,-0.
 00143342,0.00006104,0.00083497,0.00011479,0.00015522,-0.00002278,0.000
 42340,0.00009644,0.00045339,-0.00029368,-0.00012288,-0.00013988,0.0000
 0897,-0.00000530,0.00003053,-0.00004673,0.00003992,-0.00000425,0.00005
 226,-0.00004951,-0.00002208,-0.00004874,-0.00001116,-0.00019484,-0.000
 01328,0.00000015,0.00000791,0.00009652,0.00001403,0.00013731,-0.000006
 09,-0.00000181,0.00001063,-0.00022640,-0.00007940,0.00000659,0.0001209
 0,0.00008619,-0.00006494,0.00001473,-0.00010332,0.00020485,-0.00004984
 ,0.00000008,-0.00008449,0.00001957,0.00000622,-0.00009050,0.00005482,0
 .00009394,0.00010127,0.00000252,-0.00001141,0.00000080,-0.00003371,0.0
 0006716,0.00002167,-0.00000325,0.00001788,-0.00001853,-0.00000730,-0.0
 0012561,-0.00004997,0.00000999,-0.00000060,-0.00001006,0.00003817,0.00
 004926,0.00002271,0.00001017,-0.00001694,0.00000556,0.00000839,0.00005
 664,0.00000517,0.00000064,0.00000141,-0.00001727,0.00000501,-0.0000016
 2,0.00000405,-0.00000653,-0.00000727,0.00000599,0.00000528,-0.00001002
 ,-0.00000052,-0.00012399,-0.00006160,-0.00000802,-0.00000404,0.0000322
 3,-0.00000202,0.00001017,-0.00002984,0.00001232,-0.01905328,-0.0297171
 6,0.09220812,0.04591121,0.14704240,0.00005838,-0.00144593,0.00046686,0
 .00014815,-0.00013487,-0.00013579,0.00038131,0.00082929,-0.00103921,-0
 .00036250,0.00002554,0.00125453,-0.00096615,-0.00029244,0.00058778,0.0
 0049044,0.00011300,-0.00034367,-0.00171058,0.00415427,-0.00043297,0.00
 005309,-0.00161433,0.00030395,-0.00889944,0.00971532,-0.03910425,0.000
 96608,-0.00164204,-0.00047639,-0.00005509,-0.00030796,0.00029066,0.003
 77977,-0.00476885,-0.00285912,-0.00446186,-0.00438969,-0.00387162,0.00
 026671,0.00358729,-0.00026126,-0.00009433,-0.00007655,0.00003164,-0.00
 159844,-0.00073923,0.00092273,-0.00004858,0.00015646,-0.00003193,-0.00
 170846,0.00317667,0.00155220,0.00003224,-0.00009914,-0.00142363,-0.000
 03187,-0.00002030,0.00036036,-0.00010542,0.00006604,0.00009005,-0.0004
 1960,-0.00008232,0.00049832,0.00000958,-0.00006464,0.00021169,-0.00004
 225,-0.00000586,-0.00000038,0.00000662,0.00010194,-0.00009242,0.000047
 22,-0.00000860,0.00002506,-0.00006568,0.00016093,-0.00055980,-0.000005
 63,-0.00021594,0.00032217,-0.00000435,0.00011560,-0.00017829,0.0000288
 5,-0.00003895,0.00007255,-0.00004953,0.00000738,0.00005328,-0.00004128
 ,-0.00006629,-0.00006056,-0.00000908,0.00000593,0.00001094,0.00002938,
 -0.00004370,-0.00006794,0.00001876,-0.00001638,-0.00000056,0.00000893,
 0.00013143,0.00002505,-0.00000670,-0.00000647,0.00000633,-0.00000489,-
 0.00001947,0.00000928,-0.00000898,0.00000527,-0.00001308,-0.00000637,-
 0.00006822,0.00006866,0.00000597,-0.00000232,0.00001168,-0.00000357,-0
 .00000048,-0.00000853,0.00001479,0.00000345,0.00000185,-0.00000465,0.0
 0000731,0.00000085,0.00037894,-0.00020794,0.00011104,0.00005865,-0.000
 07203,-0.00000553,0.00000624,0.00003535,0.00003539,0.04550339,0.085027
 07,-0.06283621,0.01874791,-0.19474965,0.67796437,0.00028005,0.00361458
 ,0.00114109,-0.00076439,-0.00007277,0.00032376,-0.00043920,0.00125847,
 -0.00142479,0.00011109,0.00000353,0.00184171,0.00018297,-0.00057623,-0
 .00022435,-0.00028533,-0.00027986,0.00016894,0.02042919,-0.00682292,0.
 00547248,-0.00478681,0.00364256,0.00212970,-0.07347913,0.02474411,0.00
 130871,0.00176778,-0.00260580,0.00075296,0.00004242,0.00067308,-0.0013
 7579,-0.05093869,-0.02269240,-0.00965127,-0.00345988,-0.00371456,-0.00
 256670,-0.00255439,0.00671771,-0.00437879,0.00017708,0.00000124,-0.000
 21710,0.00067518,-0.00049721,0.00072000,-0.00004134,0.00009936,0.00066
 058,0.00583229,-0.00541158,-0.00149757,-0.00133708,0.00123386,0.002127
 39,0.00047005,-0.00018054,-0.00038984,0.00015933,-0.00022924,-0.000246
 07,0.00014183,-0.00002930,-0.00011900,-0.00004193,-0.00031386,0.000903
 46,0.00000747,0.00001622,-0.00002225,-0.00007518,0.00003389,-0.0007068
 4,-0.00007663,0.00009583,-0.00002294,0.00061451,0.00034817,0.00016006,
 -0.00028716,-0.00027270,-0.00000889,0.00000673,0.00045139,-0.00087313,
 0.00012120,-0.00005667,0.00040599,-0.00018364,-0.00008436,0.00038988,-
 0.00018691,-0.00031625,-0.00043939,-0.00001349,0.00002642,-0.00001485,
 0.00015912,-0.00033541,-0.00019793,-0.00000623,0.00001611,0.00002660,-
 0.00000195,0.00060161,0.00026973,-0.00000650,-0.00001153,0.00003584,-0
 .00000888,-0.00007248,-0.00005663,-0.00005106,0.00000526,-0.00001547,0
 .00004344,-0.00025614,0.00003096,-0.00007329,0.00002212,0.00007555,-0.
 00002189,-0.00000605,-0.00001669,0.00003624,0.00001869,-0.00001622,0.0
 0000193,0.00004899,-0.00000642,0.00021718,0.00011772,0.00016765,-0.000
 02280,-0.00008077,-0.00005317,0.00000359,0.00003376,-0.00006726,-0.241
 99862,-0.23758134,0.07187076,-0.10246466,-0.01894137,-0.05032606,0.452
 12637,-0.00068006,0.00011082,0.00097391,-0.00025417,0.00010521,0.00138
 560,-0.00093769,0.00194207,-0.00255777,0.00018526,-0.00022719,0.001845
 53,0.00075878,-0.00100594,-0.00062005,-0.00055685,-0.00045222,0.000339
 00,-0.01100905,-0.03796754,-0.02062416,0.00195432,0.00049174,-0.003515
 69,0.01483909,-0.06248180,-0.00255715,0.00039154,-0.00561146,0.0021360
 1,0.00027206,0.00018407,0.00068995,-0.01972204,-0.00008836,0.01000578,
 0.00830855,0.00490433,0.01165605,-0.00099362,0.00685396,-0.00283247,0.
 00001753,0.00009808,-0.00012053,0.00337584,-0.00000643,-0.00176318,-0.
 00020711,-0.00035600,0.00000990,0.00110150,-0.00051075,-0.00090278,0.0
 0023781,0.00053289,0.00010091,0.00002547,-0.00009686,-0.00001619,0.000
 10224,-0.00017889,-0.00009872,-0.00011084,-0.00004962,0.00021287,0.000
 05544,-0.00027256,0.00116883,0.00002373,-0.00000013,-0.00003831,-0.000
 22866,0.00012209,-0.00080217,-0.00002783,0.00006603,-0.00002737,0.0007
 4020,0.00026988,-0.00000050,-0.00029178,-0.00033787,0.00011820,-0.0000
 0671,0.00058912,-0.00114234,0.00015788,-0.00003269,0.00051561,-0.00022
 341,-0.00009473,0.00052741,-0.00026293,-0.00043122,-0.00059008,-0.0000
 1025,0.00003255,-0.00002139,0.00022766,-0.00043910,-0.00022851,0.00001
 062,-0.00002018,0.00004296,0.00004325,0.00080235,0.00037242,-0.0000150
 2,-0.00001725,0.00004585,-0.00009812,-0.00015263,-0.00008418,-0.000052
 16,0.00002331,-0.00003381,-0.00001265,-0.00031126,0.00001297,-0.000039
 62,0.00000102,0.00010082,-0.00003009,-0.00000231,-0.00002343,0.0000470
 5,0.00003051,-0.00001971,-0.00000624,0.00005982,-0.00000525,0.00034563
 ,0.00015957,0.00019129,0.00000354,-0.00011783,-0.00004269,-0.00000372,
 0.00007791,-0.00005366,-0.23233515,-0.39475713,0.12493008,-0.02272586,
 -0.13427679,0.10377504,0.25761666,0.62283943,-0.00358764,0.00064235,0.
 00223595,-0.00043506,0.00039004,0.00050683,0.00063019,-0.00093188,0.00
 137284,0.00099518,0.00016853,-0.00354176,0.00111358,0.00078026,-0.0007
 4133,-0.00060049,-0.00000562,0.00038836,0.00783695,-0.02162627,-0.0056
 4627,-0.00036334,0.00508569,-0.00331213,0.01271344,0.01461419,-0.07334
 708,-0.00096225,0.00032593,0.00176968,0.00040156,0.00093184,-0.0005875
 4,-0.00823637,0.01154137,0.01725191,-0.02276027,-0.01680804,-0.0289140
 5,0.00250303,-0.00178504,-0.00452417,0.00017134,0.00017262,0.00013408,
 0.00205218,0.00166806,-0.00148842,0.00026651,-0.00017784,-0.00012668,0
 .00337128,-0.00316169,-0.00282743,-0.00012448,0.00049672,0.00258477,0.
 00017022,-0.00001401,-0.00064603,0.00007108,-0.00013150,-0.00018124,0.
 00059953,0.00016544,-0.00088152,-0.00007526,-0.00026563,0.00074692,0.0
 0008237,-0.00001103,-0.00006108,-0.00008246,0.00009873,-0.00054579,-0.
 00011068,0.00007167,-0.00007153,0.00044946,-0.00027649,0.00096486,-0.0
 0004984,0.00024595,-0.00055024,0.00005832,0.00042188,-0.00074966,0.000
 08287,0.00004200,0.00039678,-0.00014084,-0.00009205,0.00041452,-0.0001
 8408,-0.00028076,-0.00043663,0.00002288,0.00000074,-0.00006770,0.00020
 977,-0.00033047,-0.00006718,-0.00002370,-0.00001479,0.00004488,0.00002
 102,0.00050637,0.00030366,0.00001268,-0.00001040,0.00002514,-0.0000771
 3,-0.00006643,-0.00008322,-0.00001580,-0.00000613,-0.00001076,-0.00003
 819,-0.00014048,-0.00014812,-0.00001244,-0.00003004,0.00007842,-0.0000
 2539,0.00000989,-0.00000085,0.00001300,0.00002482,-0.00002850,-0.00000
 437,0.00004733,-0.00000756,-0.00068017,0.00046064,0.00007055,-0.000138
 10,0.00010802,-0.00004265,0.00001273,-0.00000612,-0.00009907,0.0601288
 1,0.11077079,-0.17408343,-0.03921330,0.11881575,-0.57148616,-0.0160483
 3,-0.22243491,0.84601565\\0.00000109,-0.00000078,0.00000055,0.00000149
 ,-0.00000252,0.00000170,-0.00000049,-0.00000212,0.00000093,-0.00000165
 ,-0.00000226,-0.00000003,-0.00000048,-0.00000111,-0.00000052,-0.000002
 18,-0.00000312,0.00000044,-0.00000099,-0.00000268,0.00000323,0.0000007
 0,-0.00000266,0.00000267,-0.00000095,-0.00000051,0.00000227,0.00000093
 ,-0.00000221,0.00000364,0.00000179,-0.00000129,0.00000294,0.00000030,-
 0.00000121,0.00000220,-0.00000143,-0.00000322,0.00000088,0.00000244,-0
 .00000451,0.00000176,0.00000292,-0.00000404,0.00000295,-0.00000179,-0.
 00000386,0.00000444,0.00000148,-0.00000350,0.00000337,0.00000144,-0.00
 000537,0.00000057,-0.00000253,-0.00000311,0.00000019,-0.00000027,-0.00
 000313,0.00000259,-0.00000115,-0.00000335,0.00000019,-0.00000036,-0.00
 000315,0.00000072,-0.00000066,0.00000085,-0.00000059,-0.00000075,0.000
 00058,-0.00000101,0.00000058,0.00000095,-0.00000039,0.00000065,0.00000
 105,-0.00000007,0.00000045,0.00000028,0.00000130,0.00000227,0.00000066
 ,0.00000172,0.00000055,0.00000227,-0.00000093,-0.00000141,0.00000186,-
 0.00000235,0.00000030,0.00000351,-0.00000165,-0.00000175,0.00000302,-0
 .00000344,-0.00000150,0.00000123,-0.00000213,0.00000048,0.00000483,-0.
 00000210,0.00000219,0.00000348,-0.00000080,-0.00000051,0.00000365,-0.0
 0000256,-0.00000210,0.00000323,-0.00000424,-0.00000094,0.00000450,-0.0
 0000317,-0.00000159,0.00000469,-0.00000452,0.00000119,0.00000477,-0.00
 000387,0.00000106,0.00000572,-0.00000231,0.00000153,0.00000578,-0.0000
 0173,0.00000161,0.00000670,-0.00000224,0.00000064,0.00000624,-0.000002
 70,0.00000056,-0.00000215,0.00000115,0.00000017,-0.00000125,0.00000068
 ,0.00000005,-0.00000174,0.00000163,-0.00000179,-0.00000364,0.00000061,
 -0.00000064,-0.00000013,-0.00000166,-0.00000093,-0.00000121,-0.0000003
 3\\\@


 A true friend is someone who is there for
 you when he'd rather be anywhere else.
                               -- Len Wein
 Job cpu time:       1 days  2 hours 14 minutes  9.0 seconds.
 Elapsed time:       1 days  2 hours 16 minutes 42.2 seconds.
 File lengths (MBytes):  RWF=  16817 Int=      0 D2E=      0 Chk=     66 Scr=      1
 Normal termination of Gaussian 16 at Wed Nov  6 13:08:04 2024.
