 Entering Gaussian System, Link 0=g16
 Initial command:
 /sw/cluster/pub/apps//g16/l1.exe "/data/natrosa/25411/Gau-194155.inp" -scrdir="/data/natrosa/25411/"
 Entering Link 1 = /sw/cluster/pub/apps//g16/l1.exe PID=    194156.
  
 Copyright (c) 1988,1990,1992,1993,1995,1998,2003,2009,2016,
            Gaussian, Inc.  All Rights Reserved.
  
 This is part of the Gaussian(R) 16 program.  It is based on
 the Gaussian(R) 09 system (copyright 2009, Gaussian, Inc.),
 the Gaussian(R) 03 system (copyright 2003, Gaussian, Inc.),
 the Gaussian(R) 98 system (copyright 1998, Gaussian, Inc.),
 the Gaussian(R) 94 system (copyright 1995, Gaussian, Inc.),
 the Gaussian 92(TM) system (copyright 1992, Gaussian, Inc.),
 the Gaussian 90(TM) system (copyright 1990, Gaussian, Inc.),
 the Gaussian 88(TM) system (copyright 1988, Gaussian, Inc.),
 the Gaussian 86(TM) system (copyright 1986, Carnegie Mellon
 University), and the Gaussian 82(TM) system (copyright 1983,
 Carnegie Mellon University). Gaussian is a federally registered
 trademark of Gaussian, Inc.
  
 This software contains proprietary and confidential information,
 including trade secrets, belonging to Gaussian, Inc.
  
 This software is provided under written license and may be
 used, copied, transmitted, or stored only in accord with that
 written license.
  
 The following legend is applicable only to US Government
 contracts under FAR:
  
                    RESTRICTED RIGHTS LEGEND
  
 Use, reproduction and disclosure by the US Government is
 subject to restrictions as set forth in subparagraphs (a)
 and (c) of the Commercial Computer Software - Restricted
 Rights clause in FAR 52.227-19.
  
 Gaussian, Inc.
 340 Quinnipiac St., Bldg. 40, Wallingford CT 06492
  
  
 ---------------------------------------------------------------
 Warning -- This program may not be used in any manner that
 competes with the business of Gaussian, Inc. or will provide
 assistance to any competitor of Gaussian, Inc.  The licensee
 of this program is prohibited from giving any competitor of
 Gaussian, Inc. access to this program.  By using this program,
 the user acknowledges that Gaussian, Inc. is engaged in the
 business of creating and licensing software in the field of
 computational chemistry and represents and warrants to the
 licensee that it is not a competitor of Gaussian, Inc. and that
 it will not use this program in any manner prohibited above.
 ---------------------------------------------------------------
  

 Cite this work as:
 Gaussian 16, Revision A.03,
 M. J. Frisch, G. W. Trucks, H. B. Schlegel, G. E. Scuseria, 
 M. A. Robb, J. R. Cheeseman, G. Scalmani, V. Barone, 
 G. A. Petersson, H. Nakatsuji, X. Li, M. Caricato, A. V. Marenich, 
 J. Bloino, B. G. Janesko, R. Gomperts, B. Mennucci, H. P. Hratchian, 
 J. V. Ortiz, A. F. Izmaylov, J. L. Sonnenberg, D. Williams-Young, 
 F. Ding, F. Lipparini, F. Egidi, J. Goings, B. Peng, A. Petrone, 
 T. Henderson, D. Ranasinghe, V. G. Zakrzewski, J. Gao, N. Rega, 
 G. Zheng, W. Liang, M. Hada, M. Ehara, K. Toyota, R. Fukuda, 
 J. Hasegawa, M. Ishida, T. Nakajima, Y. Honda, O. Kitao, H. Nakai, 
 T. Vreven, K. Throssell, J. A. Montgomery, Jr., J. E. Peralta, 
 F. Ogliaro, M. J. Bearpark, J. J. Heyd, E. N. Brothers, K. N. Kudin, 
 V. N. Staroverov, T. A. Keith, R. Kobayashi, J. Normand, 
 K. Raghavachari, A. P. Rendell, J. C. Burant, S. S. Iyengar, 
 J. Tomasi, M. Cossi, J. M. Millam, M. Klene, C. Adamo, R. Cammi, 
 J. W. Ochterski, R. L. Martin, K. Morokuma, O. Farkas, 
 J. B. Foresman, and D. J. Fox, Gaussian, Inc., Wallingford CT, 2016.
 
 ******************************************
 Gaussian 16:  ES64L-G16RevA.03 25-Dec-2016
                 6-Nov-2024 
 ******************************************
 %oldchk=/home/natrosa/MOSSRI/REACAO-1/M06-2X-6-311+G-D/CURCUMIN-OPT-FREQ-Prod-1-
 M06-2X-6-311+G-D-298.chk
 %chk=CURCUMIN-OPT-FREQ-Prod-1-M06-2X-6-311+G-D-298-cont.chk
 Copying data from "/home/natrosa/MOSSRI/REACAO-1/M06-2X-6-311+G-D/CURCUMIN-OPT-FREQ-Prod-1-M06-2X-6-311+G-D-298.chk" to current chk file "CURCUMIN-OPT-FREQ-Prod-1-M06-2X-6-311+G-D-298-cont.chk"
 IOpt=  2 FromEx=T IUOpen= 4 IOptOp= 5 NList=   0 IFRang= 0 IUIn= 4 IUOut= 2.
 ----------------------------------------------------------------------
 # opt=loose freq=noraman M062X/6-311+g(d) scrf=(smd,solvent=generic,re
 ad) temperature=298.15 Guess=Read Geom=Check
 ----------------------------------------------------------------------
 1/7=-1,18=20,19=15,26=3,29=2,38=1,40=2,112=298150/1,3;
 2/9=110,12=2,40=1/2;
 3/5=4,6=6,7=11,11=2,14=-4,25=1,30=1,70=32203,71=1,72=-2,74=-55,116=-2/1,2,3;
 4/5=1/1;
 5/5=2,38=6/2;
 6/7=2,8=2,9=2,10=2,28=1/1;
 7//1,2,3,16;
 1/7=-1,18=20,19=15,26=3/3(2);
 2/9=110/2;
 99//99;
 2/9=110/2;
 3/5=4,6=6,7=11,11=2,14=-2,25=1,30=1,70=32205,71=1,72=-2,74=-55/1,2,3;
 4/5=5,16=3,69=1/1;
 5/5=2,38=5/2;
 7//1,2,3,16;
 1/7=-1,18=20,19=15,26=3/3(-5);
 2/9=110/2;
 6/7=2,8=2,9=2,10=2,19=2,28=1/1;
 99/9=1/99;
 ----------
 Reagente 1
 ----------
 Structure from the checkpoint file:  "CURCUMIN-OPT-FREQ-Prod-1-M06-2X-6-311+G-D-298-cont.chk"
 Charge =  0 Multiplicity = 2
 Redundant internal coordinates found in file.  (old form).
 C,0,2.1697254434,1.4997022389,0.254544058
 H,0,1.8802885149,2.3920484442,-0.2936822479
 C,0,1.4200101799,1.0860967986,1.284685756
 H,0,1.6943606029,0.2390105173,1.9069234796
 C,0,0.1765847905,1.7589114826,1.7165646688
 O,0,-0.3939350774,1.3869096453,2.7214786897
 C,0,3.4243399194,0.8997563549,-0.2135395476
 C,0,4.3747217042,1.7233978931,-0.822523083
 C,0,3.783257753,-0.4446002216,-0.0728217067
 C,0,5.6070866651,1.2392949178,-1.2381719321
 H,0,4.1420296788,2.7733893357,-0.9599631317
 C,0,4.9959224258,-0.9717383197,-0.4857396941
 H,0,1.9423080939,-2.6712006605,6.0237284264
 C,0,5.9276997237,-0.1039434202,-1.077923797
 H,0,6.3226144874,1.9069631816,-1.7080574325
 O,0,7.0894140141,-0.6527993156,-1.4869760163
 H,0,7.6542607059,0.0144877635,-1.9004519857
 O,0,5.2171251459,-2.3051572749,-0.4023037423
 C,0,6.151884604,-2.6855107328,0.618108637
 H,0,5.7819997263,-2.3734524204,1.5968038068
 H,0,6.2179118323,-3.7704446033,0.5774212903
 H,0,7.1316941821,-2.2475595851,0.4236768391
 C,0,-2.7993796213,1.2561016458,0.4250315503
 H,0,-2.5282458979,1.58844044,1.4241087784
 C,0,-2.0420006824,1.6378969056,-0.6172929278
 H,0,-2.2689098711,1.3351779208,-1.6351815452
 C,0,-0.8522644224,2.4923262595,-0.4956572251
 O,0,-0.2504087816,2.8587870216,-1.4871444003
 C,0,-3.9909320919,0.4111839042,0.3751694513
 C,0,-4.6378260925,0.0925177909,1.5725706764
 C,0,-4.5189326416,-0.0968028009,-0.8225294199
 C,0,-5.7692250067,-0.7134233149,1.5837276834
 H,0,-4.2464159676,0.4743618877,2.5095204778
 C,0,-5.6435514613,-0.8982557904,-0.8240890113
 H,0,-4.0578070279,0.1184250856,-1.7801539845
 C,0,-6.2767710786,-1.2182418461,0.3915776056
 H,0,-6.2567641928,-0.9629085437,2.5216768997
 O,0,-7.3620801243,-2.0233636115,0.3299323286
 H,0,-7.7104241701,-2.1848703643,1.2170097463
 O,0,-6.110391809,-1.4164431325,-1.9974229979
 C,0,-7.3138402558,-0.8025153029,-2.4588391466
 H,0,-7.1435468744,0.2595271249,-2.6582280733
 H,0,-7.585361939,-1.3077990401,-3.3841631339
 H,0,-8.1182001069,-0.9186798323,-1.7300236745
 C,0,-0.3738602049,2.9180021043,0.8929832222
 H,0,-1.1953904821,3.3581777194,1.4589052874
 H,0,0.3974038308,3.6767338191,0.7533436959
 O,0,3.1137938525,-1.9351660217,1.5452257033
 O,0,1.849338429,-1.6816768765,-0.1756909318
 N,0,2.8353502549,-1.4327844207,0.4778546443
 Recover connectivity data from disk.

 GradGradGradGradGradGradGradGradGradGradGradGradGradGradGradGradGradGrad
 Berny optimization.
 Initialization pass.
                           ----------------------------
                           !    Initial Parameters    !
                           ! (Angstroms and Degrees)  !
 --------------------------                            --------------------------
 ! Name  Definition              Value          Derivative Info.                !
 --------------------------------------------------------------------------------
 ! R1    R(1,2)                  1.0866         estimate D2E/DX2                !
 ! R2    R(1,3)                  1.3395         estimate D2E/DX2                !
 ! R3    R(1,7)                  1.4673         estimate D2E/DX2                !
 ! R4    R(3,4)                  1.0863         estimate D2E/DX2                !
 ! R5    R(3,5)                  1.4783         estimate D2E/DX2                !
 ! R6    R(5,6)                  1.214          estimate D2E/DX2                !
 ! R7    R(5,45)                 1.5247         estimate D2E/DX2                !
 ! R8    R(7,8)                  1.3973         estimate D2E/DX2                !
 ! R9    R(7,9)                  1.3985         estimate D2E/DX2                !
 ! R10   R(8,10)                 1.3877         estimate D2E/DX2                !
 ! R11   R(8,11)                 1.0842         estimate D2E/DX2                !
 ! R12   R(9,12)                 1.3853         estimate D2E/DX2                !
 ! R13   R(9,50)                 1.4759         estimate D2E/DX2                !
 ! R14   R(10,14)                1.3902         estimate D2E/DX2                !
 ! R15   R(10,15)                1.0856         estimate D2E/DX2                !
 ! R16   R(12,14)                1.4043         estimate D2E/DX2                !
 ! R17   R(12,18)                1.3542         estimate D2E/DX2                !
 ! R18   R(13,48)                4.6873         estimate D2E/DX2                !
 ! R19   R(14,16)                1.3484         estimate D2E/DX2                !
 ! R20   R(16,17)                0.9671         estimate D2E/DX2                !
 ! R21   R(18,19)                1.4352         estimate D2E/DX2                !
 ! R22   R(19,20)                1.0918         estimate D2E/DX2                !
 ! R23   R(19,21)                1.0877         estimate D2E/DX2                !
 ! R24   R(19,22)                1.0907         estimate D2E/DX2                !
 ! R25   R(23,24)                1.0873         estimate D2E/DX2                !
 ! R26   R(23,25)                1.3438         estimate D2E/DX2                !
 ! R27   R(23,29)                1.4616         estimate D2E/DX2                !
 ! R28   R(25,26)                1.0859         estimate D2E/DX2                !
 ! R29   R(25,27)                1.4698         estimate D2E/DX2                !
 ! R30   R(27,28)                1.2164         estimate D2E/DX2                !
 ! R31   R(27,45)                1.5292         estimate D2E/DX2                !
 ! R32   R(29,30)                1.3978         estimate D2E/DX2                !
 ! R33   R(29,31)                1.404          estimate D2E/DX2                !
 ! R34   R(30,32)                1.3891         estimate D2E/DX2                !
 ! R35   R(30,33)                1.0848         estimate D2E/DX2                !
 ! R36   R(31,34)                1.381          estimate D2E/DX2                !
 ! R37   R(31,35)                1.0844         estimate D2E/DX2                !
 ! R38   R(32,36)                1.3906         estimate D2E/DX2                !
 ! R39   R(32,37)                1.0861         estimate D2E/DX2                !
 ! R40   R(34,36)                1.4076         estimate D2E/DX2                !
 ! R41   R(34,40)                1.365          estimate D2E/DX2                !
 ! R42   R(36,38)                1.3527         estimate D2E/DX2                !
 ! R43   R(38,39)                0.9666         estimate D2E/DX2                !
 ! R44   R(40,41)                1.4276         estimate D2E/DX2                !
 ! R45   R(41,42)                1.0939         estimate D2E/DX2                !
 ! R46   R(41,43)                1.0887         estimate D2E/DX2                !
 ! R47   R(41,44)                1.0916         estimate D2E/DX2                !
 ! R48   R(45,46)                1.0904         estimate D2E/DX2                !
 ! R49   R(45,47)                1.0909         estimate D2E/DX2                !
 ! R50   R(48,50)                1.2121         estimate D2E/DX2                !
 ! R51   R(49,50)                1.2088         estimate D2E/DX2                !
 ! A1    A(2,1,3)              119.5057         estimate D2E/DX2                !
 ! A2    A(2,1,7)              113.7404         estimate D2E/DX2                !
 ! A3    A(3,1,7)              126.6998         estimate D2E/DX2                !
 ! A4    A(1,3,4)              122.6796         estimate D2E/DX2                !
 ! A5    A(1,3,5)              123.7046         estimate D2E/DX2                !
 ! A6    A(4,3,5)              113.5784         estimate D2E/DX2                !
 ! A7    A(3,5,6)              119.8459         estimate D2E/DX2                !
 ! A8    A(3,5,45)             119.4621         estimate D2E/DX2                !
 ! A9    A(6,5,45)             120.6919         estimate D2E/DX2                !
 ! A10   A(1,7,8)              118.6573         estimate D2E/DX2                !
 ! A11   A(1,7,9)              125.4758         estimate D2E/DX2                !
 ! A12   A(8,7,9)              115.8432         estimate D2E/DX2                !
 ! A13   A(7,8,10)             121.9318         estimate D2E/DX2                !
 ! A14   A(7,8,11)             118.6931         estimate D2E/DX2                !
 ! A15   A(10,8,11)            119.3702         estimate D2E/DX2                !
 ! A16   A(7,9,12)             124.0878         estimate D2E/DX2                !
 ! A17   A(7,9,50)             121.0858         estimate D2E/DX2                !
 ! A18   A(12,9,50)            114.7506         estimate D2E/DX2                !
 ! A19   A(8,10,14)            120.4854         estimate D2E/DX2                !
 ! A20   A(8,10,15)            120.0264         estimate D2E/DX2                !
 ! A21   A(14,10,15)           119.4797         estimate D2E/DX2                !
 ! A22   A(9,12,14)            118.1256         estimate D2E/DX2                !
 ! A23   A(9,12,18)            119.9549         estimate D2E/DX2                !
 ! A24   A(14,12,18)           121.7409         estimate D2E/DX2                !
 ! A25   A(10,14,12)           119.5159         estimate D2E/DX2                !
 ! A26   A(10,14,16)           123.8491         estimate D2E/DX2                !
 ! A27   A(12,14,16)           116.6193         estimate D2E/DX2                !
 ! A28   A(14,16,17)           110.6126         estimate D2E/DX2                !
 ! A29   A(12,18,19)           114.2772         estimate D2E/DX2                !
 ! A30   A(18,19,20)           109.9342         estimate D2E/DX2                !
 ! A31   A(18,19,21)           106.0986         estimate D2E/DX2                !
 ! A32   A(18,19,22)           110.6063         estimate D2E/DX2                !
 ! A33   A(20,19,21)           109.8274         estimate D2E/DX2                !
 ! A34   A(20,19,22)           110.4487         estimate D2E/DX2                !
 ! A35   A(21,19,22)           109.8348         estimate D2E/DX2                !
 ! A36   A(24,23,25)           119.0354         estimate D2E/DX2                !
 ! A37   A(24,23,29)           114.2902         estimate D2E/DX2                !
 ! A38   A(25,23,29)           126.6743         estimate D2E/DX2                !
 ! A39   A(23,25,26)           122.0111         estimate D2E/DX2                !
 ! A40   A(23,25,27)           123.8613         estimate D2E/DX2                !
 ! A41   A(26,25,27)           114.1273         estimate D2E/DX2                !
 ! A42   A(25,27,28)           120.5436         estimate D2E/DX2                !
 ! A43   A(25,27,45)           119.3544         estimate D2E/DX2                !
 ! A44   A(28,27,45)           120.102          estimate D2E/DX2                !
 ! A45   A(23,29,30)           118.677          estimate D2E/DX2                !
 ! A46   A(23,29,31)           123.014          estimate D2E/DX2                !
 ! A47   A(30,29,31)           118.3091         estimate D2E/DX2                !
 ! A48   A(29,30,32)           121.0696         estimate D2E/DX2                !
 ! A49   A(29,30,33)           119.5142         estimate D2E/DX2                !
 ! A50   A(32,30,33)           119.4147         estimate D2E/DX2                !
 ! A51   A(29,31,34)           121.1437         estimate D2E/DX2                !
 ! A52   A(29,31,35)           121.4377         estimate D2E/DX2                !
 ! A53   A(34,31,35)           117.4174         estimate D2E/DX2                !
 ! A54   A(30,32,36)           120.0665         estimate D2E/DX2                !
 ! A55   A(30,32,37)           120.3839         estimate D2E/DX2                !
 ! A56   A(36,32,37)           119.5461         estimate D2E/DX2                !
 ! A57   A(31,34,36)           119.8228         estimate D2E/DX2                !
 ! A58   A(31,34,40)           119.9876         estimate D2E/DX2                !
 ! A59   A(36,34,40)           120.1488         estimate D2E/DX2                !
 ! A60   A(32,36,34)           119.5847         estimate D2E/DX2                !
 ! A61   A(32,36,38)           123.2279         estimate D2E/DX2                !
 ! A62   A(34,36,38)           117.186          estimate D2E/DX2                !
 ! A63   A(36,38,39)           110.289          estimate D2E/DX2                !
 ! A64   A(34,40,41)           113.7584         estimate D2E/DX2                !
 ! A65   A(40,41,42)           110.193          estimate D2E/DX2                !
 ! A66   A(40,41,43)           106.5802         estimate D2E/DX2                !
 ! A67   A(40,41,44)           111.0752         estimate D2E/DX2                !
 ! A68   A(42,41,43)           109.5419         estimate D2E/DX2                !
 ! A69   A(42,41,44)           109.8589         estimate D2E/DX2                !
 ! A70   A(43,41,44)           109.5296         estimate D2E/DX2                !
 ! A71   A(5,45,27)            113.0689         estimate D2E/DX2                !
 ! A72   A(5,45,46)            107.3698         estimate D2E/DX2                !
 ! A73   A(5,45,47)            110.0377         estimate D2E/DX2                !
 ! A74   A(27,45,46)           110.3635         estimate D2E/DX2                !
 ! A75   A(27,45,47)           107.371          estimate D2E/DX2                !
 ! A76   A(46,45,47)           108.563          estimate D2E/DX2                !
 ! A77   A(13,48,50)           148.1063         estimate D2E/DX2                !
 ! A78   A(9,50,48)            117.2922         estimate D2E/DX2                !
 ! A79   A(9,50,49)            117.3875         estimate D2E/DX2                !
 ! A80   A(48,50,49)           125.3185         estimate D2E/DX2                !
 ! D1    D(2,1,3,4)           -176.038          estimate D2E/DX2                !
 ! D2    D(2,1,3,5)              1.5924         estimate D2E/DX2                !
 ! D3    D(7,1,3,4)              1.1096         estimate D2E/DX2                !
 ! D4    D(7,1,3,5)            178.74           estimate D2E/DX2                !
 ! D5    D(2,1,7,8)             26.9715         estimate D2E/DX2                !
 ! D6    D(2,1,7,9)           -154.876          estimate D2E/DX2                !
 ! D7    D(3,1,7,8)           -150.3167         estimate D2E/DX2                !
 ! D8    D(3,1,7,9)             27.8359         estimate D2E/DX2                !
 ! D9    D(1,3,5,6)           -174.3647         estimate D2E/DX2                !
 ! D10   D(1,3,5,45)             5.4955         estimate D2E/DX2                !
 ! D11   D(4,3,5,6)              3.4592         estimate D2E/DX2                !
 ! D12   D(4,3,5,45)          -176.6805         estimate D2E/DX2                !
 ! D13   D(3,5,45,27)           66.3322         estimate D2E/DX2                !
 ! D14   D(3,5,45,46)         -171.6953         estimate D2E/DX2                !
 ! D15   D(3,5,45,47)          -53.7172         estimate D2E/DX2                !
 ! D16   D(6,5,45,27)         -113.8088         estimate D2E/DX2                !
 ! D17   D(6,5,45,46)            8.1637         estimate D2E/DX2                !
 ! D18   D(6,5,45,47)          126.1418         estimate D2E/DX2                !
 ! D19   D(1,7,8,10)           177.1773         estimate D2E/DX2                !
 ! D20   D(1,7,8,11)            -2.0087         estimate D2E/DX2                !
 ! D21   D(9,7,8,10)            -1.1511         estimate D2E/DX2                !
 ! D22   D(9,7,8,11)           179.6629         estimate D2E/DX2                !
 ! D23   D(1,7,9,12)          -177.7188         estimate D2E/DX2                !
 ! D24   D(1,7,9,50)             5.6177         estimate D2E/DX2                !
 ! D25   D(8,7,9,12)             0.4799         estimate D2E/DX2                !
 ! D26   D(8,7,9,50)          -176.1835         estimate D2E/DX2                !
 ! D27   D(7,8,10,14)            1.0698         estimate D2E/DX2                !
 ! D28   D(7,8,10,15)         -179.9962         estimate D2E/DX2                !
 ! D29   D(11,8,10,14)        -179.7496         estimate D2E/DX2                !
 ! D30   D(11,8,10,15)          -0.8155         estimate D2E/DX2                !
 ! D31   D(7,9,12,14)            0.2791         estimate D2E/DX2                !
 ! D32   D(7,9,12,18)         -174.9497         estimate D2E/DX2                !
 ! D33   D(50,9,12,14)         177.1328         estimate D2E/DX2                !
 ! D34   D(50,9,12,18)           1.904          estimate D2E/DX2                !
 ! D35   D(7,9,50,48)         -113.9729         estimate D2E/DX2                !
 ! D36   D(7,9,50,49)           66.4909         estimate D2E/DX2                !
 ! D37   D(12,9,50,48)          69.0697         estimate D2E/DX2                !
 ! D38   D(12,9,50,49)        -110.4666         estimate D2E/DX2                !
 ! D39   D(8,10,14,12)          -0.2492         estimate D2E/DX2                !
 ! D40   D(8,10,14,16)         178.2626         estimate D2E/DX2                !
 ! D41   D(15,10,14,12)       -179.189          estimate D2E/DX2                !
 ! D42   D(15,10,14,16)         -0.6772         estimate D2E/DX2                !
 ! D43   D(9,12,14,10)          -0.4007         estimate D2E/DX2                !
 ! D44   D(9,12,14,16)        -179.0182         estimate D2E/DX2                !
 ! D45   D(18,12,14,10)        174.7382         estimate D2E/DX2                !
 ! D46   D(18,12,14,16)         -3.8793         estimate D2E/DX2                !
 ! D47   D(9,12,18,19)        -108.7441         estimate D2E/DX2                !
 ! D48   D(14,12,18,19)         76.2042         estimate D2E/DX2                !
 ! D49   D(10,14,16,17)         -0.0276         estimate D2E/DX2                !
 ! D50   D(12,14,16,17)        178.5238         estimate D2E/DX2                !
 ! D51   D(12,18,19,20)         60.5204         estimate D2E/DX2                !
 ! D52   D(12,18,19,21)        179.2189         estimate D2E/DX2                !
 ! D53   D(12,18,19,22)        -61.7152         estimate D2E/DX2                !
 ! D54   D(24,23,25,26)       -179.9327         estimate D2E/DX2                !
 ! D55   D(24,23,25,27)         -0.148          estimate D2E/DX2                !
 ! D56   D(29,23,25,26)          0.1996         estimate D2E/DX2                !
 ! D57   D(29,23,25,27)        179.9842         estimate D2E/DX2                !
 ! D58   D(24,23,29,30)         -1.2763         estimate D2E/DX2                !
 ! D59   D(24,23,29,31)        178.6895         estimate D2E/DX2                !
 ! D60   D(25,23,29,30)        178.5969         estimate D2E/DX2                !
 ! D61   D(25,23,29,31)         -1.4374         estimate D2E/DX2                !
 ! D62   D(23,25,27,28)       -176.1457         estimate D2E/DX2                !
 ! D63   D(23,25,27,45)          3.9095         estimate D2E/DX2                !
 ! D64   D(26,25,27,28)          3.6542         estimate D2E/DX2                !
 ! D65   D(26,25,27,45)       -176.2906         estimate D2E/DX2                !
 ! D66   D(25,27,45,5)          68.2556         estimate D2E/DX2                !
 ! D67   D(25,27,45,46)        -52.0224         estimate D2E/DX2                !
 ! D68   D(25,27,45,47)       -170.1807         estimate D2E/DX2                !
 ! D69   D(28,27,45,5)        -111.6894         estimate D2E/DX2                !
 ! D70   D(28,27,45,46)        128.0325         estimate D2E/DX2                !
 ! D71   D(28,27,45,47)          9.8743         estimate D2E/DX2                !
 ! D72   D(23,29,30,32)       -179.5936         estimate D2E/DX2                !
 ! D73   D(23,29,30,33)         -0.0486         estimate D2E/DX2                !
 ! D74   D(31,29,30,32)          0.439          estimate D2E/DX2                !
 ! D75   D(31,29,30,33)        179.984          estimate D2E/DX2                !
 ! D76   D(23,29,31,34)        179.6382         estimate D2E/DX2                !
 ! D77   D(23,29,31,35)          0.0374         estimate D2E/DX2                !
 ! D78   D(30,29,31,34)         -0.3959         estimate D2E/DX2                !
 ! D79   D(30,29,31,35)       -179.9967         estimate D2E/DX2                !
 ! D80   D(29,30,32,36)          0.0154         estimate D2E/DX2                !
 ! D81   D(29,30,32,37)        179.3283         estimate D2E/DX2                !
 ! D82   D(33,30,32,36)       -179.53           estimate D2E/DX2                !
 ! D83   D(33,30,32,37)         -0.2171         estimate D2E/DX2                !
 ! D84   D(29,31,34,36)         -0.0986         estimate D2E/DX2                !
 ! D85   D(29,31,34,40)       -177.78           estimate D2E/DX2                !
 ! D86   D(35,31,34,36)        179.5177         estimate D2E/DX2                !
 ! D87   D(35,31,34,40)          1.8364         estimate D2E/DX2                !
 ! D88   D(30,32,36,34)         -0.518          estimate D2E/DX2                !
 ! D89   D(30,32,36,38)        179.0419         estimate D2E/DX2                !
 ! D90   D(37,32,36,34)       -179.8367         estimate D2E/DX2                !
 ! D91   D(37,32,36,38)         -0.2768         estimate D2E/DX2                !
 ! D92   D(31,34,36,32)          0.5594         estimate D2E/DX2                !
 ! D93   D(31,34,36,38)       -179.0267         estimate D2E/DX2                !
 ! D94   D(40,34,36,32)        178.237          estimate D2E/DX2                !
 ! D95   D(40,34,36,38)         -1.3491         estimate D2E/DX2                !
 ! D96   D(31,34,40,41)       -107.3135         estimate D2E/DX2                !
 ! D97   D(36,34,40,41)         75.0127         estimate D2E/DX2                !
 ! D98   D(32,36,38,39)         -0.1577         estimate D2E/DX2                !
 ! D99   D(34,36,38,39)        179.4121         estimate D2E/DX2                !
 ! D100  D(34,40,41,42)         61.9305         estimate D2E/DX2                !
 ! D101  D(34,40,41,43)       -179.2948         estimate D2E/DX2                !
 ! D102  D(34,40,41,44)        -60.0502         estimate D2E/DX2                !
 ! D103  D(13,48,50,9)         119.7289         estimate D2E/DX2                !
 ! D104  D(13,48,50,49)        -60.7758         estimate D2E/DX2                !
 --------------------------------------------------------------------------------
 Trust Radius=3.00D-01 FncErr=1.00D-07 GrdErr=1.00D-06 EigMax=2.50D+02 EigMin=1.00D-04
 Number of steps in this run=    245 maximum allowed number of steps=    300.
 GradGradGradGradGradGradGradGradGradGradGradGradGradGradGradGradGradGrad

                          Input orientation:                          
 ---------------------------------------------------------------------
 Center     Atomic      Atomic             Coordinates (Angstroms)
 Number     Number       Type             X           Y           Z
 ---------------------------------------------------------------------
      1          6           0        2.169725    1.499702    0.254544
      2          1           0        1.880289    2.392048   -0.293682
      3          6           0        1.420010    1.086097    1.284686
      4          1           0        1.694361    0.239011    1.906923
      5          6           0        0.176585    1.758911    1.716565
      6          8           0       -0.393935    1.386910    2.721479
      7          6           0        3.424340    0.899756   -0.213540
      8          6           0        4.374722    1.723398   -0.822523
      9          6           0        3.783258   -0.444600   -0.072822
     10          6           0        5.607087    1.239295   -1.238172
     11          1           0        4.142030    2.773389   -0.959963
     12          6           0        4.995922   -0.971738   -0.485740
     13          1           0        1.942308   -2.671201    6.023728
     14          6           0        5.927700   -0.103943   -1.077924
     15          1           0        6.322614    1.906963   -1.708057
     16          8           0        7.089414   -0.652799   -1.486976
     17          1           0        7.654261    0.014488   -1.900452
     18          8           0        5.217125   -2.305157   -0.402304
     19          6           0        6.151885   -2.685511    0.618109
     20          1           0        5.782000   -2.373452    1.596804
     21          1           0        6.217912   -3.770445    0.577421
     22          1           0        7.131694   -2.247560    0.423677
     23          6           0       -2.799380    1.256102    0.425032
     24          1           0       -2.528246    1.588440    1.424109
     25          6           0       -2.042001    1.637897   -0.617293
     26          1           0       -2.268910    1.335178   -1.635182
     27          6           0       -0.852264    2.492326   -0.495657
     28          8           0       -0.250409    2.858787   -1.487144
     29          6           0       -3.990932    0.411184    0.375169
     30          6           0       -4.637826    0.092518    1.572571
     31          6           0       -4.518933   -0.096803   -0.822529
     32          6           0       -5.769225   -0.713423    1.583728
     33          1           0       -4.246416    0.474362    2.509520
     34          6           0       -5.643551   -0.898256   -0.824089
     35          1           0       -4.057807    0.118425   -1.780154
     36          6           0       -6.276771   -1.218242    0.391578
     37          1           0       -6.256764   -0.962909    2.521677
     38          8           0       -7.362080   -2.023364    0.329932
     39          1           0       -7.710424   -2.184870    1.217010
     40          8           0       -6.110392   -1.416443   -1.997423
     41          6           0       -7.313840   -0.802515   -2.458839
     42          1           0       -7.143547    0.259527   -2.658228
     43          1           0       -7.585362   -1.307799   -3.384163
     44          1           0       -8.118200   -0.918680   -1.730024
     45          6           0       -0.373860    2.918002    0.892983
     46          1           0       -1.195390    3.358178    1.458905
     47          1           0        0.397404    3.676734    0.753344
     48          8           0        3.113794   -1.935166    1.545226
     49          8           0        1.849338   -1.681677   -0.175691
     50          7           0        2.835350   -1.432784    0.477855
 ---------------------------------------------------------------------
                    Distance matrix (angstroms):
                    1          2          3          4          5
     1  C    0.000000
     2  H    1.086558   0.000000
     3  C    1.339528   2.099669   0.000000
     4  H    2.132058   3.084284   1.086279   0.000000
     5  C    2.485418   2.710085   1.478278   2.156381   0.000000
     6  O    3.559613   3.908144   2.333508   2.518363   1.213973
     7  C    1.467343   2.148826   2.509330   2.815276   3.874450
     8  C    2.464168   2.636089   3.684671   4.103367   4.906382
     9  C    2.547738   3.422959   3.125828   2.958075   4.589712
    10  C    3.756523   4.013717   4.890796   5.118752   6.204097
    11  H    2.643348   2.388477   3.910856   4.542378   4.890575
    12  C    3.826673   4.589022   4.489570   4.253359   5.960923
    13  H    7.122615   8.096296   6.070305   5.047662   6.426144
    14  C    4.297618   4.819393   5.226604   5.191155   6.659934
    15  H    4.611307   4.687219   5.802229   6.104989   7.037303
    16  O    5.645307   6.150613   6.545839   6.435874   7.991635
    17  H    6.077006   6.447733   7.082325   7.075799   8.487724
    18  O    4.918846   5.762813   5.363266   4.920893   6.812731
    19  C    5.788418   6.697724   6.087691   5.484833   7.527530
    20  H    5.463654   6.442615   5.576096   4.861063   6.965016
    21  H    6.653308   7.586179   6.863387   6.189170   8.268558
    22  H    6.220266   7.043992   6.669178   6.160166   8.130001
    23  C    4.977993   4.868903   4.309427   4.839853   3.282871
    24  H    4.842178   4.799142   3.982526   4.459201   2.725931
    25  C    4.303235   4.007221   3.988424   4.721117   3.222368
    26  H    4.826967   4.486919   4.711242   5.427302   4.170635
    27  C    3.268108   2.741842   3.210971   4.163547   2.547617
    28  O    3.276834   2.486376   3.689956   4.707978   3.414059
    29  C    6.257246   6.232369   5.528203   5.890540   4.580820
    30  C    7.075318   7.159369   6.145523   6.342700   5.096681
    31  C    6.960392   6.886515   6.411759   6.794681   5.651421
    32  C    8.348149   8.466622   7.417061   7.531049   6.440710
    33  H    6.877726   7.005139   5.829479   5.975897   4.673519
    34  C    8.243843   8.228949   7.634035   7.911811   6.883999
    35  H    6.695527   6.529926   6.351072   6.833485   5.731345
    36  C    8.874080   8.946586   8.083815   8.243713   7.229442
    37  H    9.066977   9.240866   8.041233   8.064919   7.031678
    38  O   10.162332  10.261878   9.365117   9.467014   8.547504
    39  H   10.588662  10.733692   9.698899   9.736589   8.832207
    40  O    9.062869   9.014339   8.587310   8.882489   7.962578
    41  C   10.129199   9.971216   9.688188  10.064410   8.949937
    42  H    9.836631   9.569134   9.463842   9.947343   8.658596
    43  H   10.783505  10.622546  10.422361  10.793585   9.781102
    44  H   10.753069  10.629853  10.202208  10.528722   9.372936
    45  C    2.981444   2.601151   2.593700   3.533073   1.524719
    46  H    4.028452   3.669437   3.468865   4.275580   2.122818
    47  H    2.851209   2.223877   2.835392   3.851076   2.157452
    48  O    3.788858   4.860854   3.473444   2.621576   4.722580
    49  O    3.226286   4.075551   3.158733   2.837312   4.268066
    50  N    3.015361   4.017058   2.999821   2.477699   4.334785
                    6          7          8          9         10
     6  O    0.000000
     7  C    4.840545   0.000000
     8  C    5.950904   1.397309   0.000000
     9  C    5.348970   1.398541   2.368987   0.000000
    10  C    7.191167   2.435065   1.387747   2.742243   0.000000
    11  H    6.004192   2.140731   1.084213   3.357260   2.139448
    12  C    6.700749   2.458954   2.786229   1.385255   2.414196
    13  H    5.729847   7.338369   8.491189   6.746463   9.025396
    14  C    7.524704   2.832205   2.411669   2.392678   1.390238
    15  H    8.062461   3.412923   2.147593   3.827816   1.085612
    16  O    8.824512   4.179095   3.668428   3.601923   2.416447
    17  H    9.381857   4.639138   3.851971   4.305306   2.475821
    18  O    7.407656   3.677116   4.137086   2.371963   3.662497
    19  C    7.991028   4.580969   4.967112   3.333085   4.375692
    20  H    7.317608   4.421515   4.961628   3.240847   4.595609
    21  H    8.655161   5.499131   5.961501   4.172721   5.363485
    22  H    8.667431   4.904704   4.992235   3.835257   4.152629
    23  C    3.328204   6.266533   7.296745   6.816991   8.569434
    24  H    2.505806   6.212041   7.260615   6.797730   8.566988
    25  C    3.731824   5.530710   6.420573   6.210224   7.684589
    26  H    4.743279   5.884195   6.704399   6.499024   7.886579
    27  C    3.432488   4.572222   5.293343   5.503853   6.621528
    28  O    4.460889   4.354727   4.808603   5.402142   6.082351
    29  C    4.404043   7.454632   8.552224   7.833970   9.767835
    30  C    4.583236   8.297008   9.466903   8.597120  10.685205
    31  C    5.637109   8.028672   9.078007   8.343224  10.222240
    32  C    5.882144   9.505480  10.706437   9.698781  11.882621
    33  H    3.964755   8.150860   9.326662   8.484612  10.569855
    34  C    6.734352   9.264571  10.355620   9.467573  11.459382
    35  H    5.941187   7.684223   8.637160   8.044519   9.744756
    36  C    6.842734   9.948047  11.116725  10.100414  12.244249
    37  H    6.319362  10.231066  11.464223  10.382779  12.638715
    38  O    8.118159  11.188693  12.374122  11.263803  13.464887
    39  H    8.279617  11.642352  12.864098  11.696022  13.968139
    40  O    7.924941   9.972870  11.008024  10.125852  12.038634
    41  C    8.917083  11.101694  12.069807  11.356354  13.138089
    42  H    8.704568  10.865847  11.755137  11.250564  12.866824
    43  H    9.811062  11.667891  12.601339  11.872473  13.606383
    44  H    9.208468  11.782897  12.801454  12.025630  13.902599
    45  C    2.384962   4.441175   5.188359   5.433369   6.567466
    46  H    2.474332   5.493889   6.237273   6.449360   7.618240
    47  H    3.121389   4.220048   4.702971   5.397402   6.086710
    48  O    4.972315   3.350594   4.536658   2.299575   4.903164
    49  O    4.779340   3.024212   4.288413   2.298039   4.876640
    50  N    4.838678   2.503134   3.744614   1.475900   4.215125
                   11         12         13         14         15
    11  H    0.000000
    12  C    3.870401   0.000000
    13  H    9.124379   7.388228   0.000000
    14  C    3.388447   1.404265   8.538596   0.000000
    15  H    2.462781   3.397219   9.996358   2.144008   0.000000
    16  O    4.550119   2.342414   9.326163   1.348387   2.681276
    17  H    4.564189   3.168725  10.130743   1.916140   2.322016
    18  O    5.220963   1.354215   7.221655   2.409714   4.546324
    19  C    6.027389   2.343447   6.851384   3.096978   5.150827
    20  H    5.976332   2.630534   5.867670   3.510850   5.434734
    21  H    7.035240   3.233624   7.010805   4.033314   6.121057
    22  H    6.005205   2.648826   7.646553   2.880885   4.739089
    23  C    7.239029   8.158401   8.321821   8.959381   9.390658
    24  H    7.181955   8.174053   7.699798   8.979273   9.394129
    25  C    6.296745   7.507321   8.862630   8.170821   8.439725
    26  H    6.604886   7.708493   9.614797   8.340624   8.610839
    27  C    5.023699   6.797141   8.773485   7.283376   7.300099
    28  O    4.424786   6.572650   9.581335   6.863983   6.645254
    29  C    8.573661   9.133301   8.752751  10.037733  10.627626
    30  C    9.522955   9.908501   8.411249  10.894680  11.583868
    31  C    9.125194   9.560931   9.759426  10.449756  11.060668
    32  C   10.810236  10.965301   9.111215  12.011407  12.802924
    33  H    9.364233   9.822607   7.781036  10.803556  11.469294
    34  C   10.452609  10.645106  10.372136  11.601259  12.322329
    35  H    8.657879   9.210536  10.231519  10.012638  10.533623
    36  C   11.238825  11.309468  10.069035  12.343022  13.149901
    37  H   11.585191  11.647643   9.077853  12.734053  13.578203
    38  O   12.530651  12.429460  10.927518  13.501277  14.383036
    39  H   13.030895  12.877200  10.794272  13.985543  14.907223
    40  O   11.123991  11.217538  11.435002  12.144290  12.872778
    41  C   12.094242  12.468040  12.693393  13.331666  13.923284
    42  H   11.686225  12.393645  12.904197  13.171445  13.599793
    43  H   12.651662  12.915205  13.458967  13.761208  14.372746
    44  H   12.827221  13.173127  12.822084  14.084613  14.714682
    45  C    4.883399   6.772409   7.932740   7.261287   7.254680
    46  H    5.889054   7.801421   8.187562   8.316261   8.285896
    47  H    4.215884   6.655073   8.394043   6.944871   6.655727
    48  O    5.431734   2.931795   4.687335   4.260558   5.970120
    49  O    5.071403   3.240545   6.278583   4.465008   5.936049
    50  N    4.633209   2.410218   5.752210   3.707950   5.300296
                   16         17         18         19         20
    16  O    0.000000
    17  H    0.967102   0.000000
    18  O    2.722548   3.683046   0.000000
    19  C    3.072826   3.986261   1.435160   0.000000
    20  H    3.765591   4.630164   2.078504   1.091806   0.000000
    21  H    3.839396   4.746437   2.026944   1.087702   1.783465
    22  H    2.489105   3.285043   2.085938   1.090702   1.792694
    23  C   10.251240  10.780913   8.810868   9.782572   9.390782
    24  H   10.295482  10.826517   8.859270   9.708808   9.207964
    25  C    9.454437   9.914607   8.263704   9.346541   9.066870
    26  H    9.568294  10.014185   8.415031   9.599637   9.434872
    27  C    8.599115   8.970736   7.737057   8.781149   8.489267
    28  O    8.136599   8.410985   7.598495   8.727009   8.560200
    29  C   11.285996  11.872082   9.631786  10.607793  10.235076
    30  C   12.142672  12.773542  10.332910  11.182410  10.707678
    31  C   11.640633  12.221331   9.992209  11.074438  10.823378
    32  C   13.220344  13.887380  11.277315  12.121650  11.669904
    33  H   12.072428  12.699821  10.284117  11.031178  10.464809
    34  C   12.752571  13.372489  10.959542  12.016927  11.772007
    35  H   11.177713  11.713147   9.684864  10.855944  10.697434
    36  C   13.509389  14.172038  11.572436  12.517015  12.173785
    37  H   13.938649  14.629666  11.916435  12.671444  12.156351
    38  O   14.629603  15.317243  12.603650  13.533245  13.209631
    39  H   15.122632  15.831276  13.029128  13.884269  13.499085
    40  O   13.231726  13.839170  11.473746  12.602181  12.460470
    41  C   14.436782  15.000778  12.787195  13.940553  13.799171
    42  H   14.310183  14.819223  12.823923  14.006289  13.860290
    43  H   14.811394  15.368667  13.182939  14.374568  14.304964
    44  H   15.211880  15.800961  13.472790  14.569514  14.366618
    45  C    8.609024   8.982450   7.760044   8.605827   8.147973
    46  H    9.664582  10.039017   8.755445   9.550684   9.030757
    47  H    8.279305   8.550827   7.768414   8.579656   8.143098
    48  O    5.161809   6.024092   2.890288   3.263826   2.704455
    49  O    5.498768   6.288791   3.432502   4.488842   4.368766
    50  N    4.750368   5.565325   2.684877   3.548013   3.289323
                   21         22         23         24         25
    21  H    0.000000
    22  H    1.782643   0.000000
    23  C   10.324773  10.530996   0.000000
    24  H   10.292221  10.441753   1.087252   0.000000
    25  C    9.945032  10.016839   1.343812   2.099095   0.000000
    26  H   10.148356  10.268703   2.128880   3.080691   1.085921
    27  C    9.505850   9.330342   2.483380   2.703965   1.469802
    28  O    9.489379   9.177225   3.566829   3.908672   2.336026
    29  C   11.033921  11.436087   1.461564   2.150734   2.507616
    30  C   11.565459  12.054772   2.459809   2.590397   3.731221
    31  C   11.433955  11.912846   2.518655   3.442421   3.030923
    32  C   12.411667  13.043504   3.747211   3.978442   4.925992
    33  H   11.456594  11.883644   2.655207   2.317628   3.998778
    34  C   12.284462  12.906760   3.780327   4.576372   4.409762
    35  H   11.237076  11.647304   2.782228   3.842890   2.779301
    36  C   12.754034  13.447954   4.267991   4.795313   5.206595
    37  H   12.933674  13.612595   4.612314   4.649289   5.863578
    38  O   13.694149  14.495811   5.619802   6.132561   6.527274
    39  H   14.032878  14.863438   6.048626   6.413715   7.078788
    40  O   12.812424  13.487228   4.896283   5.793788   5.271201
    41  C   14.182235  14.801031   5.738900   6.610285   6.094194
    42  H   14.326154  14.817764   5.419542   6.303371   5.664900
    43  H   14.570146  15.230710   6.632434   7.555270   6.860142
    44  H   14.798006  15.458448   6.137083   6.890703   6.685391
    45  C    9.396082   9.123411   2.977253   2.586737   2.588879
    46  H   10.322370  10.091399   2.839084   2.215781   2.826077
    47  H    9.453556   8.975333   4.023267   3.656545   3.462108
    48  O    3.733690   4.183179   6.812095   6.653051   6.635170
    49  O    4.900466   5.346284   5.531907   5.693529   5.133917
    50  N    4.112942   4.373256   6.243643   6.228271   5.866599
                   26         27         28         29         30
    26  H    0.000000
    27  C    2.155085   0.000000
    28  O    2.533307   1.216376   0.000000
    29  C    2.803683   3.865324   4.842570   0.000000
    30  C    4.176798   4.936307   6.021921   1.397780   0.000000
    31  C    2.788113   4.500543   5.234264   1.404036   2.405511
    32  C    5.177871   6.227132   7.255913   2.426454   1.389147
    33  H    4.672268   4.962211   6.134076   2.150516   1.084842
    34  C    4.127263   5.878805   6.606134   2.425697   2.781563
    35  H    2.168331   4.190566   4.700183   2.176143   3.402625
    36  C    5.166300   6.631800   7.514573   2.807197   2.408106
    37  H    6.201907   7.088834   8.170209   3.410223   2.153065
    38  O    6.409513   7.965598   8.815500   4.158570   3.666424
    39  H    7.080665   8.476069   9.402274   4.613330   3.841065
    40  O    4.739158   6.721732   7.271683   3.668995   4.146115
    41  C    5.540710   7.514122   8.015073   4.532813   4.920813
    42  H    5.095658   7.017289   7.459420   4.377611   4.919978
    43  H    6.189421   8.253425   8.646425   5.477902   5.934481
    44  H    6.269216   8.121111   8.731001   4.820240   4.903331
    45  C    3.533859   1.529180   2.384063   4.431194   5.160097
    46  H    3.849460   2.165121   3.133942   4.204082   4.746348
    47  H    4.277519   2.127086   2.471535   5.483094   6.234683
    48  O    7.055752   6.284704   6.595083   7.573079   8.012482
    49  O    5.309566   4.982303   5.171524   6.228344   6.948920
    50  N    6.178997   5.472908   5.639212   7.071697   7.705408
                   31         32         33         34         35
    31  C    0.000000
    32  C    2.780922   0.000000
    33  H    3.391615   2.141699   0.000000
    34  C    1.380977   2.418168   3.866396   0.000000
    35  H    1.084437   3.864793   4.308546   2.112412   0.000000
    36  C    2.412815   1.390563   3.387172   1.407552   3.380370
    37  H    3.867029   1.086134   2.471314   3.402111   4.950802
    38  O    3.622608   2.413531   4.549352   2.356050   4.467431
    39  H    4.324970   2.463309   4.554279   3.177015   5.256403
    40  O    2.377934   3.665416   5.230878   1.364980   2.572184
    41  C    3.314672   4.328524   5.976964   2.339111   3.451159
    42  H    3.222633   4.563944   5.928334   2.637141   3.211342
    43  H    4.175101   5.322741   7.004296   3.239187   4.129238
    44  H    3.801809   4.067034   5.908046   2.635341   4.191049
    45  C    5.404966   6.540209   4.856054   6.729176   5.343665
    46  H    5.309215   6.124825   4.327695   6.566234   5.401938
    47  H    6.394788   7.615138   5.907995   7.740282   6.239317
    48  O    8.200266   8.966725   7.804382   9.131261   8.167450
    49  O    6.594323   7.878806   7.001220   7.561585   6.380363
    50  N    7.586918   8.705122   7.610275   8.594914   7.417579
                   36         37         38         39         40
    36  C    0.000000
    37  H    2.145441   0.000000
    38  O    1.352744   2.673954   0.000000
    39  H    1.916004   2.304013   0.966610   0.000000
    40  O    2.402975   4.544159   2.711394   3.671943   0.000000
    41  C    3.061571   5.093984   3.044675   3.947157   1.427621
    42  H    3.498059   5.395567   3.766756   4.616698   2.076764
    43  H    3.997080   6.063256   3.788983   4.685690   2.027409
    44  H    2.825206   4.641536   2.456718   3.233346   2.085801
    45  C    7.225253   7.233441   8.577257   8.942565   7.749171
    46  H    6.921216   6.739345   8.262181   8.557427   7.674663
    47  H    8.284701   8.302484   9.637426  10.015501   8.709683
    48  O    9.488287   9.471330  10.546500  10.832072   9.894697
    49  O    8.159058   8.573291   9.231611   9.673773   8.169845
    50  N    9.115055   9.330838  10.215589  10.598365   9.281895
                   41         42         43         44         45
    41  C    0.000000
    42  H    1.093933   0.000000
    43  H    1.088697   1.782889   0.000000
    44  H    1.091632   1.788766   1.780873   0.000000
    45  C    8.558054   8.093655   9.389203   9.031893   0.000000
    46  H    8.372306   7.869751   9.276766   8.739913   1.090383
    47  H    9.478664   8.954444  10.280519   9.990018   1.090881
    48  O   11.227243  11.300387  11.796796  11.743858   6.011854
    49  O    9.484173   9.529074   9.972344  10.116815   5.219360
    50  N   10.584303  10.596099  11.114047  11.185674   5.422242
                   46         47         48         49         50
    46  H    0.000000
    47  H    1.770957   0.000000
    48  O    6.826127   6.284845   0.000000
    49  O    6.110844   5.628835   2.150502   0.000000
    50  N    6.337401   5.668038   1.212105   1.208838   0.000000
 Stoichiometry    C21H20NO8(2)
 Framework group  C1[X(C21H20NO8)]
 Deg. of freedom   144
 Full point group                 C1      NOp   1
 Largest Abelian subgroup         C1      NOp   1
 Largest concise Abelian subgroup C1      NOp   1
                         Standard orientation:                         
 ---------------------------------------------------------------------
 Center     Atomic      Atomic             Coordinates (Angstroms)
 Number     Number       Type             X           Y           Z
 ---------------------------------------------------------------------
      1          6           0        2.169725    1.499702    0.254544
      2          1           0        1.880289    2.392048   -0.293682
      3          6           0        1.420010    1.086097    1.284686
      4          1           0        1.694361    0.239011    1.906923
      5          6           0        0.176585    1.758911    1.716565
      6          8           0       -0.393935    1.386910    2.721479
      7          6           0        3.424340    0.899756   -0.213540
      8          6           0        4.374722    1.723398   -0.822523
      9          6           0        3.783258   -0.444600   -0.072822
     10          6           0        5.607087    1.239295   -1.238172
     11          1           0        4.142030    2.773389   -0.959963
     12          6           0        4.995922   -0.971738   -0.485740
     13          1           0        1.942308   -2.671201    6.023728
     14          6           0        5.927700   -0.103943   -1.077924
     15          1           0        6.322614    1.906963   -1.708057
     16          8           0        7.089414   -0.652799   -1.486976
     17          1           0        7.654261    0.014488   -1.900452
     18          8           0        5.217125   -2.305157   -0.402304
     19          6           0        6.151885   -2.685511    0.618109
     20          1           0        5.782000   -2.373452    1.596804
     21          1           0        6.217912   -3.770445    0.577421
     22          1           0        7.131694   -2.247560    0.423677
     23          6           0       -2.799380    1.256102    0.425032
     24          1           0       -2.528246    1.588440    1.424109
     25          6           0       -2.042001    1.637897   -0.617293
     26          1           0       -2.268910    1.335178   -1.635182
     27          6           0       -0.852264    2.492326   -0.495657
     28          8           0       -0.250409    2.858787   -1.487144
     29          6           0       -3.990932    0.411184    0.375169
     30          6           0       -4.637826    0.092518    1.572571
     31          6           0       -4.518933   -0.096803   -0.822529
     32          6           0       -5.769225   -0.713423    1.583728
     33          1           0       -4.246416    0.474362    2.509520
     34          6           0       -5.643551   -0.898256   -0.824089
     35          1           0       -4.057807    0.118425   -1.780154
     36          6           0       -6.276771   -1.218242    0.391578
     37          1           0       -6.256764   -0.962909    2.521677
     38          8           0       -7.362080   -2.023364    0.329932
     39          1           0       -7.710424   -2.184870    1.217010
     40          8           0       -6.110392   -1.416443   -1.997423
     41          6           0       -7.313840   -0.802515   -2.458839
     42          1           0       -7.143547    0.259527   -2.658228
     43          1           0       -7.585362   -1.307799   -3.384163
     44          1           0       -8.118200   -0.918680   -1.730024
     45          6           0       -0.373860    2.918002    0.892983
     46          1           0       -1.195390    3.358178    1.458905
     47          1           0        0.397404    3.676734    0.753344
     48          8           0        3.113794   -1.935166    1.545226
     49          8           0        1.849338   -1.681677   -0.175691
     50          7           0        2.835350   -1.432784    0.477855
 ---------------------------------------------------------------------
 Rotational constants (GHZ):           0.2873994           0.0549598           0.0525830
 Standard basis: 6-311+G(d) (5D, 7F)
 There are   750 symmetry adapted cartesian basis functions of A   symmetry.
 There are   720 symmetry adapted basis functions of A   symmetry.
   720 basis functions,  1180 primitive gaussians,   750 cartesian basis functions
   109 alpha electrons      108 beta electrons
       nuclear repulsion energy      2736.3971493285 Hartrees.
 NAtoms=   50 NActive=   50 NUniq=   50 SFac= 1.00D+00 NAtFMM=   60 NAOKFM=F Big=F
 Integral buffers will be    131072 words long.
 Raffenetti 2 integral format.
 Two-electron integral symmetry is turned on.
 Using the following non-standard input for PCM:
 Eps=7
 EpsInf=1.85341
 HbondAcidity=0
 HbondBasicity=0.48
 SurfaceTensionAtInterface=60.62
 CarbonAromaticity=0
 ElectronegativeHalogenicity=0
 --- end of non-standard input.
 ------------------------------------------------------------------------------
 Polarizable Continuum Model (PCM)
 =================================
 Model                : PCM.
 Atomic radii         : SMD-Coulomb.
 Polarization charges : Total charges.
 Charge compensation  : None.
 Solution method      : On-the-fly selection.
 Cavity type          : VdW (van der Waals Surface) (Alpha=1.000).
 Cavity algorithm     : GePol (No added spheres)
                        Default sphere list used, NSphG=   50.
                        Lebedev-Laikov grids with approx.  5.0 points / Ang**2.
                        Smoothing algorithm: York/Karplus (Gamma=1.0000).
                        Polarization charges: spherical gaussians, with
                                              point-specific exponents (IZeta= 3).
                        Self-potential: point-specific (ISelfS= 7).
                        Self-field    : sphere-specific E.n sum rule (ISelfD= 2).
 1st derivatives      : Analytical E(r).r(x)/FMM algorithm (CHGder, D1EAlg=3).
                        Cavity 1st derivative terms included.
 Solvent              : Generic,
                        Eps                           =   7.000000
                        Eps(infinity)                 =   1.853410
                        RSolv                         =   0.000000 Ang.
                        Molar volume                  =   0.000000 cm**3/mol
                        Thermal expansion coefficient =   0.000000 K**-1
                        Absolute temperature          = 298.150000 K
                        Numeral density               =   0.000000 Ang**-3
                        Hydrogen bond acidity         =   0.000000
                        Hydrogen bond basicity        =   0.480000
                        Surface tension at interface  =  60.620000 (cal/mol)*Ang**-2
                        Carbon aromaticity            =   0.000000
                        Electronegative halogenicity  =   0.000000
 ------------------------------------------------------------------------------
 Separa: There are  2 disjoint cavities,
 ------------------------------------------------------------------------------
 Atomic radii for non-electrostatic terms: SMD-CDS.
 ------------------------------------------------------------------------------
 Separa: There are  2 disjoint cavities,
 Nuclear repulsion after PCM non-electrostatic terms =     2736.3937261512 Hartrees.
 One-electron integrals computed using PRISM.
 NBasis=   720 RedAO= T EigKep=  1.45D-06  NBF=   720
 NBsUse=   715 1.00D-06 EigRej=  9.64D-07 NBFU=   715
 Initial guess from the checkpoint file:  "CURCUMIN-OPT-FREQ-Prod-1-M06-2X-6-311+G-D-298-cont.chk"
 B after Tr=    -0.000000   -0.000000    0.000000
         Rot=    1.000000    0.000000   -0.000000    0.000000 Ang=   0.00 deg.
 Initial guess <Sx>= 0.0000 <Sy>= 0.0000 <Sz>= 0.5000 <S**2>= 0.7500 S= 0.5000
 Requested convergence on RMS density matrix=1.00D-08 within 128 cycles.
 Requested convergence on MAX density matrix=1.00D-06.
 Requested convergence on             energy=1.00D-06.
 No special actions if energy rises.
 Inv3:  Mode=1 IEnd=    51393963.
 Iteration    1 A*A^-1 deviation from unit magnitude is 3.77D-15 for   3706.
 Iteration    1 A*A^-1 deviation from orthogonality  is 1.96D-15 for   3964   3838.
 Iteration    1 A^-1*A deviation from unit magnitude is 3.77D-15 for   3706.
 Iteration    1 A^-1*A deviation from orthogonality  is 5.63D-12 for    790    750.
 Error on total polarization charges =  0.04827
 SCF Done:  E(UM062X) =  -1468.37531921     A.U. after    2 cycles
            NFock=  2  Conv=0.12D-08     -V/T= 2.0035
 <Sx>= 0.0000 <Sy>= 0.0000 <Sz>= 0.5000 <S**2>= 0.7500 S= 0.5000
 <L.S>=  0.00000000000    
 SMD-CDS (non-electrostatic) energy       (kcal/mol) =      -2.15
 (included in total energy above)
 Annihilation of the first spin contaminant:
 S**2 before annihilation     0.7500,   after     0.7500

 **********************************************************************

            Population analysis using the SCF density.

 **********************************************************************

 Orbital symmetries:
 Alpha Orbitals:
       Occupied  (A) (A) (A) (A) (A) (A) (A) (A) (A) (A) (A) (A)
                 (A) (A) (A) (A) (A) (A) (A) (A) (A) (A) (A) (A)
                 (A) (A) (A) (A) (A) (A) (A) (A) (A) (A) (A) (A)
                 (A) (A) (A) (A) (A) (A) (A) (A) (A) (A) (A) (A)
                 (A) (A) (A) (A) (A) (A) (A) (A) (A) (A) (A) (A)
                 (A) (A) (A) (A) (A) (A) (A) (A) (A) (A) (A) (A)
                 (A) (A) (A) (A) (A) (A) (A) (A) (A) (A) (A) (A)
                 (A) (A) (A) (A) (A) (A) (A) (A) (A) (A) (A) (A)
                 (A) (A) (A) (A) (A) (A) (A) (A) (A) (A) (A) (A)
                 (A)
       Virtual   (A) (A) (A) (A) (A) (A) (A) (A) (A) (A) (A) (A)
                 (A) (A) (A) (A) (A) (A) (A) (A) (A) (A) (A) (A)
                 (A) (A) (A) (A) (A) (A) (A) (A) (A) (A) (A) (A)
                 (A) (A) (A) (A) (A) (A) (A) (A) (A) (A) (A) (A)
                 (A) (A) (A) (A) (A) (A) (A) (A) (A) (A) (A) (A)
                 (A) (A) (A) (A) (A) (A) (A) (A) (A) (A) (A) (A)
                 (A) (A) (A) (A) (A) (A) (A) (A) (A) (A) (A) (A)
                 (A) (A) (A) (A) (A) (A) (A) (A) (A) (A) (A) (A)
                 (A) (A) (A) (A) (A) (A) (A) (A) (A) (A) (A) (A)
                 (A) (A) (A) (A) (A) (A) (A) (A) (A) (A) (A) (A)
                 (A) (A) (A) (A) (A) (A) (A) (A) (A) (A) (A) (A)
                 (A) (A) (A) (A) (A) (A) (A) (A) (A) (A) (A) (A)
                 (A) (A) (A) (A) (A) (A) (A) (A) (A) (A) (A) (A)
                 (A) (A) (A) (A) (A) (A) (A) (A) (A) (A) (A) (A)
                 (A) (A) (A) (A) (A) (A) (A) (A) (A) (A) (A) (A)
                 (A) (A) (A) (A) (A) (A) (A) (A) (A) (A) (A) (A)
                 (A) (A) (A) (A) (A) (A) (A) (A) (A) (A) (A) (A)
                 (A) (A) (A) (A) (A) (A) (A) (A) (A) (A) (A) (A)
                 (A) (A) (A) (A) (A) (A) (A) (A) (A) (A) (A) (A)
                 (A) (A) (A) (A) (A) (A) (A) (A) (A) (A) (A) (A)
                 (A) (A) (A) (A) (A) (A) (A) (A) (A) (A) (A) (A)
                 (A) (A) (A) (A) (A) (A) (A) (A) (A) (A) (A) (A)
                 (A) (A) (A) (A) (A) (A) (A) (A) (A) (A) (A) (A)
                 (A) (A) (A) (A) (A) (A) (A) (A) (A) (A) (A) (A)
                 (A) (A) (A) (A) (A) (A) (A) (A) (A) (A) (A) (A)
                 (A) (A) (A) (A) (A) (A) (A) (A) (A) (A) (A) (A)
                 (A) (A) (A) (A) (A) (A) (A) (A) (A) (A) (A) (A)
                 (A) (A) (A) (A) (A) (A) (A) (A) (A) (A) (A) (A)
                 (A) (A) (A) (A) (A) (A) (A) (A) (A) (A) (A) (A)
                 (A) (A) (A) (A) (A) (A) (A) (A) (A) (A) (A) (A)
                 (A) (A) (A) (A) (A) (A) (A) (A) (A) (A) (A) (A)
                 (A) (A) (A) (A) (A) (A) (A) (A) (A) (A) (A) (A)
                 (A) (A) (A) (A) (A) (A) (A) (A) (A) (A) (A) (A)
                 (A) (A) (A) (A) (A) (A) (A) (A) (A) (A) (A) (A)
                 (A) (A) (A) (A) (A) (A) (A) (A) (A) (A) (A) (A)
                 (A) (A) (A) (A) (A) (A) (A) (A) (A) (A) (A) (A)
                 (A) (A) (A) (A) (A) (A) (A) (A) (A) (A) (A) (A)
                 (A) (A) (A) (A) (A) (A) (A) (A) (A) (A) (A) (A)
                 (A) (A) (A) (A) (A) (A) (A) (A) (A) (A) (A) (A)
                 (A) (A) (A) (A) (A) (A) (A) (A) (A) (A) (A) (A)
                 (A) (A) (A) (A) (A) (A) (A) (A) (A) (A) (A) (A)
                 (A) (A) (A) (A) (A) (A) (A) (A) (A) (A) (A) (A)
                 (A) (A) (A) (A) (A) (A) (A) (A) (A) (A) (A) (A)
                 (A) (A) (A) (A) (A) (A) (A) (A) (A) (A) (A) (A)
                 (A) (A) (A) (A) (A) (A) (A) (A) (A) (A) (A) (A)
                 (A) (A) (A) (A) (A) (A) (A) (A) (A) (A) (A) (A)
                 (A) (A) (A) (A) (A) (A) (A) (A) (A) (A) (A) (A)
                 (A) (A) (A) (A) (A) (A) (A) (A) (A) (A) (A) (A)
                 (A) (A) (A) (A) (A) (A) (A) (A) (A) (A) (A) (A)
                 (A) (A) (A) (A) (A) (A) (A) (A) (A) (A) (A) (A)
                 (A) (A) (A) (A) (A) (A)
 Beta  Orbitals:
       Occupied  (A) (A) (A) (A) (A) (A) (A) (A) (A) (A) (A) (A)
                 (A) (A) (A) (A) (A) (A) (A) (A) (A) (A) (A) (A)
                 (A) (A) (A) (A) (A) (A) (A) (A) (A) (A) (A) (A)
                 (A) (A) (A) (A) (A) (A) (A) (A) (A) (A) (A) (A)
                 (A) (A) (A) (A) (A) (A) (A) (A) (A) (A) (A) (A)
                 (A) (A) (A) (A) (A) (A) (A) (A) (A) (A) (A) (A)
                 (A) (A) (A) (A) (A) (A) (A) (A) (A) (A) (A) (A)
                 (A) (A) (A) (A) (A) (A) (A) (A) (A) (A) (A) (A)
                 (A) (A) (A) (A) (A) (A) (A) (A) (A) (A) (A) (A)
       Virtual   (A) (A) (A) (A) (A) (A) (A) (A) (A) (A) (A) (A)
                 (A) (A) (A) (A) (A) (A) (A) (A) (A) (A) (A) (A)
                 (A) (A) (A) (A) (A) (A) (A) (A) (A) (A) (A) (A)
                 (A) (A) (A) (A) (A) (A) (A) (A) (A) (A) (A) (A)
                 (A) (A) (A) (A) (A) (A) (A) (A) (A) (A) (A) (A)
                 (A) (A) (A) (A) (A) (A) (A) (A) (A) (A) (A) (A)
                 (A) (A) (A) (A) (A) (A) (A) (A) (A) (A) (A) (A)
                 (A) (A) (A) (A) (A) (A) (A) (A) (A) (A) (A) (A)
                 (A) (A) (A) (A) (A) (A) (A) (A) (A) (A) (A) (A)
                 (A) (A) (A) (A) (A) (A) (A) (A) (A) (A) (A) (A)
                 (A) (A) (A) (A) (A) (A) (A) (A) (A) (A) (A) (A)
                 (A) (A) (A) (A) (A) (A) (A) (A) (A) (A) (A) (A)
                 (A) (A) (A) (A) (A) (A) (A) (A) (A) (A) (A) (A)
                 (A) (A) (A) (A) (A) (A) (A) (A) (A) (A) (A) (A)
                 (A) (A) (A) (A) (A) (A) (A) (A) (A) (A) (A) (A)
                 (A) (A) (A) (A) (A) (A) (A) (A) (A) (A) (A) (A)
                 (A) (A) (A) (A) (A) (A) (A) (A) (A) (A) (A) (A)
                 (A) (A) (A) (A) (A) (A) (A) (A) (A) (A) (A) (A)
                 (A) (A) (A) (A) (A) (A) (A) (A) (A) (A) (A) (A)
                 (A) (A) (A) (A) (A) (A) (A) (A) (A) (A) (A) (A)
                 (A) (A) (A) (A) (A) (A) (A) (A) (A) (A) (A) (A)
                 (A) (A) (A) (A) (A) (A) (A) (A) (A) (A) (A) (A)
                 (A) (A) (A) (A) (A) (A) (A) (A) (A) (A) (A) (A)
                 (A) (A) (A) (A) (A) (A) (A) (A) (A) (A) (A) (A)
                 (A) (A) (A) (A) (A) (A) (A) (A) (A) (A) (A) (A)
                 (A) (A) (A) (A) (A) (A) (A) (A) (A) (A) (A) (A)
                 (A) (A) (A) (A) (A) (A) (A) (A) (A) (A) (A) (A)
                 (A) (A) (A) (A) (A) (A) (A) (A) (A) (A) (A) (A)
                 (A) (A) (A) (A) (A) (A) (A) (A) (A) (A) (A) (A)
                 (A) (A) (A) (A) (A) (A) (A) (A) (A) (A) (A) (A)
                 (A) (A) (A) (A) (A) (A) (A) (A) (A) (A) (A) (A)
                 (A) (A) (A) (A) (A) (A) (A) (A) (A) (A) (A) (A)
                 (A) (A) (A) (A) (A) (A) (A) (A) (A) (A) (A) (A)
                 (A) (A) (A) (A) (A) (A) (A) (A) (A) (A) (A) (A)
                 (A) (A) (A) (A) (A) (A) (A) (A) (A) (A) (A) (A)
                 (A) (A) (A) (A) (A) (A) (A) (A) (A) (A) (A) (A)
                 (A) (A) (A) (A) (A) (A) (A) (A) (A) (A) (A) (A)
                 (A) (A) (A) (A) (A) (A) (A) (A) (A) (A) (A) (A)
                 (A) (A) (A) (A) (A) (A) (A) (A) (A) (A) (A) (A)
                 (A) (A) (A) (A) (A) (A) (A) (A) (A) (A) (A) (A)
                 (A) (A) (A) (A) (A) (A) (A) (A) (A) (A) (A) (A)
                 (A) (A) (A) (A) (A) (A) (A) (A) (A) (A) (A) (A)
                 (A) (A) (A) (A) (A) (A) (A) (A) (A) (A) (A) (A)
                 (A) (A) (A) (A) (A) (A) (A) (A) (A) (A) (A) (A)
                 (A) (A) (A) (A) (A) (A) (A) (A) (A) (A) (A) (A)
                 (A) (A) (A) (A) (A) (A) (A) (A) (A) (A) (A) (A)
                 (A) (A) (A) (A) (A) (A) (A) (A) (A) (A) (A) (A)
                 (A) (A) (A) (A) (A) (A) (A) (A) (A) (A) (A) (A)
                 (A) (A) (A) (A) (A) (A) (A) (A) (A) (A) (A) (A)
                 (A) (A) (A) (A) (A) (A) (A) (A) (A) (A) (A) (A)
                 (A) (A) (A) (A) (A) (A) (A)
 The electronic state is 2-A.
 Alpha  occ. eigenvalues --  -19.67980 -19.67835 -19.67649 -19.66599 -19.65909
 Alpha  occ. eigenvalues --  -19.64149 -19.62520 -19.61941 -15.01526 -10.64430
 Alpha  occ. eigenvalues --  -10.63936 -10.63442 -10.62995 -10.62011 -10.61875
 Alpha  occ. eigenvalues --  -10.60321 -10.58506 -10.58152 -10.57857 -10.57483
 Alpha  occ. eigenvalues --  -10.56962 -10.56842 -10.56602 -10.55844 -10.55797
 Alpha  occ. eigenvalues --  -10.55390 -10.55165 -10.55087 -10.55042 -10.54585
 Alpha  occ. eigenvalues --   -1.39286  -1.22207  -1.20830  -1.20525  -1.19471
 Alpha  occ. eigenvalues --   -1.18100  -1.17760  -1.17358  -1.00791  -0.97562
 Alpha  occ. eigenvalues --   -0.92824  -0.91789  -0.91355  -0.87818  -0.85973
 Alpha  occ. eigenvalues --   -0.85529  -0.83031  -0.81415  -0.78964  -0.78097
 Alpha  occ. eigenvalues --   -0.75218  -0.74729  -0.71453  -0.70930  -0.70058
 Alpha  occ. eigenvalues --   -0.67368  -0.67030  -0.65542  -0.63941  -0.63211
 Alpha  occ. eigenvalues --   -0.62281  -0.61177  -0.60707  -0.59832  -0.59102
 Alpha  occ. eigenvalues --   -0.58840  -0.58156  -0.56796  -0.55809  -0.55657
 Alpha  occ. eigenvalues --   -0.54844  -0.54292  -0.53270  -0.52959  -0.52448
 Alpha  occ. eigenvalues --   -0.51557  -0.50997  -0.50856  -0.50451  -0.49970
 Alpha  occ. eigenvalues --   -0.49582  -0.48821  -0.47895  -0.47763  -0.46790
 Alpha  occ. eigenvalues --   -0.45961  -0.45737  -0.44904  -0.44606  -0.44380
 Alpha  occ. eigenvalues --   -0.43611  -0.43481  -0.42855  -0.42747  -0.40669
 Alpha  occ. eigenvalues --   -0.40429  -0.40195  -0.39723  -0.37010  -0.36133
 Alpha  occ. eigenvalues --   -0.36090  -0.35622  -0.35259  -0.34482  -0.32683
 Alpha  occ. eigenvalues --   -0.32558  -0.30962  -0.28747  -0.27123
 Alpha virt. eigenvalues --   -0.05771  -0.04309  -0.03549   0.00205   0.00878
 Alpha virt. eigenvalues --    0.01263   0.01300   0.01828   0.02323   0.02627
 Alpha virt. eigenvalues --    0.02709   0.03024   0.03686   0.03799   0.04122
 Alpha virt. eigenvalues --    0.04198   0.04575   0.04951   0.04981   0.05485
 Alpha virt. eigenvalues --    0.05738   0.05889   0.06330   0.06475   0.06895
 Alpha virt. eigenvalues --    0.07318   0.07583   0.07788   0.08370   0.08420
 Alpha virt. eigenvalues --    0.08736   0.09435   0.09698   0.09904   0.10139
 Alpha virt. eigenvalues --    0.10549   0.10855   0.11023   0.11183   0.11391
 Alpha virt. eigenvalues --    0.11991   0.12171   0.12668   0.12780   0.13130
 Alpha virt. eigenvalues --    0.13351   0.13715   0.14137   0.14416   0.14691
 Alpha virt. eigenvalues --    0.14887   0.15135   0.15378   0.15675   0.16069
 Alpha virt. eigenvalues --    0.16236   0.16635   0.16842   0.17262   0.17333
 Alpha virt. eigenvalues --    0.17529   0.17650   0.17877   0.18186   0.18546
 Alpha virt. eigenvalues --    0.18708   0.18886   0.18993   0.19034   0.19345
 Alpha virt. eigenvalues --    0.19721   0.20039   0.20355   0.20599   0.20703
 Alpha virt. eigenvalues --    0.20971   0.21147   0.21408   0.21693   0.22094
 Alpha virt. eigenvalues --    0.22222   0.22495   0.22782   0.22820   0.23616
 Alpha virt. eigenvalues --    0.23916   0.23933   0.24106   0.24538   0.24616
 Alpha virt. eigenvalues --    0.24809   0.25076   0.25253   0.25470   0.25639
 Alpha virt. eigenvalues --    0.25929   0.26346   0.26439   0.26613   0.26928
 Alpha virt. eigenvalues --    0.27137   0.27565   0.27910   0.28046   0.28290
 Alpha virt. eigenvalues --    0.28566   0.28993   0.29023   0.29492   0.29955
 Alpha virt. eigenvalues --    0.30197   0.30452   0.30569   0.30818   0.31044
 Alpha virt. eigenvalues --    0.31491   0.31720   0.32006   0.32138   0.32491
 Alpha virt. eigenvalues --    0.32589   0.32802   0.33420   0.33612   0.33662
 Alpha virt. eigenvalues --    0.34179   0.34252   0.34499   0.34648   0.34927
 Alpha virt. eigenvalues --    0.35310   0.35591   0.35839   0.36466   0.36833
 Alpha virt. eigenvalues --    0.37379   0.37522   0.37754   0.37879   0.38419
 Alpha virt. eigenvalues --    0.38863   0.38960   0.39349   0.39432   0.39649
 Alpha virt. eigenvalues --    0.39954   0.40755   0.40818   0.41224   0.41313
 Alpha virt. eigenvalues --    0.41649   0.42042   0.42632   0.43035   0.43151
 Alpha virt. eigenvalues --    0.43929   0.44303   0.44855   0.45143   0.45613
 Alpha virt. eigenvalues --    0.46468   0.46741   0.47590   0.47784   0.48271
 Alpha virt. eigenvalues --    0.48628   0.49295   0.50088   0.50583   0.50988
 Alpha virt. eigenvalues --    0.51186   0.51654   0.53441   0.53579   0.53935
 Alpha virt. eigenvalues --    0.54335   0.55258   0.55594   0.56182   0.56615
 Alpha virt. eigenvalues --    0.57324   0.57788   0.58309   0.58602   0.59137
 Alpha virt. eigenvalues --    0.59391   0.59791   0.59971   0.60551   0.60892
 Alpha virt. eigenvalues --    0.61897   0.62218   0.63049   0.63676   0.63794
 Alpha virt. eigenvalues --    0.64632   0.64896   0.65266   0.65514   0.65887
 Alpha virt. eigenvalues --    0.66637   0.66916   0.67546   0.67925   0.68838
 Alpha virt. eigenvalues --    0.69273   0.69548   0.70166   0.70455   0.70929
 Alpha virt. eigenvalues --    0.71531   0.71711   0.72068   0.72246   0.72337
 Alpha virt. eigenvalues --    0.72829   0.73139   0.73564   0.73623   0.74251
 Alpha virt. eigenvalues --    0.75376   0.75644   0.75985   0.76213   0.76448
 Alpha virt. eigenvalues --    0.76770   0.77329   0.77512   0.77761   0.78723
 Alpha virt. eigenvalues --    0.79546   0.79738   0.80307   0.81235   0.81631
 Alpha virt. eigenvalues --    0.82274   0.82755   0.83653   0.84130   0.85342
 Alpha virt. eigenvalues --    0.86062   0.86972   0.87380   0.88340   0.88729
 Alpha virt. eigenvalues --    0.89475   0.89742   0.89813   0.90660   0.91203
 Alpha virt. eigenvalues --    0.91846   0.92443   0.93402   0.93805   0.94192
 Alpha virt. eigenvalues --    0.95171   0.95551   0.96115   0.96909   0.97142
 Alpha virt. eigenvalues --    0.97773   0.98008   0.99842   1.00426   1.00988
 Alpha virt. eigenvalues --    1.01633   1.01862   1.02221   1.02633   1.03827
 Alpha virt. eigenvalues --    1.04136   1.04833   1.05960   1.06877   1.07650
 Alpha virt. eigenvalues --    1.08258   1.08835   1.10278   1.10506   1.11920
 Alpha virt. eigenvalues --    1.12081   1.12581   1.13399   1.14297   1.15329
 Alpha virt. eigenvalues --    1.17119   1.17360   1.17856   1.18473   1.19887
 Alpha virt. eigenvalues --    1.20512   1.20730   1.20878   1.22090   1.22350
 Alpha virt. eigenvalues --    1.23018   1.23383   1.24139   1.25116   1.25700
 Alpha virt. eigenvalues --    1.25837   1.26465   1.26934   1.27192   1.28394
 Alpha virt. eigenvalues --    1.29156   1.29703   1.30497   1.31119   1.31321
 Alpha virt. eigenvalues --    1.31977   1.32389   1.32496   1.33292   1.34063
 Alpha virt. eigenvalues --    1.34437   1.35054   1.35536   1.36335   1.37617
 Alpha virt. eigenvalues --    1.39220   1.40512   1.42120   1.43060   1.46066
 Alpha virt. eigenvalues --    1.46631   1.48025   1.48746   1.50038   1.51889
 Alpha virt. eigenvalues --    1.52176   1.54145   1.55148   1.55597   1.56201
 Alpha virt. eigenvalues --    1.57544   1.57909   1.58671   1.59858   1.60145
 Alpha virt. eigenvalues --    1.60481   1.61899   1.63144   1.63439   1.64008
 Alpha virt. eigenvalues --    1.65508   1.66862   1.67253   1.67495   1.67944
 Alpha virt. eigenvalues --    1.68557   1.69389   1.70672   1.72367   1.73772
 Alpha virt. eigenvalues --    1.74614   1.75278   1.76150   1.76278   1.77028
 Alpha virt. eigenvalues --    1.77708   1.78059   1.79401   1.79867   1.80393
 Alpha virt. eigenvalues --    1.81003   1.81504   1.82148   1.82623   1.84542
 Alpha virt. eigenvalues --    1.84930   1.86001   1.86152   1.86947   1.87461
 Alpha virt. eigenvalues --    1.88261   1.89045   1.89482   1.90053   1.91305
 Alpha virt. eigenvalues --    1.91908   1.92943   1.93705   1.94992   1.95676
 Alpha virt. eigenvalues --    1.96176   1.96417   1.97754   2.02843   2.03869
 Alpha virt. eigenvalues --    2.06461   2.06762   2.07397   2.08679   2.10631
 Alpha virt. eigenvalues --    2.11541   2.13750   2.14280   2.15538   2.17080
 Alpha virt. eigenvalues --    2.18540   2.19196   2.19856   2.20341   2.21385
 Alpha virt. eigenvalues --    2.23043   2.24670   2.25794   2.27025   2.28772
 Alpha virt. eigenvalues --    2.32375   2.33429   2.34084   2.35210   2.35395
 Alpha virt. eigenvalues --    2.37527   2.38105   2.38476   2.38719   2.39440
 Alpha virt. eigenvalues --    2.40735   2.43318   2.45096   2.49339   2.52980
 Alpha virt. eigenvalues --    2.53047   2.53885   2.54004   2.54836   2.55412
 Alpha virt. eigenvalues --    2.55695   2.56505   2.58185   2.62630   2.63166
 Alpha virt. eigenvalues --    2.65116   2.67807   2.70121   2.70537   2.71958
 Alpha virt. eigenvalues --    2.74496   2.76819   2.77146   2.77933   2.78934
 Alpha virt. eigenvalues --    2.79823   2.80083   2.82662   2.83237   2.84880
 Alpha virt. eigenvalues --    2.86567   2.87737   2.88293   2.88983   2.89824
 Alpha virt. eigenvalues --    2.91286   2.91519   2.92813   2.93580   2.94033
 Alpha virt. eigenvalues --    2.94990   2.96353   2.96862   2.97397   2.98839
 Alpha virt. eigenvalues --    3.01809   3.02086   3.03384   3.05609   3.07146
 Alpha virt. eigenvalues --    3.07498   3.07868   3.08309   3.10189   3.10653
 Alpha virt. eigenvalues --    3.11549   3.12054   3.13425   3.13744   3.14319
 Alpha virt. eigenvalues --    3.15024   3.15307   3.19275   3.19665   3.21069
 Alpha virt. eigenvalues --    3.22826   3.23555   3.24046   3.24787   3.25128
 Alpha virt. eigenvalues --    3.25416   3.26495   3.28635   3.29431   3.29996
 Alpha virt. eigenvalues --    3.30653   3.31525   3.33856   3.34489   3.37585
 Alpha virt. eigenvalues --    3.38615   3.38963   3.39776   3.40002   3.40831
 Alpha virt. eigenvalues --    3.41271   3.41846   3.42116   3.42968   3.43318
 Alpha virt. eigenvalues --    3.43944   3.45704   3.46844   3.49265   3.51274
 Alpha virt. eigenvalues --    3.52877   3.54163   3.55619   3.59195   3.60093
 Alpha virt. eigenvalues --    3.61682   3.62043   3.63606   3.65297   3.66046
 Alpha virt. eigenvalues --    3.66861   3.67900   3.69308   3.75535   3.77585
 Alpha virt. eigenvalues --    3.85081   3.86549   3.87021   3.95587   3.96229
 Alpha virt. eigenvalues --    4.01373   4.03009   4.03808   4.05704   4.09026
 Alpha virt. eigenvalues --    4.09542   4.15949   4.19802   4.21941   4.25280
 Alpha virt. eigenvalues --    4.26596   4.49620   4.55382   4.61301   4.77914
 Alpha virt. eigenvalues --    4.81839   4.82359   5.12193   5.13177   5.17284
 Alpha virt. eigenvalues --    5.19153   5.20242   5.20684   5.23851   5.24603
 Alpha virt. eigenvalues --    5.27123   5.31455   5.33308   5.35521   5.38199
 Alpha virt. eigenvalues --    5.39042   5.43072   5.44897   5.68835   5.70205
 Alpha virt. eigenvalues --    5.80441   5.85103   5.85529   5.86253   5.86282
 Alpha virt. eigenvalues --    6.34271  23.46202  23.47848  23.63721  23.65278
 Alpha virt. eigenvalues --   23.70709  23.73875  23.84988  23.90775  23.92374
 Alpha virt. eigenvalues --   23.93218  23.97414  23.97940  24.00140  24.07985
 Alpha virt. eigenvalues --   24.09053  24.11773  24.14474  24.19817  24.21539
 Alpha virt. eigenvalues --   24.24821  24.25346  35.50478  49.99642  50.01129
 Alpha virt. eigenvalues --   50.01504  50.08062  50.08783  50.11032  50.11781
 Alpha virt. eigenvalues --   50.12521
  Beta  occ. eigenvalues --  -19.67980 -19.67835 -19.67649 -19.66599 -19.65909
  Beta  occ. eigenvalues --  -19.64149 -19.62520 -19.61941 -15.01526 -10.64430
  Beta  occ. eigenvalues --  -10.63936 -10.63442 -10.62995 -10.62011 -10.61875
  Beta  occ. eigenvalues --  -10.60321 -10.58506 -10.58152 -10.57857 -10.57483
  Beta  occ. eigenvalues --  -10.56962 -10.56842 -10.56602 -10.55844 -10.55797
  Beta  occ. eigenvalues --  -10.55390 -10.55165 -10.55087 -10.55042 -10.54585
  Beta  occ. eigenvalues --   -1.39286  -1.22207  -1.20830  -1.20525  -1.19471
  Beta  occ. eigenvalues --   -1.18100  -1.17760  -1.17358  -1.00791  -0.97562
  Beta  occ. eigenvalues --   -0.92824  -0.91789  -0.91355  -0.87818  -0.85973
  Beta  occ. eigenvalues --   -0.85529  -0.83031  -0.81415  -0.78964  -0.78097
  Beta  occ. eigenvalues --   -0.75218  -0.74729  -0.71453  -0.70930  -0.70058
  Beta  occ. eigenvalues --   -0.67368  -0.67030  -0.65542  -0.63941  -0.63211
  Beta  occ. eigenvalues --   -0.62281  -0.61177  -0.60707  -0.59832  -0.59102
  Beta  occ. eigenvalues --   -0.58840  -0.58156  -0.56796  -0.55809  -0.55657
  Beta  occ. eigenvalues --   -0.54844  -0.54292  -0.53270  -0.52959  -0.52448
  Beta  occ. eigenvalues --   -0.51557  -0.50997  -0.50856  -0.50451  -0.49970
  Beta  occ. eigenvalues --   -0.49582  -0.48821  -0.47895  -0.47763  -0.46790
  Beta  occ. eigenvalues --   -0.45961  -0.45737  -0.44904  -0.44606  -0.44380
  Beta  occ. eigenvalues --   -0.43611  -0.43481  -0.42855  -0.42748  -0.40669
  Beta  occ. eigenvalues --   -0.40429  -0.40194  -0.39723  -0.37010  -0.36090
  Beta  occ. eigenvalues --   -0.35622  -0.35259  -0.34482  -0.32683  -0.32558
  Beta  occ. eigenvalues --   -0.30962  -0.28748  -0.27123
  Beta virt. eigenvalues --   -0.05771  -0.04308  -0.03546   0.00207   0.00892
  Beta virt. eigenvalues --    0.01266   0.01305   0.01835   0.02328   0.02693
  Beta virt. eigenvalues --    0.02722   0.03118   0.03720   0.03862   0.04174
  Beta virt. eigenvalues --    0.04217   0.04634   0.04971   0.05006   0.05490
  Beta virt. eigenvalues --    0.05798   0.05984   0.06427   0.06574   0.06947
  Beta virt. eigenvalues --    0.07340   0.07745   0.07893   0.08386   0.08476
[...]
 0003322,0.00003677,0.00000982,-0.00002307,-0.00001946,-0.00002488,0.00
 000453,-0.00000549,0.00000110,-0.00000331,-0.00002256,0.00006145,0.000
 00070,0.00001807,0.00000827,0.00003859,0.00002788,0.00000082,-0.000002
 35,-0.00000114,0.00000104,-0.00005249,-0.00003602,0.00000270,0.0000036
 8,0.00000391,-0.00000617,-0.00000954,-0.00000117,-0.00001793,0.0000093
 5,-0.00000431,0.00000461,-0.00000047,0.00000170,-0.00000022,-0.0000012
 0,0.00000003,-0.00000162,-0.00000053,0.00000002,0.00000133,-0.13478030
 ,-0.18337789,0.02363259,0.00964522,0.01141605,-0.00116673,0.14655690,0
 .19281863,0.00025984,-0.00056162,0.00005762,0.00122669,-0.00054921,-0.
 00014594,-0.00079818,-0.00072622,-0.00038988,0.00003330,-0.00002921,-0
 .00007303,0.01555110,0.01027805,-0.00286705,-0.00313243,0.00245651,-0.
 00378249,-0.00012052,0.00013617,0.00002369,0.00002670,0.00002054,-0.00
 002591,0.00001947,-0.00007425,0.00001424,-0.00002869,0.00004448,-0.000
 01372,0.00001696,0.00000213,0.00000627,-0.00006115,-0.00006755,0.00003
 781,-0.00000008,0.00000029,-0.00000030,0.00010306,-0.00001395,-0.00003
 621,-0.00000669,0.00000015,0.00000639,-0.00011425,0.00004089,0.0000388
 9,0.00001324,0.00000632,-0.00000374,-0.00002823,0.00005679,-0.00001804
 ,0.00002208,-0.00000971,0.00002480,0.00000097,-0.00000015,-0.00000283,
 -0.00000194,0.00000318,-0.00000282,-0.00000194,-0.00000197,0.00000064,
 0.00059508,0.00024786,-0.00069575,-0.00006513,0.00021821,0.00017591,-0
 .00066840,-0.00047929,-0.00514918,-0.00119215,-0.00058117,-0.00003901,
 -0.02511374,-0.02483739,-0.00044031,0.00058110,0.00122854,0.00415142,0
 .00000864,-0.00006093,0.00021025,-0.00002048,-0.00000654,-0.00002840,0
 .00001917,0.00000727,-0.00004716,-0.00001090,-0.00001398,-0.00000410,-
 0.00000800,-0.00000387,0.00000771,-0.00000415,-0.00000711,0.00006597,0
 .00000380,0.00001710,0.00003605,0.00001985,0.00001486,-0.00000454,-0.0
 0000370,-0.00000142,0.00000049,-0.00003798,-0.00002662,0.00000687,0.00
 000012,0.00000291,-0.00000551,-0.00000776,0.00000365,-0.00001126,0.000
 00689,-0.00000330,0.00000335,0.00000020,-0.00000030,0.,-0.00000026,0.0
 0000059,-0.00000018,0.00000083,0.00000035,0.00000128,0.03232182,0.0294
 3053,-0.04601613,0.00962380,0.01247793,-0.00180064,-0.02903046,-0.0286
 4834,0.05674788,-0.00096657,0.00063850,0.00039702,0.00012946,-0.000075
 94,-0.00010794,0.00109897,-0.00024724,-0.00006157,-0.00107235,0.000403
 51,-0.00012674,-0.00052518,0.00027696,0.00005288,0.00032824,0.00011405
 ,-0.00024267,-0.00288004,0.00046426,0.00317365,-0.00066587,-0.00170146
 ,0.00010156,0.01985694,-0.01488406,0.01306089,0.00042492,-0.00124152,0
 .00013651,-0.00036647,-0.00026506,0.00002236,-0.00080189,0.00173133,0.
 00002988,-0.00000292,-0.00000259,0.00000011,0.00159131,0.00087580,-0.0
 0096129,-0.00004011,-0.00002923,0.00000340,-0.00062081,0.00003276,0.00
 037833,0.00015480,-0.00002920,-0.00007104,-0.00426741,-0.00028996,0.00
 264975,0.00086700,-0.00060622,-0.00020730,-0.00010644,0.00016230,0.000
 85194,-0.00008161,0.00019827,0.00014347,-0.00022190,0.00012892,0.00036
 337,0.00001759,0.00005375,-0.00000676,-0.00000395,-0.00001715,0.000000
 66,-0.00004341,0.00005795,-0.00001897,0.00003219,-0.00001729,0.0000217
 2,-0.00007501,-0.00013745,-0.00011061,0.00003062,0.00009071,0.00005836
 ,-0.00001573,-0.00001383,-0.00000649,0.00001085,-0.00001177,-0.0000025
 3,-0.00000255,0.00002679,0.00000579,-0.00003036,0.00002708,-0.00002182
 ,0.00001154,-0.00001265,0.00000037,0.00000903,0.00000815,0.00005377,0.
 00001337,-0.00001597,0.00000712,0.00006883,0.00000920,-0.00003138,0.00
 000407,-0.00000594,0.00000365,-0.00007251,-0.00001841,0.00001720,0.000
 01672,-0.00000806,-0.00001077,-0.00005543,0.00000915,-0.00003385,0.000
 04307,-0.00002321,0.00001376,-0.00000312,0.00000591,-0.00000145,-0.000
 00016,0.00000039,-0.00000120,-0.00000537,0.00000179,0.00000338,0.00000
 116,-0.00004552,0.00007992,0.00000177,0.00000414,-0.00000999,0.0000075
 1,0.00001017,-0.00000248,0.13987693,-0.00089515,0.00025420,0.00178031,
 0.00017731,-0.00018324,-0.00022265,0.00104914,0.00000707,-0.00013367,0
 .00124243,-0.00125842,-0.00020605,-0.00113096,0.00058598,0.00054083,0.
 00056497,0.00001328,-0.00055091,-0.00068228,0.00185823,-0.00033035,-0.
 00211776,-0.00092311,-0.00061620,-0.00581370,-0.00606333,0.04317533,0.
 00025048,-0.00134272,0.00050523,-0.00020142,-0.00028333,-0.00000034,0.
 00167792,-0.01070731,0.00339945,-0.00000569,-0.00000738,0.00001729,0.0
 0025554,0.00121537,-0.00231554,-0.00001726,0.00006009,0.00013085,-0.00
 124191,-0.00012165,0.00056058,0.00008305,0.00008666,-0.00001510,0.0032
 0062,0.00510456,-0.00227509,-0.00013786,0.00003850,0.00106377,-0.00070
 615,-0.00019035,-0.00067080,-0.00018793,0.00004083,-0.00013119,0.00017
 593,-0.00013685,-0.00038711,-0.00011816,-0.00005195,0.00008876,-0.0000
 2751,0.00000679,0.00001171,0.00015069,0.00003540,-0.00009301,-0.000012
 15,0.00001974,-0.00000533,-0.00025138,-0.00011759,-0.00007633,0.000160
 82,-0.00000388,-0.00000175,0.00002776,0.00005617,0.00002381,0.00000786
 ,-0.00004619,0.00003019,0.00001021,-0.00003914,-0.00002355,-0.00001970
 ,0.00005659,0.00003421,-0.00000249,-0.00000582,0.00000154,0.00001806,-
 0.00000896,-0.00006758,-0.00000953,0.00000354,-0.00000295,-0.00003528,
 -0.00006085,-0.00001584,0.00001018,0.00000144,0.00000285,0.00006906,0.
 00007476,0.00000019,-0.00000854,-0.00002284,0.00000538,0.00002350,0.00
 002024,0.00002805,-0.00002423,0.00000555,-0.00001107,-0.00000102,-0.00
 000111,0.00000168,0.00000295,0.00000002,0.00000639,0.00000095,-0.00000
 201,-0.00000274,0.00009649,-0.00005138,0.00006358,0.00001718,-0.000014
 59,-0.00000051,0.00000420,0.00001894,0.00002733,-0.02753079,0.17652554
 ,0.00106712,-0.00046223,-0.00065261,-0.00027932,0.00007986,0.00026173,
 0.00022993,0.00135202,-0.00104555,-0.00070392,0.00021421,0.00020308,0.
 00112877,-0.00108055,-0.00007697,-0.00059393,-0.00008260,0.00075161,0.
 00573017,-0.00100276,-0.00208441,-0.00017037,0.00218015,0.00048998,-0.
 00427650,0.03129677,-0.02331825,0.00004202,0.00068458,-0.00023190,0.00
 051184,0.00038087,-0.00026724,-0.00195527,0.00434439,-0.00079226,0.000
 01532,0.00001364,-0.00007473,-0.00092246,-0.00028253,0.00093133,0.0000
 8048,-0.00006832,-0.00007318,0.00092156,-0.00015291,-0.00030919,-0.000
 14238,-0.00004940,-0.00004671,0.00115866,-0.00316277,-0.00024392,-0.00
 050089,-0.00018759,-0.00141945,0.00086309,0.00023112,0.00075124,0.0001
 5133,-0.00003845,0.00020797,-0.00018334,0.00005698,0.00038491,0.000208
 53,0.00005854,-0.00015747,0.00001935,-0.00002842,-0.00001913,-0.000229
 35,0.00008756,0.00019812,0.00008149,-0.00004964,0.00004893,0.00018850,
 -0.00009503,-0.00026668,-0.00019046,0.00010624,0.00022494,-0.00001138,
 -0.00011047,-0.00005831,-0.00004459,0.00011046,-0.00004954,-0.00004581
 ,0.00011646,0.00002516,0.00007277,-0.00010691,-0.00007504,0.00000529,0
 .00000442,0.00000131,-0.00002632,0.00003707,0.00014507,0.00003210,-0.0
 0003054,0.00001278,0.00005179,0.00010543,0.00003569,-0.00001644,-0.000
 01148,-0.00000899,-0.00013800,-0.00012685,-0.00000017,0.00003157,0.000
 04004,-0.00000957,-0.00007316,-0.00001896,-0.00005591,0.00008690,-0.00
 003452,0.00003955,0.00000189,0.00000890,-0.00000725,-0.00000644,-0.000
 00058,-0.00001295,-0.00000730,0.00000521,0.00000650,0.00018786,-0.0000
 5911,-0.00011055,0.00001877,-0.00004628,0.00004985,-0.00003270,-0.0000
 0924,-0.00002092,0.15193929,-0.25310817,0.57742648,-0.00235067,0.00049
 603,0.00080599,0.00017556,-0.00025048,-0.00019750,0.00231655,0.0013952
 7,0.00062499,-0.00117607,0.00073713,-0.00089345,0.00012679,0.00048786,
 -0.00002323,0.00019239,0.00001969,0.00001473,-0.00458473,0.00213123,-0
 .00124310,-0.00033989,-0.00120507,0.00271796,-0.03859898,-0.02668592,-
 0.02094971,0.00007384,-0.00186771,-0.00012380,-0.00023310,-0.00031559,
 0.00043639,0.00304988,-0.00745200,0.00042512,0.00000347,0.00000229,-0.
 00001414,0.00159534,0.00169516,0.00113366,-0.00011726,-0.00006714,-0.0
 0015283,-0.00108220,-0.00034762,0.00072465,0.00006338,0.00001979,-0.00
 017264,-0.00114199,0.00249396,-0.00092276,0.00109686,-0.00010096,-0.00
 019666,0.00042007,0.00005219,0.00032349,-0.00014105,0.00014167,-0.0001
 3281,-0.00004566,-0.00001901,0.00034465,0.00013604,0.00007103,-0.00010
 245,0.00001048,-0.00004588,-0.00001250,-0.00014412,0.00012908,0.000084
 68,0.00009091,-0.00005946,0.00005863,-0.00004737,-0.00026068,-0.000194
 08,-0.00001308,0.00018669,0.00012488,-0.00002004,-0.00006981,-0.000036
 13,-0.00003540,0.00006204,-0.00003816,-0.00003970,0.00009828,0.0000180
 1,0.00001893,-0.00003508,-0.00007045,0.00002239,-0.00002229,-0.0000012
 1,0.00000856,0.00004090,0.00016988,0.00003905,-0.00003938,0.00001585,0
 .00011717,0.00009148,-0.00000802,-0.00000155,-0.00001755,-0.00000199,-
 0.00017590,-0.00010549,0.00001026,0.00004273,0.00001426,-0.00001362,-0
 .00012293,-0.00000548,-0.00010059,0.00011186,-0.00005038,0.00004700,-0
 .00000279,0.00001173,-0.00000585,-0.00000500,0.00000144,-0.00000840,-0
 .00001060,0.00000419,0.00000769,-0.00008639,-0.00010351,-0.00003957,-0
 .00000792,-0.00000570,-0.00000721,-0.00000103,-0.00001011,0.00000339,-
 0.01927349,0.01831467,-0.08257548,0.51376799,-0.00038081,-0.00106355,-
 0.00084760,0.00012508,-0.00008507,-0.00012353,0.00111258,-0.00233069,0
 .00003021,0.00002523,0.00031965,-0.00032463,-0.00181685,0.00057692,0.0
 0041369,0.00079724,0.00006946,-0.00068780,0.00050866,0.00037070,-0.000
 70658,0.00076795,0.00072335,-0.00002170,-0.03954411,0.00902169,-0.0095
 6154,-0.00117298,0.00013463,0.00028983,-0.00001237,-0.00014196,-0.0000
 6201,0.00082134,-0.00966620,0.00034171,-0.00000155,-0.00000031,-0.0000
 0012,-0.00022816,0.00073884,0.00094197,-0.00004496,0.00000605,0.000047
 60,-0.00133353,-0.00032402,0.00078830,0.00004047,0.00010783,-0.0000658
 0,-0.00069263,0.00255568,-0.00048335,0.00097206,-0.00024216,0.00051255
 ,-0.00000073,-0.00000074,0.00003299,-0.00015070,0.00012840,-0.00010449
 ,-0.00004330,-0.00002605,0.00004405,-0.00007296,-0.00001292,0.00009017
 ,-0.00003451,-0.00000369,0.00000438,0.00005677,0.00012234,-0.00010269,
 0.00001866,0.00000255,0.00001314,-0.00024844,-0.00024471,-0.00024499,0
 .00013951,0.00005806,0.00009887,0.00003856,0.00000794,-0.00002055,0.00
 002008,-0.00004649,0.00005180,0.00000649,0.00001322,-0.00002800,-0.000
 01944,0.00004243,-0.00000470,0.00000014,-0.00000338,0.00000389,0.00000
 246,0.00002369,0.00001285,0.00000163,-0.00001160,0.00001214,0.00000887
 ,-0.00005694,-0.00003317,0.00000646,0.00000098,0.00000440,0.00000810,0
 .00004641,-0.00000221,0.00000087,-0.00001848,0.00000891,-0.00000463,0.
 00001720,0.00001061,0.00001043,-0.00001335,0.00000111,-0.00000117,0.00
 000562,-0.00000120,0.00000123,-0.00000160,0.00000222,-0.00000650,0.000
 00283,-0.00000092,0.00013794,-0.00007373,0.00021727,0.00002845,-0.0000
 0805,-0.00000437,0.00001333,0.00003231,0.00002438,0.02914263,0.0371747
 9,0.00973195,0.13413081,0.09889530,0.00079404,-0.00060494,0.00003607,-
 0.00001579,0.00001077,0.00001576,0.00001581,0.00031365,0.00017781,-0.0
 0069418,0.00072383,-0.00066232,0.00037394,-0.00026961,-0.00031332,-0.0
 0022883,-0.00004738,0.00034776,0.00194638,0.00133748,-0.00013408,-0.00
 049287,-0.00021698,-0.00009658,-0.00606029,0.00282344,0.01577418,0.000
 40871,0.00007298,-0.00005879,0.00002810,0.00000229,-0.00017575,0.00027
 746,-0.00019784,0.00082997,0.00000285,0.00000240,-0.00001452,-0.000870
 99,0.00070075,-0.00059362,0.00004392,-0.00003777,0.00002854,0.00001303
 ,-0.00031766,0.00011498,-0.00008206,0.00002174,-0.00002578,-0.00000013
 ,-0.00085396,0.00148500,0.00013459,-0.00037856,-0.00120114,0.00058837,
 0.00017285,0.00065356,0.00005014,0.00001116,0.00011143,-0.00006022,0.0
 0006520,0.00041510,0.00010773,0.00002577,-0.00005426,0.00001407,-0.000
 01240,-0.00001030,-0.00011164,0.00003774,0.00005535,0.00005144,-0.0000
 2800,0.00002964,0.00012167,-0.00004632,-0.00013490,-0.00009464,0.00006
 083,0.00014133,0.00001000,-0.00009821,-0.00006309,-0.00004253,0.000059
 80,0.00000888,-0.00003650,0.00008471,0.00000046,0.00006940,-0.00007279
 ,-0.00006928,0.00000035,0.00000465,0.00000187,-0.00001607,0.00003545,0
 .00011245,0.00001633,-0.00001345,0.00000823,0.00000706,0.00005153,0.00
 002977,-0.00000831,-0.00000424,-0.00000598,-0.00007592,-0.00006983,-0.
 00001193,0.00001852,0.00002742,0.00000368,-0.00003727,-0.00001403,-0.0
 0003578,0.00005068,-0.00001928,0.00002192,0.00000213,0.00000236,-0.000
 00369,-0.00000251,0.00000086,-0.00000228,-0.00000353,0.00000498,0.0000
 0265,-0.00001964,-0.00001812,0.00000146,-0.00000334,-0.00000282,0.0000
 0544,-0.00001012,-0.00000219,-0.00000746,-0.09115213,0.00337862,-0.080
 87843,0.30254383,0.03435466,0.29277439,0.00241001,-0.00000581,-0.00267
 915,-0.00042753,0.00033970,0.00047174,-0.00343276,0.00044572,0.0006307
 8,0.00093538,0.00165942,0.00195662,0.00030214,-0.00042980,-0.00017215,
 -0.00041961,-0.00015399,0.00013554,0.01313637,-0.00698457,-0.00228504,
 0.00325288,0.00625346,-0.00192024,-0.13222743,-0.01563017,0.03318659,-
 0.00137317,0.00361447,-0.00042143,0.00100449,0.00096417,-0.00043066,-0
 .03087564,-0.02427552,0.01576279,-0.00000336,-0.00000283,0.00003031,-0
 .00417236,0.00329720,0.00389080,0.00006838,-0.00001121,-0.00002257,0.0
 0077242,-0.00136693,-0.00027455,-0.00057269,0.00020504,0.00018858,0.00
 473213,-0.00571270,-0.00213313,-0.00355219,0.00168342,-0.00088474,-0.0
 0059540,0.00003923,-0.00039681,0.00018701,-0.00028029,0.00010883,0.000
 45595,-0.00008528,-0.00016688,-0.00012085,-0.00015972,0.00008292,-0.00
 000690,0.00006240,0.00001651,0.00020715,-0.00019300,-0.00005021,-0.000
 11570,0.00007615,-0.00006978,0.00008653,0.00036407,0.00032145,-0.00000
 200,-0.00027054,-0.00020771,0.00001013,0.00009441,0.00006395,0.0000044
 5,-0.00002327,0.00001091,0.00003811,-0.00013038,-0.00000384,0.00001996
 ,0.00000638,0.00008931,-0.00002800,0.00002710,0.00000019,-0.00000457,-
 0.00006339,-0.00023119,-0.00004313,0.00005031,-0.00003101,-0.00017800,
 -0.00006969,0.00004068,-0.00000105,0.00001785,-0.00000232,0.00022299,0
 .00010318,-0.00000852,-0.00004722,-0.00000174,0.00000661,0.00014858,-0
 .00000027,0.00011632,-0.00013316,0.00006849,-0.00005090,0.00000357,-0.
 00001728,0.00000664,0.00000523,0.00000015,0.00000934,0.00001681,-0.000
 00821,-0.00000757,0.00004101,0.00013692,0.00001788,-0.00000870,0.00001
 155,0.00000040,0.00000052,-0.00000963,0.00000162,-0.13239623,0.0135869
 4,-0.07170061,-0.45368132,-0.12313370,-0.20757103,0.73635674,0.0008748
 8,0.00055280,-0.00226263,-0.00055794,0.00049869,0.00048950,-0.00106973
 ,-0.00187548,-0.00172330,0.00168240,-0.00188491,-0.00090504,0.00231548
 ,-0.00137378,-0.00089676,-0.00127562,-0.00004934,0.00115378,-0.0263323
 0,-0.02167120,0.01790146,0.00579916,-0.00471773,-0.00064801,-0.0172280
 9,-0.14197891,0.01510327,0.00133179,0.00105580,-0.00105987,-0.00101528
 ,-0.00005018,0.00075551,-0.00569255,0.02696867,-0.00477389,0.00000521,
 0.00000507,-0.00000989,0.00293095,-0.00161587,0.00180435,-0.00007242,-
 0.00000532,-0.00013109,0.00312506,0.00091562,-0.00164242,-0.00000346,-
 0.00026128,-0.00001050,0.00056681,-0.00912070,0.00102884,-0.00095451,0
 .00036335,-0.00231704,0.00056382,0.00030388,0.00070823,0.00031640,-0.0
 0021457,0.00026319,-0.00011309,0.00016064,0.00033224,0.00018014,0.0000
 2007,-0.00018173,0.00005441,-0.00000294,-0.00001785,-0.00017808,-0.000
 09802,0.00024024,-0.00000427,-0.00002175,-0.00000276,0.00046496,0.0003
 0796,0.00025809,-0.00030651,-0.00004896,-0.00008440,-0.00003050,-0.000
 07570,-0.00000733,-0.00005957,0.00012512,-0.00007988,-0.00003778,0.000
 04072,0.00004307,0.00008408,-0.00012404,-0.00003402,-0.00000207,0.0000
 1084,-0.00000431,-0.00002029,-0.00000546,0.00004560,0.00000895,0.00000
 358,-0.00001143,-0.00001921,0.00012293,0.00008300,-0.00001673,-0.00000
 472,-0.00001272,-0.00004856,-0.00011632,-0.00001193,0.00001007,0.00004
 955,-0.00000676,-0.00000865,-0.00003736,-0.00003333,0.00001819,0.00000
 654,0.00001605,0.00000415,-0.00000386,-0.00000194,-0.00000562,0.000000
 93,-0.00000992,0.00000605,-0.00000071,0.00000288,-0.00020249,0.0001910
 1,-0.00019788,-0.00003580,0.00003033,0.00001303,-0.00003359,-0.0000438
 0,-0.00004290,0.01275604,-0.20162024,0.20915943,-0.12368657,-0.1368231
 8,-0.04106152,0.14591221,0.49211225,-0.00181068,-0.00037394,-0.0037074
 1,0.00024076,-0.00002201,-0.00020671,0.00035317,-0.00370888,0.00123572
 ,0.00309466,-0.00401176,-0.00116726,-0.00163078,0.00155746,0.00030269,
 0.00082772,0.00005724,-0.00118027,-0.00445964,0.00742887,-0.00332767,0
 .00160925,0.00021845,0.00626651,0.03393431,0.01063064,-0.08741362,-0.0
 0078599,-0.00144466,-0.00102008,0.00006216,-0.00016366,0.00106095,0.01
 641823,0.00207714,-0.00233099,-0.00000566,-0.00000459,0.00002549,0.004
 59756,-0.00069850,0.00547663,-0.00028863,0.00001034,-0.00040455,-0.000
 69400,0.00095897,0.00022575,0.00017552,-0.00002764,-0.00012314,-0.0003
 7673,0.00580898,-0.00905364,-0.00079914,0.00136440,0.00291026,-0.00185
 830,-0.00024486,-0.00155277,-0.00034877,0.00006688,-0.00050687,0.00014
 726,-0.00008714,-0.00093049,-0.00032576,-0.00005355,0.00020824,-0.0000
 3690,0.00004518,0.00003181,0.00032397,-0.00017334,-0.00027961,-0.00013
 223,0.00007689,-0.00007962,-0.00026241,0.00014944,0.00034352,0.0002669
 7,-0.00017459,-0.00032612,-0.00001526,0.00023406,0.00014618,0.00012414
 ,-0.00020221,0.00002979,0.00009983,-0.00021953,-0.00002721,-0.00018596
 ,0.00020439,0.00017261,-0.00000822,-0.00000241,0.00000024,0.00003887,-
 0.00009306,-0.00030364,-0.00004689,0.00004070,-0.00002095,-0.00004441,
 -0.00017395,-0.00009581,0.00002217,0.00001790,0.00001943,0.00022242,0.
 00021344,0.00002883,-0.00005677,-0.00007884,-0.00000343,0.00011812,0.0
 0004536,0.00012372,-0.00014848,0.00005805,-0.00006728,-0.00000498,-0.0
 0001002,0.00001013,0.00001153,-0.00000037,0.00001434,0.00000816,-0.000
 01252,-0.00000815,-0.00021595,0.00011171,0.00021078,-0.00001578,0.0000
 7504,-0.00006066,0.00006535,0.00001694,0.00001494,-0.08038116,0.206385
 93,-0.46982896,-0.20239740,-0.03465370,-0.22863438,0.23457473,-0.19121
 868,0.79380272\\-0.00000401,0.00000672,-0.00000356,0.00000442,-0.00000
 145,-0.00000007,-0.00000530,0.00000646,-0.00000543,-0.00000027,0.00000
 027,0.00000138,0.00000258,0.00000304,-0.00001247,-0.00000666,-0.000003
 67,0.00000784,-0.00000300,-0.00002113,0.00000410,0.00000360,0.00001259
 ,-0.00000451,0.00000676,0.00000515,0.00000346,-0.00000260,0.00000557,0
 .00000034,-0.00000150,0.00000015,0.00000486,-0.00001105,-0.00001352,0.
 00000030,-0.00000006,-0.00000136,-0.00000081,-0.00000178,0.00000371,-0
 .00000576,-0.00000123,-0.00000765,-0.00000099,0.00000585,0.00000690,0.
 00000793,0.00000139,-0.00000067,-0.00000223,-0.00000203,0.00000307,-0.
 00000074,-0.00000324,-0.00000024,0.00000220,0.00000253,-0.00000162,0.0
 0000327,-0.00000140,0.00000218,-0.00000173,0.00000082,-0.00000207,0.00
 000056,0.00000204,0.00001219,-0.00001232,0.00000484,-0.00000370,0.0000
 0069,0.00000055,-0.00000187,0.00001041,0.00000074,0.00000067,-0.000001
 67,-0.00001828,-0.00001247,0.00000533,0.00000796,0.00000381,-0.0000047
 8,0.00000445,0.00000041,0.00000665,-0.00000616,0.00000111,-0.00000841,
 -0.00000376,0.00000322,-0.00000241,-0.00000421,-0.00000198,0.00000334,
 0.00000337,-0.00000364,-0.00000015,-0.00000173,0.00000754,-0.00000021,
 0.00000104,-0.00000519,0.00000168,0.00000496,-0.00000326,-0.00000231,-
 0.00000197,-0.00000177,-0.00000298,0.00000558,0.00000433,0.00000243,-0
 .00000183,-0.00000061,-0.00000133,0.00000280,-0.00000380,-0.00000112,-
 0.00000022,0.00000491,0.00000169,-0.00000090,-0.00000002,0.00000012,0.
 00000024,-0.00000032,-0.00000112,-0.00000058,-0.00000038,0.00000019,0.
 00001054,-0.00000645,0.00002077,0.00000139,0.00000050,-0.00000192,-0.0
 0000360,0.00000103,-0.00000521,0.00000133,0.00000183,0.00000752,0.0000
 0419,0.00000664,0.00000495,0.00000341,-0.00000516,-0.00001777\\\@


 WHEN ALL ELSE FAILS, LOOK AT THE SCHRODINGER EQUATION.
     -- RUSSELL T. PACK, APRIL 1978
 Job cpu time:       1 days  0 hours 18 minutes 47.6 seconds.
 Elapsed time:       1 days  0 hours 20 minutes 59.7 seconds.
 File lengths (MBytes):  RWF=   9612 Int=      0 D2E=      0 Chk=     68 Scr=      1
 Normal termination of Gaussian 16 at Thu Nov  7 19:59:56 2024.
