
                                 *****************
                                 * O   R   C   A *
                                 *****************

                                            #,                                       
                                            ###                                      
                                            ####                                     
                                            #####                                    
                                            ######                                   
                                           ########,                                 
                                     ,,################,,,,,                         
                               ,,#################################,,                 
                          ,,##########################################,,             
                       ,#########################################, ''#####,          
                    ,#############################################,,   '####,        
                  ,##################################################,,,,####,       
                ,###########''''           ''''###############################       
              ,#####''   ,,,,##########,,,,          '''####'''          '####       
            ,##' ,,,,###########################,,,                        '##       
           ' ,,###''''                  '''############,,,                           
         ,,##''                                '''############,,,,        ,,,,,,###''
      ,#''                                            '''#######################'''  
     '                                                          ''''####''''         
             ,#######,   #######,   ,#######,      ##                                
            ,#'     '#,  ##    ##  ,#'     '#,    #''#        ######   ,####,        
            ##       ##  ##   ,#'  ##            #'  '#       #        #'  '#        
            ##       ##  #######   ##           ,######,      #####,   #    #        
            '#,     ,#'  ##    ##  '#,     ,#' ,#      #,         ##   #,  ,#        
             '#######'   ##     ##  '#######'  #'      '#     #####' # '####'        



                  #######################################################
                  #                        -***-                        #
                  #          Department of theory and spectroscopy      #
                  #    Directorship and core code : Frank Neese         #
                  #        Max Planck Institute fuer Kohlenforschung    #
                  #                Kaiser Wilhelm Platz 1               #
                  #                 D-45470 Muelheim/Ruhr               #
                  #                      Germany                        #
                  #                                                     #
                  #                  All rights reserved                #
                  #                        -***-                        #
                  #######################################################


                         Program Version 5.0.4 -  RELEASE  -


 With contributions from (in alphabetic order):
   Daniel Aravena         : Magnetic Suceptibility
   Michael Atanasov       : Ab Initio Ligand Field Theory (pilot matlab implementation)
   Alexander A. Auer      : GIAO ZORA, VPT2 properties, NMR spectrum
   Ute Becker             : Parallelization
   Giovanni Bistoni       : ED, misc. LED, open-shell LED, HFLD
   Martin Brehm           : Molecular dynamics
   Dmytro Bykov           : SCF Hessian
   Vijay G. Chilkuri      : MRCI spin determinant printing, contributions to CSF-ICE
   Dipayan Datta          : RHF DLPNO-CCSD density
   Achintya Kumar Dutta   : EOM-CC, STEOM-CC
   Dmitry Ganyushin       : Spin-Orbit,Spin-Spin,Magnetic field MRCI
   Miquel Garcia          : C-PCM and meta-GGA Hessian, CC/C-PCM, Gaussian charge scheme
   Yang Guo               : DLPNO-NEVPT2, F12-NEVPT2, CIM, IAO-localization
   Andreas Hansen         : Spin unrestricted coupled pair/coupled cluster methods
   Benjamin Helmich-Paris : MC-RPA, TRAH-SCF, COSX integrals
   Lee Huntington         : MR-EOM, pCC
   Robert Izsak           : Overlap fitted RIJCOSX, COSX-SCS-MP3, EOM
   Marcus Kettner         : VPT2
   Christian Kollmar      : KDIIS, OOCD, Brueckner-CCSD(T), CCSD density, CASPT2, CASPT2-K
   Simone Kossmann        : Meta GGA functionals, TD-DFT gradient, OOMP2, MP2 Hessian
   Martin Krupicka        : Initial AUTO-CI
   Lucas Lang             : DCDCAS
   Marvin Lechner         : AUTO-CI (C++ implementation), FIC-MRCC
   Dagmar Lenk            : GEPOL surface, SMD
   Dimitrios Liakos       : Extrapolation schemes; Compound Job, initial MDCI parallelization
   Dimitrios Manganas     : Further ROCIS development; embedding schemes
   Dimitrios Pantazis     : SARC Basis sets
   Anastasios Papadopoulos: AUTO-CI, single reference methods and gradients
   Taras Petrenko         : DFT Hessian,TD-DFT gradient, ASA, ECA, R-Raman, ABS, FL, XAS/XES, NRVS
   Peter Pinski           : DLPNO-MP2, DLPNO-MP2 Gradient
   Christoph Reimann      : Effective Core Potentials
   Marius Retegan         : Local ZFS, SOC
   Christoph Riplinger    : Optimizer, TS searches, QM/MM, DLPNO-CCSD(T), (RO)-DLPNO pert. Triples
   Tobias Risthaus        : Range-separated hybrids, TD-DFT gradient, RPA, STAB
   Michael Roemelt        : Original ROCIS implementation
   Masaaki Saitow         : Open-shell DLPNO-CCSD energy and density
   Barbara Sandhoefer     : DKH picture change effects
   Avijit Sen             : IP-ROCIS
   Kantharuban Sivalingam : CASSCF convergence, NEVPT2, FIC-MRCI
   Bernardo de Souza      : ESD, SOC TD-DFT
   Georgi Stoychev        : AutoAux, RI-MP2 NMR, DLPNO-MP2 response
   Willem Van den Heuvel  : Paramagnetic NMR
   Boris Wezisla          : Elementary symmetry handling
   Frank Wennmohs         : Technical directorship


 We gratefully acknowledge several colleagues who have allowed us to
 interface, adapt or use parts of their codes:
   Stefan Grimme, W. Hujo, H. Kruse, P. Pracht,  : VdW corrections, initial TS optimization,
                  C. Bannwarth, S. Ehlert          DFT functionals, gCP, sTDA/sTD-DF
   Ed Valeev, F. Pavosevic, A. Kumar             : LibInt (2-el integral package), F12 methods
   Garnet Chan, S. Sharma, J. Yang, R. Olivares  : DMRG
   Ulf Ekstrom                                   : XCFun DFT Library
   Mihaly Kallay                                 : mrcc  (arbitrary order and MRCC methods)
   Jiri Pittner, Ondrej Demel                    : Mk-CCSD
   Frank Weinhold                                : gennbo (NPA and NBO analysis)
   Christopher J. Cramer and Donald G. Truhlar   : smd solvation model
   Lars Goerigk                                  : TD-DFT with DH, B97 family of functionals
   V. Asgeirsson, H. Jonsson                     : NEB implementation
   FAccTs GmbH                                   : IRC, NEB, NEB-TS, DLPNO-Multilevel, CI-OPT
                                                   MM, QMMM, 2- and 3-layer-ONIOM, Crystal-QMMM,
                                                   LR-CPCM, SF, NACMEs, symmetry and pop. for TD-DFT,
                                                   nearIR, NL-DFT gradient (VV10), updates on ESD,
                                                   ML-optimized integration grids
   S Lehtola, MJT Oliveira, MAL Marques          : LibXC Library
   Liviu Ungur et al                             : ANISO software


 Your calculation uses the libint2 library for the computation of 2-el integrals
 For citations please refer to: http://libint.valeyev.net

 Your ORCA version has been built with support for libXC version: 5.1.0
 For citations please refer to: https://tddft.org/programs/libxc/

 This ORCA versions uses:
   CBLAS   interface :  Fast vector & matrix operations
   LAPACKE interface :  Fast linear algebra routines
   SCALAPACK package :  Parallel linear algebra routines
   Shared memory     :  Shared parallel matrices
   BLAS/LAPACK       :  OpenBLAS 0.3.15  USE64BITINT DYNAMIC_ARCH NO_AFFINITY Zen SINGLE_THREADED
        Core in use  :  Zen
   Copyright (c) 2011-2014, The OpenBLAS Project


Your calculation utilizes the DFT-NL dispersion correction.
Cite in your paper:
Vydrov, O. A.; Van Voorhis, T. J. Chem. Phys. 2010, 133, 244103
Hujo, W.; Grimme, S. J. Chem. Theory Comput. 2011, 7, 3866 
   

================================================================================

----- Orbital basis set information -----
Your calculation utilizes the basis: 6-311G(d)
   H, Li - Ne  : R. Krishnan, J. S. Binkley, R. Seeger and J. A. Pople, J. Chem. Phys. 72, 650 (1980).
   Na - Ar     : A. D. McLean and G. S. Chandler J. Chem. Phys. 72, 5639, (1980).
   K  - Ca     : J.-P. Blaudeau, M. P. McGrath, L. A. Curtiss and L. Radom, J. Chem. Phys. 107, 5016 (1997).
   Ga - Kr     : L. A. Curtiss, M. P. McGrath, J.-P. Blandeau, N. E. Davis, R. C. Binning and L. Radom, J. Chem. Phys. 103, 6104 (1995).
   Pol./Diff.
   H, Li - Cl  : T. Clark, J. Chandrasekhar and P. v. R. Schleyer, J. Comp. Chem. 4, 294 (1983).
   H - Ne      : M. J. Frisch, J. A. Pople and J. S. Binkley, J. Chem. Phys. 80, 3265 (1984).

----- AuxJ basis set information -----
Your calculation utilizes the auxiliary basis: def2/J
   F. Weigend, Phys. Chem. Chem. Phys. 8, 1057 (2006).

================================================================================
                                        WARNINGS
                       Please study these warnings very carefully!
================================================================================

Using LibXC functional ID 531 : wB97M-V exchange-correlation functional
[ 1]  N. Mardirossian and M. Head-Gordon, J. Chem. Phys. 144, 214110 (2016)
Using LibXC functional ID 531 : wB97M-V exchange-correlation functional
[ 1]  N. Mardirossian and M. Head-Gordon, J. Chem. Phys. 144, 214110 (2016)

WARNING: B97M-V or wB97M-V functional requested.
  ===> : libXC variant has now been activated.
         Any manually given DFX/HFX/RangeSep scaling parameters are IGNORED!

Your calculation utilizes LibXC
 by S Lehtola, C Steigemann, MJT Oliveira & MAL Marques
Please cite in your paper:
 S Lehtola, C Steigemann, MJT Oliveira & MAL Marques, SoftwareX, 7, (2018), 1.
   


WARNING: your system is open-shell and RHF/RKS was chosen
  ===> : WILL SWITCH to UHF/UKS


WARNING: Geometry Optimization
  ===> : Switching off AutoStart
         For restart on a previous wavefunction, please use MOREAD

WARNING: Analytic gradients for DFT-NL dispersion can only be done using the self-consistent method,
  ===>   Switching to SCNL

WARNING: Self-consistent DFT-NL dispersion not compatible with AutoTRAH.
  ===>   Switching AutoTRAH off


INFO   : the flag for use of the SHARK integral package has been found!

================================================================================
                                       INPUT FILE
================================================================================
NAME = CURCUMIN-OPT-FREQ-TS-M06-2X-6-311G-D-298.inp
|  1> # avogadro generated ORCA input file
|  2> # Basic Mode
|  3> #
|  4> ! OptTS NumFreq wb97M-V 6-311G(d) CPCM RIJDX
|  5> %maxcore 2000
|  6> %cpcm
|  7> epsilon 7 # Dielectric constant
|  8> refrac 1.85341 # Refractive index
|  9> end
| 10> 
| 11> * xyz 0 2
| 12>  C                  2.23752000    1.13249000    0.67009000
| 13>  H                  1.85624300    2.12172600    0.43825300
| 14>  C                  1.49955700    0.32512200    1.45908000
| 15>  H                  1.84273800   -0.65772000    1.76457500
| 16>  C                  0.18344800    0.67116400    2.01829200
| 17>  O                 -0.39437900   -0.12800800    2.74494800
| 18>  C                  3.54889500    0.87608500    0.09111800
| 19>  C                  4.32059500    1.97652400   -0.29919700
| 20>  C                  4.17907400   -0.39342100   -0.02518000
| 21>  C                  5.60371700    1.84008400   -0.81497500
| 22>  H                  3.90012200    2.96990500   -0.18928400
| 23>  C                  5.43700100   -0.56770000   -0.62971700
| 24>  H                  4.72060900   -0.50594200    1.82217600
| 25>  C                  6.16599600    0.57700600   -0.99575800
| 26>  H                  6.16448600    2.72182400   -1.11123100
| 27>  O                  7.38208700    0.37950400   -1.55922000
| 28>  H                  7.77937300    1.22567400   -1.81383500
| 29>  O                  5.86532500   -1.82295400   -0.90651300
| 30>  C                  7.00997700   -2.30547900   -0.16436800
| 31>  H                  6.79896200   -2.28574000    0.90702600
| 32>  H                  7.15743300   -3.33300100   -0.49083600
| 33>  H                  7.89702900   -1.71355400   -0.38921900
| 34>  C                 -3.06484700    0.79155900    0.79392900
| 35>  H                 -2.72178600    0.65356100    1.81511400
| 36>  C                 -2.30153800    1.51514800   -0.05507900
| 37>  H                 -2.60169300    1.66762600   -1.08779300
| 38>  C                 -1.02530800    2.14511300    0.28405300
| 39>  O                 -0.40329500    2.77906700   -0.56308800
| 40>  C                 -4.33180100    0.13733200    0.49697300
| 41>  C                 -4.95139900   -0.61989700    1.50445800
| 42>  C                 -4.97642000    0.22624200   -0.75285200
| 43>  C                 -6.15580400   -1.27261900    1.27379700
| 44>  H                 -4.47715900   -0.70612200    2.47655100
| 45>  C                 -6.18045400   -0.41347200   -0.99423600
| 46>  H                 -4.54346700    0.79882500   -1.56552500
| 47>  C                 -6.77641800   -1.18489400    0.02761500
| 48>  H                 -6.61522200   -1.86560300    2.06006300
| 49>  O                 -7.94053300   -1.82289400   -0.26200200
| 50>  H                 -8.24633700   -2.32531600    0.50738600
| 51>  O                 -6.74011700   -0.34937700   -2.24427700
| 52>  C                 -7.93417100    0.44346100   -2.34721900
| 53>  H                 -7.72079500    1.48788900   -2.09802300
| 54>  H                 -8.25412600    0.37775900   -3.38665300
| 55>  H                 -8.72457300    0.06021600   -1.69897900
| 56>  C                 -0.45920600    2.02729600    1.70807500
| 57>  H                 -1.24819300    2.18075800    2.44441100
| 58>  H                  0.27447500    2.82590500    1.82450000
| 59>  O                  3.61350500   -2.48653900    0.88053200
| 60>  O                  2.50052900   -1.76238500   -0.83127600
| 61>  N                  3.36091800   -1.65040700    0.02930100
| 62> *
| 63> 
| 64> 
| 65> 
| 66>                          ****END OF INPUT****
================================================================================

                       *****************************
                       * Geometry Optimization Run *
                       *****************************

Geometry optimization settings:
Update method            Update   .... Bofill
Choice of coordinates    CoordSys .... Z-matrix Internals
Initial Hessian          InHess   .... Almoef's Model

Convergence Tolerances:
Energy Change            TolE     ....  5.0000e-06 Eh
Max. Gradient            TolMAXG  ....  3.0000e-04 Eh/bohr
RMS Gradient             TolRMSG  ....  1.0000e-04 Eh/bohr
Max. Displacement        TolMAXD  ....  4.0000e-03 bohr
RMS Displacement         TolRMSD  ....  2.0000e-03 bohr
Strict Convergence                ....  False
------------------------------------------------------------------------------
                        ORCA OPTIMIZATION COORDINATE SETUP
------------------------------------------------------------------------------

The optimization will be done in new redundant internal coordinates
Making redundant internal coordinates   ...  (new redundants) done
Following TS mode number                ...     0
Evaluating the initial hessian          ...  (Almloef) done
Evaluating the coordinates              ...  done
Calculating the B-matrix                .... done
Calculating the G-matrix                .... done
Diagonalizing the G-matrix              .... done
Small eigenvalue found = 1.045e-03
Small eigenvalue found = 1.291e-03
Small eigenvalue found = 2.500e-03
Small eigenvalue found = 7.474e-03
Small eigenvalue found = 8.727e-03
Small eigenvalue found = 1.316e-02
Small eigenvalue found = 1.782e-02
Small eigenvalue found = 2.515e-02
Small eigenvalue found = 2.874e-02
The first mode is                       ....  126
The number of degrees of freedom        ....  144

    -----------------------------------------------------------------
                    Redundant Internal Coordinates


    -----------------------------------------------------------------
         Definition                    Initial Value    Approx d2E/dq
    -----------------------------------------------------------------
      1. B(H   1,C   0)                  1.0852         0.366475   
      2. B(C   2,C   0)                  1.3487         0.727214   
      3. B(H   3,C   2)                  1.0849         0.366866   
      4. B(C   4,C   2)                  1.4713         0.463547   
      5. B(O   5,C   4)                  1.2250         1.025997   
      6. B(C   6,C   0)                  1.4562         0.489830   
      7. B(C   7,C   6)                  1.3996         0.603183   
      8. B(C   8,C   6)                  1.4221         0.555348   
      9. B(C   9,C   7)                  1.3896         0.625668   
     10. B(H  10,C   7)                  1.0843         0.367734   
     11. B(C  11,C   8)                  1.4065         0.588068   
     12. B(H  12,C   8)                  1.9284         0.016552   
     13. B(H  12,C   6)                  2.5059         0.001984   
     14. B(C  13,C  11)                  1.4056         0.589951   
     15. B(C  13,C   9)                  1.3943         0.614896   
     16. B(H  14,C   9)                  1.0861         0.365246   
     17. B(O  15,C  13)                  1.3548         0.636941   
     18. B(H  16,O  15)                  0.9688         0.503325   
     19. B(O  17,C  11)                  1.3549         0.636625   
     20. B(C  18,O  17)                  1.4470         0.453858   
     21. B(H  19,C  18)                  1.0922         0.357261   
     22. B(H  20,C  18)                  1.0882         0.362522   
     23. B(H  21,C  18)                  1.0899         0.360285   
     24. B(H  23,C  22)                  1.0861         0.365333   
     25. B(C  24,C  22)                  1.3517         0.719246   
     26. B(H  25,C  24)                  1.0862         0.365156   
     27. B(C  26,C  24)                  1.4631         0.477672   
     28. B(O  27,C  26)                  1.2274         1.017034   
     29. B(C  28,C  22)                  1.4565         0.489390   
     30. B(C  29,C  28)                  1.4044         0.592616   
     31. B(C  30,C  28)                  1.4091         0.582506   
     32. B(C  31,C  29)                  1.3892         0.626664   
     33. B(H  32,C  29)                  1.0850         0.366727   
     34. B(C  33,C  30)                  1.3846         0.637246   
     35. B(H  34,C  30)                  1.0843         0.367701   
     36. B(C  35,C  33)                  1.4122         0.575762   
     37. B(C  35,C  31)                  1.3949         0.613585   
     38. B(H  36,C  31)                  1.0867         0.364497   
     39. B(O  37,C  35)                  1.3587         0.627770   
     40. B(H  38,O  37)                  0.9685         0.504057   
     41. B(O  39,C  33)                  1.3711         0.599817   
     42. B(C  40,O  39)                  1.4370         0.470867   
     43. B(H  41,C  40)                  1.0947         0.353883   
     44. B(H  42,C  40)                  1.0895         0.360701   
     45. B(H  43,C  40)                  1.0917         0.357847   
     46. B(C  44,C  26)                  1.5369         0.364168   
     47. B(C  44,C   4)                  1.5324         0.370259   
     48. B(H  45,C  44)                  1.0901         0.360014   
     49. B(H  46,C  44)                  1.0907         0.359180   
     50. B(O  47,H  12)                  2.4567         0.002129   
     51. B(N  49,O  48)                  1.2220         0.928901   
     52. B(N  49,O  47)                  1.2196         0.937169   
     53. B(N  49,C   8)                  1.5008         0.372496   
     54. A(H   1,C   0,C   6)          113.0757         0.340197   
     55. A(C   2,C   0,C   6)          128.3105         0.428169   
     56. A(H   1,C   0,C   2)          118.5824         0.363699   
     57. A(C   0,C   2,H   3)          122.2729         0.363766   
     58. A(C   0,C   2,C   4)          124.8220         0.423961   
     59. A(H   3,C   2,C   4)          112.8924         0.337141   
     60. A(O   5,C   4,C  44)          119.9739         0.430313   
     61. A(C   2,C   4,C  44)          120.4207         0.376503   
     62. A(C   2,C   4,O   5)          119.6027         0.448120   
     63. A(C   0,C   6,C   8)          126.0685         0.408089   
     64. A(C   0,C   6,H  12)          104.0949         0.166091   
     65. A(C   7,C   6,H  12)          111.6210         0.169810   
     66. A(C   8,C   6,H  12)           49.9800         0.168313   
     67. A(C   0,C   6,C   7)          117.9670         0.414113   
     68. A(C   7,C   6,C   8)          115.7702         0.423483   
     69. A(C   9,C   7,H  10)          119.0547         0.354712   
     70. A(C   6,C   7,C   9)          122.3733         0.432632   
     71. A(C   6,C   7,H  10)          118.5714         0.352520   
     72. A(C   6,C   8,N  49)          120.2084         0.386445   
     73. A(C   6,C   8,H  12)           95.6350         0.217199   
     74. A(C  11,C   8,H  12)           98.8222         0.218871   
     75. A(C  11,C   8,N  49)          113.5401         0.390325   
     76. A(H  12,C   8,N  49)           93.9821         0.205155   
     77. A(C   6,C   8,C  11)          122.8267         0.421567   
     78. A(C   7,C   9,C  13)          120.6249         0.434131   
     79. A(C  13,C   9,H  14)          119.4603         0.353263   
     80. A(C   7,C   9,H  14)          119.8849         0.354304   
     81. A(C   8,C  11,C  13)          118.3507         0.426148   
     82. A(C  13,C  11,O  17)          122.5022         0.429433   
     83. A(C   8,C  11,O  17)          119.0351         0.429187   
     84. A(C   8,H  12,O  47)           63.4671         0.120105   
     85. A(C   6,H  12,O  47)           88.2313         0.108244   
     86. A(C   6,H  12,C   8)           34.3850         0.119972   
     87. A(C   9,C  13,C  11)          119.6569         0.429570   
     88. A(C  11,C  13,O  15)          117.0732         0.429471   
     89. A(C   9,C  13,O  15)          123.2274         0.432677   
     90. A(C  13,O  15,H  16)          110.4913         0.369763   
     91. A(C  11,O  17,C  18)          117.0158         0.407174   
     92. A(H  20,C  18,H  21)          109.9171         0.291169   
     93. A(H  19,C  18,H  21)          110.4769         0.290502   
     94. A(O  17,C  18,H  21)          110.9111         0.332924   
     95. A(H  19,C  18,H  20)          109.7282         0.290784   
     96. A(O  17,C  18,H  20)          105.5570         0.333266   
     97. A(O  17,C  18,H  19)          110.1371         0.332459   
     98. A(C  24,C  22,C  28)          127.1295         0.427255   
     99. A(H  23,C  22,C  28)          114.1670         0.339969   
    100. A(H  23,C  22,C  24)          118.7004         0.362822   
    101. A(H  25,C  24,C  26)          113.6392         0.338568   
    102. A(C  22,C  24,C  26)          125.2745         0.425405   
    103. A(C  22,C  24,H  25)          121.0831         0.362792   
    104. A(C  24,C  26,O  27)          120.2963         0.449851   
    105. A(O  27,C  26,C  44)          119.5002         0.428359   
    106. A(C  24,C  26,C  44)          120.2016         0.377378   
    107. A(C  29,C  28,C  30)          117.9365         0.425767   
    108. A(C  22,C  28,C  30)          123.3974         0.411491   
    109. A(C  22,C  28,C  29)          118.6659         0.412749   
    110. A(C  31,C  29,H  32)          119.3639         0.354642   
    111. A(C  28,C  29,H  32)          119.5198         0.351305   
    112. A(C  28,C  29,C  31)          121.1130         0.431383   
    113. A(C  33,C  30,H  34)          117.4207         0.355811   
    114. A(C  28,C  30,H  34)          121.0262         0.350442   
    115. A(C  28,C  30,C  33)          121.5528         0.431348   
    116. A(C  35,C  31,H  36)          119.5122         0.353013   
    117. A(C  29,C  31,H  36)          120.1845         0.354276   
    118. A(C  29,C  31,C  35)          120.2991         0.434089   
    119. A(C  35,C  33,O  39)          120.8610         0.423029   
    120. A(C  30,C  33,O  39)          119.4909         0.430789   
    121. A(C  30,C  33,C  35)          119.5501         0.430447   
    122. A(C  33,C  35,O  37)          117.6339         0.426491   
    123. A(C  31,C  35,O  37)          122.8257         0.431386   
    124. A(C  31,C  35,C  33)          119.5386         0.427535   
    125. A(C  35,O  37,H  38)          110.1698         0.368935   
    126. A(C  33,O  39,C  40)          115.4852         0.405538   
    127. A(H  41,C  40,H  43)          109.9298         0.289760   
    128. A(O  39,C  40,H  43)          111.4310         0.334586   
    129. A(H  41,C  40,H  42)          109.3859         0.290121   
    130. A(O  39,C  40,H  42)          106.2055         0.335028   
    131. A(O  39,C  40,H  41)          110.3718         0.333967   
    132. A(H  42,C  40,H  43)          109.4324         0.290629   
    133. A(H  45,C  44,H  46)          108.1613         0.290712   
    134. A(C  26,C  44,H  46)          106.8902         0.322829   
    135. A(C   4,C  44,H  46)          110.1366         0.323708   
    136. A(C  26,C  44,H  45)          110.3943         0.322952   
    137. A(C   4,C  44,H  45)          106.9407         0.323832   
    138. A(C   4,C  44,C  26)          114.1965         0.361222   
    139. A(H  12,O  47,N  49)           78.9389         0.177183   
    140. A(O  47,N  49,O  48)          125.0636         0.490564   
    141. A(C   8,N  49,O  48)          115.7852         0.417642   
    142. A(C   8,N  49,O  47)          119.1191         0.418302   
    143. D(C   4,C   2,C   0,C   6)    179.1807         0.037496   
    144. D(H   3,C   2,C   0,H   1)   -177.2357         0.037496   
    145. D(H   3,C   2,C   0,C   6)      0.5721         0.037496   
    146. D(C   4,C   2,C   0,H   1)      1.3729         0.037496   
    147. D(C  44,C   4,C   2,H   3)    179.4125         0.014635   
    148. D(O   5,C   4,C   2,C   0)   -178.7121         0.014635   
    149. D(O   5,C   4,C   2,H   3)      0.0109         0.014635   
    150. D(C  44,C   4,C   2,C   0)      0.6895         0.014635   
    151. D(C   8,C   6,C   0,C   2)     16.1986         0.017700   
    152. D(C   7,C   6,C   0,H   1)     19.4063         0.017700   
    153. D(C   7,C   6,C   0,C   2)   -158.5012         0.017700   
    154. D(C   8,C   6,C   0,H   1)   -165.8938         0.017700   
    155. D(H  12,C   6,C   0,C   2)    -34.2061         0.017700   
    156. D(H  12,C   6,C   0,H   1)    143.7014         0.017700   
    157. D(C   9,C   7,C   6,C   0)    177.5402         0.027263   
    158. D(C   9,C   7,C   6,C   8)      2.2962         0.027263   
    159. D(H  10,C   7,C   6,H  12)   -122.6400         0.027263   
    160. D(H  10,C   7,C   6,C   0)     -2.1726         0.027263   
    161. D(C   9,C   7,C   6,H  12)     57.0728         0.027263   
    162. D(H  10,C   7,C   6,C   8)   -177.4166         0.027263   
    163. D(H  12,C   8,C   6,C   0)    -77.3966         0.024607   
    164. D(H  12,C   8,C   6,C   7)     97.4055         0.024607   
    165. D(N  49,C   8,C   6,H  12)     97.9432         0.024607   
    166. D(N  49,C   8,C   6,C   7)   -164.6513         0.024607   
    167. D(C  11,C   8,C   6,C   7)     -6.8976         0.024607   
    168. D(N  49,C   8,C   6,C   0)     20.5466         0.024607   
    169. D(C  11,C   8,C   6,C   0)    178.3003         0.024607   
    170. D(C  11,C   8,C   6,H  12)   -104.3031         0.024607   
    171. D(H  14,C   9,C   7,C   6)    179.6029         0.027118   
    172. D(C  13,C   9,C   7,H  10)   -178.6878         0.027118   
    173. D(C  13,C   9,C   7,C   6)      1.6007         0.027118   
    174. D(H  14,C   9,C   7,H  10)     -0.6856         0.027118   
    175. D(O  17,C  11,C   8,H  12)     88.5699         0.025838   
    176. D(O  17,C  11,C   8,N  49)     -9.7251         0.025838   
    177. D(O  17,C  11,C   8,C   6)   -168.8166         0.025838   
    178. D(C  13,C  11,C   8,H  12)    -95.1801         0.025838   
    179. D(C  13,C  11,C   8,N  49)    166.5250         0.025838   
    180. D(C  13,C  11,C   8,C   6)      7.4334         0.025838   
    181. D(O  47,H  12,C   8,N  49)     11.0442         0.001646   
    182. D(O  47,H  12,C   8,C   6)    131.9536         0.001646   
    183. D(C   6,H  12,C   8,N  49)   -120.9094         0.001646   
    184. D(C   6,H  12,C   8,C  11)    124.5112         0.001646   
    185. D(O  47,H  12,C   6,C   8)    -41.7343         0.001502   
    186. D(O  47,H  12,C   6,C   7)   -147.8668         0.001502   
    187. D(O  47,H  12,C   6,C   0)     83.8439         0.001502   
    188. D(O  47,H  12,C   8,C  11)   -103.5352         0.001646   
    189. D(C   8,H  12,C   6,C   7)   -106.1325         0.001502   
    190. D(C   8,H  12,C   6,C   0)    125.5782         0.001502   
    191. D(O  15,C  13,C  11,O  17)     -4.7692         0.023951   
    192. D(C   9,C  13,C  11,O  17)    172.9378         0.023951   
    193. D(C   9,C  13,C  11,C   8)     -3.1745         0.023951   
    194. D(O  15,C  13,C   9,H  14)     -1.6269         0.026137   
    195. D(O  15,C  13,C   9,C   7)    176.3837         0.026137   
    196. D(O  15,C  13,C  11,C   8)    179.1186         0.023951   
    197. D(C  11,C  13,C   9,H  14)   -179.1859         0.026137   
    198. D(C  11,C  13,C   9,C   7)     -1.1753         0.026137   
    199. D(H  16,O  15,C  13,C   9)     -0.4874         0.029886   
    200. D(H  16,O  15,C  13,C  11)    177.1304         0.029886   
    201. D(C  18,O  17,C  11,C  13)     70.6290         0.029854   
    202. D(C  18,O  17,C  11,C   8)   -113.2843         0.029854   
    203. D(H  21,C  18,O  17,C  11)    -63.9204         0.016224   
    204. D(H  20,C  18,O  17,C  11)    177.0724         0.016224   
    205. D(H  19,C  18,O  17,C  11)     58.6940         0.016224   
    206. D(C  26,C  24,C  22,C  28)   -179.3540         0.036606   
    207. D(C  26,C  24,C  22,H  23)     -0.0347         0.036606   
    208. D(H  25,C  24,C  22,C  28)     -0.0487         0.036606   
    209. D(H  25,C  24,C  22,H  23)    179.2706         0.036606   
    210. D(C  44,C  26,C  24,H  25)    179.8364         0.015535   
    211. D(C  44,C  26,C  24,C  22)     -0.8131         0.015535   
    212. D(O  27,C  26,C  24,H  25)      0.3395         0.015535   
    213. D(O  27,C  26,C  24,C  22)    179.6901         0.015535   
    214. D(C  30,C  28,C  22,C  24)     -2.8156         0.016308   
    215. D(C  30,C  28,C  22,H  23)    177.8388         0.016308   
    216. D(C  29,C  28,C  22,C  24)    177.3813         0.016308   
    217. D(C  29,C  28,C  22,H  23)     -1.9642         0.016308   
    218. D(H  32,C  29,C  28,C  30)    179.9632         0.024179   
    219. D(H  32,C  29,C  28,C  22)     -0.2229         0.024179   
    220. D(C  31,C  29,C  28,C  30)      0.6254         0.024179   
    221. D(C  31,C  29,C  28,C  22)   -179.5607         0.024179   
    222. D(H  34,C  30,C  28,C  29)    179.8998         0.023322   
    223. D(H  34,C  30,C  28,C  22)      0.0954         0.023322   
    224. D(C  33,C  30,C  28,C  29)     -0.2866         0.023322   
    225. D(C  33,C  30,C  28,C  22)    179.9090         0.023322   
    226. D(H  36,C  31,C  29,H  32)     -0.1725         0.027210   
    227. D(H  36,C  31,C  29,C  28)    179.1663         0.027210   
    228. D(C  35,C  31,C  29,H  32)   -179.4231         0.027210   
    229. D(C  35,C  31,C  29,C  28)     -0.0843         0.027210   
    230. D(O  39,C  33,C  30,H  34)      2.8055         0.028198   
    231. D(O  39,C  33,C  30,C  28)   -177.0146         0.028198   
    232. D(C  35,C  33,C  30,H  34)    179.2374         0.028198   
    233. D(C  35,C  33,C  30,C  28)     -0.5827         0.028198   
    234. D(O  37,C  35,C  33,O  39)     -2.0066         0.022760   
    235. D(O  37,C  35,C  33,C  30)   -178.3885         0.022760   
    236. D(C  31,C  35,C  33,O  39)    177.5079         0.022760   
    237. D(C  31,C  35,C  33,C  30)      1.1260         0.022760   
    238. D(O  37,C  35,C  31,H  36)     -0.5668         0.026019   
    239. D(O  37,C  35,C  31,C  29)    178.6889         0.026019   
    240. D(C  33,C  35,C  31,H  36)    179.9451         0.026019   
    241. D(C  33,C  35,C  31,C  29)     -0.7992         0.026019   
    242. D(H  38,O  37,C  35,C  33)    179.3215         0.028967   
    243. D(H  38,O  37,C  35,C  31)     -0.1758         0.028967   
    244. D(C  40,O  39,C  33,C  35)     73.6482         0.026276   
    245. D(C  40,O  39,C  33,C  30)   -109.9677         0.026276   
    246. D(H  43,C  40,O  39,C  33)    -60.0541         0.017478   
    247. D(H  42,C  40,O  39,C  33)   -179.1500         0.017478   
    248. D(H  41,C  40,O  39,C  33)     62.3833         0.017478   
    249. D(H  46,C  44,C  26,O  27)     18.7775         0.009954   
    250. D(H  46,C  44,C  26,C  24)   -160.7234         0.009954   
    251. D(H  45,C  44,C  26,O  27)    136.1914         0.009954   
    252. D(H  45,C  44,C  26,C  24)    -43.3094         0.009954   
    253. D(C   4,C  44,C  26,O  27)   -103.2867         0.009954   
    254. D(C   4,C  44,C  26,C  24)     77.2125         0.009954   
    255. D(H  46,C  44,C   4,O   5)    133.4833         0.010265   
    256. D(H  46,C  44,C   4,C   2)    -45.9160         0.010265   
    257. D(H  45,C  44,C   4,O   5)     16.1780         0.010265   
    258. D(H  45,C  44,C   4,C   2)   -163.2214         0.010265   
    259. D(C  26,C  44,C   4,O   5)   -106.2503         0.010265   
    260. D(C  26,C  44,C   4,C   2)     74.3503         0.010265   
    261. D(N  49,O  47,H  12,C   8)    -13.8635         0.001503   
    262. D(N  49,O  47,H  12,C   6)     10.9836         0.001503   
    263. D(O  48,N  49,C   8,H  12)    158.6795         0.011899   
    264. D(O  48,N  49,C   8,C  11)    -99.8993         0.011899   
    265. D(O  48,N  49,C   8,C   6)     59.7961         0.011899   
    266. D(O  47,N  49,C   8,H  12)    -23.2765         0.011899   
    267. D(O  47,N  49,C   8,C  11)     78.1447         0.011899   
    268. D(C   8,N  49,O  47,H  12)     18.3790         0.083984   
    269. D(O  47,N  49,C   8,C   6)   -122.1599         0.011899   
    270. D(O  48,N  49,O  47,H  12)   -163.7728         0.083984   
    -----------------------------------------------------------------

Number of atoms                         .... 50
Number of degrees of freedom            .... 270

         *************************************************************
         *                GEOMETRY OPTIMIZATION CYCLE   1            *
         *************************************************************
---------------------------------
CARTESIAN COORDINATES (ANGSTROEM)
---------------------------------
  C      2.237520    1.132490    0.670090
  H      1.856243    2.121726    0.438253
  C      1.499557    0.325122    1.459080
  H      1.842738   -0.657720    1.764575
  C      0.183448    0.671164    2.018292
  O     -0.394379   -0.128008    2.744948
  C      3.548895    0.876085    0.091118
  C      4.320595    1.976524   -0.299197
  C      4.179074   -0.393421   -0.025180
  C      5.603717    1.840084   -0.814975
  H      3.900122    2.969905   -0.189284
  C      5.437001   -0.567700   -0.629717
  H      4.720609   -0.505942    1.822176
  C      6.165996    0.577006   -0.995758
  H      6.164486    2.721824   -1.111231
  O      7.382087    0.379504   -1.559220
  H      7.779373    1.225674   -1.813835
  O      5.865325   -1.822954   -0.906513
  C      7.009977   -2.305479   -0.164368
  H      6.798962   -2.285740    0.907026
  H      7.157433   -3.333001   -0.490836
  H      7.897029   -1.713554   -0.389219
  C     -3.064847    0.791559    0.793929
  H     -2.721786    0.653561    1.815114
  C     -2.301538    1.515148   -0.055079
  H     -2.601693    1.667626   -1.087793
  C     -1.025308    2.145113    0.284053
  O     -0.403295    2.779067   -0.563088
  C     -4.331801    0.137332    0.496973
  C     -4.951399   -0.619897    1.504458
  C     -4.976420    0.226242   -0.752852
  C     -6.155804   -1.272619    1.273797
  H     -4.477159   -0.706122    2.476551
  C     -6.180454   -0.413472   -0.994236
  H     -4.543467    0.798825   -1.565525
  C     -6.776418   -1.184894    0.027615
  H     -6.615222   -1.865603    2.060063
  O     -7.940533   -1.822894   -0.262002
  H     -8.246337   -2.325316    0.507386
  O     -6.740117   -0.349377   -2.244277
  C     -7.934171    0.443461   -2.347219
  H     -7.720795    1.487889   -2.098023
  H     -8.254126    0.377759   -3.386653
  H     -8.724573    0.060216   -1.698979
  C     -0.459206    2.027296    1.708075
  H     -1.248193    2.180758    2.444411
  H      0.274475    2.825905    1.824500
  O      3.613505   -2.486539    0.880532
  O      2.500529   -1.762385   -0.831276
  N      3.360918   -1.650407    0.029301

----------------------------
CARTESIAN COORDINATES (A.U.)
----------------------------
  NO LB      ZA    FRAG     MASS         X           Y           Z
   0 C     6.0000    0    12.011    4.228300    2.140096    1.266287
   1 H     1.0000    0     1.008    3.507791    4.009481    0.828178
   2 C     6.0000    0    12.011    2.833752    0.614392    2.757262
   3 H     1.0000    0     1.008    3.482270   -1.242911    3.334563
   4 C     6.0000    0    12.011    0.346666    1.268316    3.814019
   5 O     8.0000    0    15.999   -0.745268   -0.241900    5.187200
   6 C     6.0000    0    12.011    6.706440    1.655561    0.172188
   7 C     6.0000    0    12.011    8.164741    3.735089   -0.565400
   8 C     6.0000    0    12.011    7.897305   -0.743458   -0.047583
   9 C     6.0000    0    12.011   10.589490    3.477255   -1.540080
  10 H     1.0000    0     1.008    7.370162    5.612307   -0.357695
  11 C     6.0000    0    12.011   10.274443   -1.072798   -1.189993
  12 H     1.0000    0     1.008    8.920658   -0.956092    3.443414
  13 C     6.0000    0    12.011   11.652044    1.090383   -1.881710
  14 H     1.0000    0     1.008   11.649190    5.143502   -2.099922
  15 O     8.0000    0    15.999   13.950123    0.717159   -2.946499
  16 H     1.0000    0     1.008   14.700884    2.316188   -3.427651
  17 O     8.0000    0    15.999   11.083858   -3.444884   -1.713061
  18 C     6.0000    0    12.011   13.246937   -4.356724   -0.310611
  19 H     1.0000    0     1.008   12.848176   -4.319423    1.714031
  20 H     1.0000    0     1.008   13.525588   -6.298459   -0.927546
  21 H     1.0000    0     1.008   14.923222   -3.238148   -0.735517
  22 C     6.0000    0    12.011   -5.791721    1.495830    1.500308
  23 H     1.0000    0     1.008   -5.143430    1.235051    3.430068
  24 C     6.0000    0    12.011   -4.349277    2.863215   -0.104084
  25 H     1.0000    0     1.008   -4.916487    3.151356   -2.055631
  26 C     6.0000    0    12.011   -1.937551    4.053676    0.536782
  27 O     8.0000    0    15.999   -0.762117    5.251676   -1.064082
  28 C     6.0000    0    12.011   -8.185918    0.259520    0.939143
  29 C     6.0000    0    12.011   -9.356788   -1.171436    2.843014
  30 C     6.0000    0    12.011   -9.404071    0.427535   -1.422684
  31 C     6.0000    0    12.011  -11.632784   -2.404901    2.407127
  32 H     1.0000    0     1.008   -8.460604   -1.334377    4.680003
  33 C     6.0000    0    12.011  -11.679365   -0.781349   -1.878834
  34 H     1.0000    0     1.008   -8.585908    1.509560   -2.958414
  35 C     6.0000    0    12.011  -12.805574   -2.239125    0.052185
  36 H     1.0000    0     1.008  -12.500958   -3.525479    3.892955
  37 O     8.0000    0    15.999  -15.005433   -3.444770   -0.495112
  38 H     1.0000    0     1.008  -15.583319   -4.394210    0.958821
  39 O     8.0000    0    15.999  -12.736975   -0.660227   -4.241069
  40 C     6.0000    0    12.011  -14.993410    0.838020   -4.435601
  41 H     1.0000    0     1.008  -14.590188    2.811703   -3.964689
  42 H     1.0000    0     1.008  -15.598038    0.713861   -6.399847
  43 H     1.0000    0     1.008  -16.487054    0.113792   -3.210605
  44 C     6.0000    0    12.011   -0.867774    3.831034    3.227794
  45 H     1.0000    0     1.008   -2.358743    4.121035    4.619267
  46 H     1.0000    0     1.008    0.518683    5.340187    3.447805
  47 O     8.0000    0    15.999    6.828535   -4.698878    1.663964
  48 O     8.0000    0    15.999    4.725315   -3.330425   -1.570884
  49 N     7.0000    0    14.007    6.351215   -3.118817    0.055371

--------------------------------
INTERNAL COORDINATES (ANGSTROEM)
--------------------------------
 C      0   0   0     0.000000000000     0.00000000     0.00000000
 H      1   0   0     1.085222746257     0.00000000     0.00000000
 C      1   2   0     1.348679983129   118.58235097     0.00000000
 H      3   1   2     1.084932620373   122.27286029   182.76432650
 C      3   1   2     1.471260013250   124.82200495     1.37294248
 O      5   3   1     1.224985252911   119.60268688   181.28791779
 C      1   2   3     1.456247400490   113.07572192   181.86964967
 C      7   1   2     1.399583038603   117.96699176    19.40634241
 C      7   1   2     1.422074639701   126.06849141   194.10618503
 C      8   7   1     1.389620410676   122.37326040   177.54016697
 H      8   7   1     1.084289731787   118.57140622   357.82735074
 C      9   7   1     1.406491554023   122.82671479   178.30030109
 H      9   7   1     1.928378936413    95.63495096   282.60338107
 C     10   8   7     1.394347948331   120.62490499     1.60071451
 H     10   8   7     1.086137613978   119.88492632   179.60291136
 O     14  10   8     1.354759678219   123.22743662   176.38370770
 H     16  14  10     0.968849128049   110.49133820   359.51259434
 O     12   9   7     1.354894859060   119.03512462   191.18337597
 C     18  12   9     1.447009943903   117.01578355   246.71566756
 H     19  18  12     1.092154779133   110.13709598    58.69401338
 H     19  18  12     1.088175577489   105.55704495   177.07242107
 H     19  18  12     1.089859820587   110.91111557   296.07957950
 C      6   5   3     3.432707086961    81.66525342   224.41513604
 H     23   6   5     1.086072328139    35.49408202   229.43009261
 C     23   6   5     1.351679050095    93.50206374     7.40312953
 H     25  23   6     1.086204755240   121.08307014   152.96504153
 C     25  23   6     1.463089001923   125.27448427   333.65974937
 O     27  25  23     1.227373504752   120.29626814   179.69009337
 C     23   6   5     1.456491768456   132.24198968   158.14851196
 C     29  23   6     1.404394341084   118.66587836    35.10177657
 C     29  23   6     1.409078129092   123.39735222   214.90480993
 C     30  29  23     1.389187500027   121.11303216   180.43928869
 H     30  29  23     1.085036003492   119.51982848   359.77710940
 C     31  29  23     1.384629232108   121.55280599   179.90902514
 H     31  29  23     1.084314067522   121.02623611     0.09538420
 C     32  30  29     1.394929026777   120.29909110   359.91569247
 H     32  30  29     1.086696436792   120.18448191   179.16632371
 O     36  32  30     1.358707378325   122.82565502   178.68887740
 H     38  36  32     0.968453327241   110.16982728   359.82419569
 O     34  31  29     1.371106613023   119.49088899   182.98537086
 C     40  34  31     1.436994817153   115.48524745   250.03227765
 H     41  40  34     1.094740978943   110.37184500    62.38327431
 H     41  40  34     1.089546233615   106.20553628   180.84996007
 H     41  40  34     1.091708362718   111.43096189   299.94591517
 C      5   3   1     1.532427078927   120.42066258     0.68952543
 H     45   5   3     1.090065033156   106.94066872   196.77861807
 H     45   5   3     1.090696532161   110.13657781   314.08396376
 O      9   7   1     2.349750089399   131.07386351   349.93553046
 O     48   9   7     2.166425909455    61.40165725    77.17335962
 N     48   9   7     1.219635654347    33.91590758    76.04196389

---------------------------
INTERNAL COORDINATES (A.U.)
---------------------------
 C      0   0   0     0.000000000000     0.00000000     0.00000000
 H      1   0   0     2.050773784728     0.00000000     0.00000000
 C      1   2   0     2.548635810415   118.58235097     0.00000000
 H      3   1   2     2.050225526263   122.27286029   182.76432650
 C      3   1   2     2.780278496832   124.82200495     1.37294248
 O      5   3   1     2.314886646094   119.60268688   181.28791779
 C      1   2   3     2.751908770161   113.07572192   181.86964967
 C      7   1   2     2.644828644642   117.96699176    19.40634241
 C      7   1   2     2.687331611030   126.06849141   194.10618503
 C      8   7   1     2.626002006285   122.37326040   177.54016697
 H      8   7   1     2.049010642901   118.57140622   357.82735074
 C      9   7   1     2.657883846777   122.82671479   178.30030109
 H      9   7   1     3.644108072243    95.63495096   282.60338107
 C     10   8   7     2.634935757740   120.62490499     1.60071451
 H     10   8   7     2.052502634168   119.88492632   179.60291136
 O     14  10   8     2.560124769114   123.22743662   176.38370770
 H     16  14  10     1.830859517101   110.49133820   359.51259434
 O     12   9   7     2.560380223882   119.03512462   191.18337597
 C     18  12   9     2.734452507037   117.01578355   246.71566756
 H     19  18  12     2.063873428414   110.13709598    58.69401338
 H     19  18  12     2.056353827076   105.55704495   177.07242107
 H     19  18  12     2.059536585274   110.91111557   296.07957950
 C      6   5   3     6.486876292327    81.66525342   224.41513604
 H     23   6   5     2.052379261814    35.49408202   229.43009261
 C     23   6   5     2.554303225639    93.50206374     7.40312953
 H     25  23   6     2.052629512766   121.08307014   152.96504153
 C     25  23   6     2.764837523187   125.27448427   333.65974937
 O     27  25  23     2.319399788011   120.29626814   179.69009337
 C     23   6   5     2.752370558693   132.24198968   158.14851196
 C     29  23   6     2.653920688678   118.66587836    35.10177657
 C     29  23   6     2.662771765282   123.39735222   214.90480993
 C     30  29  23     2.625183923717   121.11303216   180.43928869
 H     30  29  23     2.050420892044   119.51982848   359.77710940
 C     31  29  23     2.616570045706   121.55280599   179.90902514
 H     31  29  23     2.049056630776   121.02623611     0.09538420
 C     32  30  29     2.636033836866   120.29909110   359.91569247
 H     32  30  29     2.053558656245   120.18448191   179.16632371
 O     36  32  30     2.567584841172   122.82565502   178.68887740
 H     38  36  32     1.830111561970   110.16982728   359.82419569
 O     34  31  29     2.591015999022   119.49088899   182.98537086
 C     40  34  31     2.715526660283   115.48524745   250.03227765
 H     41  40  34     2.068760637782   110.37184500    62.38327431
 H     41  40  34     2.058943991778   106.20553628   180.84996007
 H     41  40  34     2.063029823649   111.43096189   299.94591517
 C      5   3   1     2.895867499377   120.42066258     0.68952543
 H     45   5   3     2.059924380828   106.94066872   196.77861807
 H     45   5   3     2.061117741001   110.13657781   314.08396376
 O      9   7   1     4.440384152120   131.07386351   349.93553046
 O     48   9   7     4.093951658300    61.40165725    77.17335962
 N     48   9   7     2.304777369881    33.91590758    76.04196389

---------------------
BASIS SET INFORMATION
---------------------
There are 4 groups of distinct atoms

 Group   1 Type C   : 11s5p1d contracted to 4s3p1d pattern {6311/311/1}
 Group   2 Type H   : 5s contracted to 3s pattern {311}
 Group   3 Type O   : 11s5p1d contracted to 4s3p1d pattern {6311/311/1}
 Group   4 Type N   : 11s5p1d contracted to 4s3p1d pattern {6311/311/1}

Atom   0C    basis set group =>   1
Atom   1H    basis set group =>   2
Atom   2C    basis set group =>   1
Atom   3H    basis set group =>   2
Atom   4C    basis set group =>   1
Atom   5O    basis set group =>   3
Atom   6C    basis set group =>   1
Atom   7C    basis set group =>   1
Atom   8C    basis set group =>   1
Atom   9C    basis set group =>   1
Atom  10H    basis set group =>   2
Atom  11C    basis set group =>   1
Atom  12H    basis set group =>   2
Atom  13C    basis set group =>   1
Atom  14H    basis set group =>   2
Atom  15O    basis set group =>   3
Atom  16H    basis set group =>   2
Atom  17O    basis set group =>   3
Atom  18C    basis set group =>   1
Atom  19H    basis set group =>   2
Atom  20H    basis set group =>   2
Atom  21H    basis set group =>   2
Atom  22C    basis set group =>   1
Atom  23H    basis set group =>   2
Atom  24C    basis set group =>   1
Atom  25H    basis set group =>   2
Atom  26C    basis set group =>   1
Atom  27O    basis set group =>   3
Atom  28C    basis set group =>   1
Atom  29C    basis set group =>   1
Atom  30C    basis set group =>   1
Atom  31C    basis set group =>   1
Atom  32H    basis set group =>   2
Atom  33C    basis set group =>   1
Atom  34H    basis set group =>   2
Atom  35C    basis set group =>   1
Atom  36H    basis set group =>   2
Atom  37O    basis set group =>   3
Atom  38H    basis set group =>   2
Atom  39O    basis set group =>   3
Atom  40C    basis set group =>   1
Atom  41H    basis set group =>   2
Atom  42H    basis set group =>   2
Atom  43H    basis set group =>   2
Atom  44C    basis set group =>   1
Atom  45H    basis set group =>   2
Atom  46H    basis set group =>   2
Atom  47O    basis set group =>   3
Atom  48O    basis set group =>   3
Atom  49N    basis set group =>   4
---------------------------------
AUXILIARY/J BASIS SET INFORMATION
---------------------------------
There are 4 groups of distinct atoms

 Group   1 Type C   : 12s5p4d2f1g contracted to 6s4p3d1f1g pattern {711111/2111/211/2/1}
 Group   2 Type H   : 5s2p1d contracted to 3s1p1d pattern {311/2/1}
 Group   3 Type O   : 12s5p4d2f1g contracted to 6s4p3d1f1g pattern {711111/2111/211/2/1}
 Group   4 Type N   : 12s5p4d2f1g contracted to 6s4p3d1f1g pattern {711111/2111/211/2/1}

Atom   0C    basis set group =>   1
Atom   1H    basis set group =>   2
Atom   2C    basis set group =>   1
Atom   3H    basis set group =>   2
Atom   4C    basis set group =>   1
Atom   5O    basis set group =>   3
Atom   6C    basis set group =>   1
Atom   7C    basis set group =>   1
Atom   8C    basis set group =>   1
Atom   9C    basis set group =>   1
Atom  10H    basis set group =>   2
Atom  11C    basis set group =>   1
Atom  12H    basis set group =>   2
Atom  13C    basis set group =>   1
Atom  14H    basis set group =>   2
Atom  15O    basis set group =>   3
Atom  16H    basis set group =>   2
Atom  17O    basis set group =>   3
Atom  18C    basis set group =>   1
Atom  19H    basis set group =>   2
Atom  20H    basis set group =>   2
Atom  21H    basis set group =>   2
Atom  22C    basis set group =>   1
Atom  23H    basis set group =>   2
Atom  24C    basis set group =>   1
Atom  25H    basis set group =>   2
Atom  26C    basis set group =>   1
Atom  27O    basis set group =>   3
Atom  28C    basis set group =>   1
Atom  29C    basis set group =>   1
Atom  30C    basis set group =>   1
Atom  31C    basis set group =>   1
Atom  32H    basis set group =>   2
Atom  33C    basis set group =>   1
Atom  34H    basis set group =>   2
Atom  35C    basis set group =>   1
Atom  36H    basis set group =>   2
Atom  37O    basis set group =>   3
Atom  38H    basis set group =>   2
Atom  39O    basis set group =>   3
Atom  40C    basis set group =>   1
Atom  41H    basis set group =>   2
Atom  42H    basis set group =>   2
Atom  43H    basis set group =>   2
Atom  44C    basis set group =>   1
Atom  45H    basis set group =>   2
Atom  46H    basis set group =>   2
Atom  47O    basis set group =>   3
Atom  48O    basis set group =>   3
Atom  49N    basis set group =>   4
------------------------------------------------------------------------------
                           ORCA GTO INTEGRAL CALCULATION
                           -- RI-GTO INTEGRALS CHOSEN --
------------------------------------------------------------------------------
------------------------------------------------------------------------------
                   ___                                                        
                  /   \      - P O W E R E D   B Y -                         
                 /     \                                                     
                 |  |  |   _    _      __       _____    __    __             
                 |  |  |  | |  | |    /  \     |  _  \  |  |  /  |          
                  \  \/   | |  | |   /    \    | | | |  |  | /  /          
                 / \  \   | |__| |  /  /\  \   | |_| |  |  |/  /          
                |  |  |   |  __  | /  /__\  \  |    /   |      \           
                |  |  |   | |  | | |   __   |  |    \   |  |\   \          
                \     /   | |  | | |  |  |  |  | |\  \  |  | \   \       
                 \___/    |_|  |_| |__|  |__|  |_| \__\ |__|  \__/        
                                                                              
                      - O R C A' S   B I G   F R I E N D -                    
                                      &                                       
                       - I N T E G R A L  F E E D E R -                       
                                                                              
 v1 FN, 2020, v2 2021                                                         
------------------------------------------------------------------------------


Reading SHARK input file CURCUMIN-OPT-FREQ-TS-M06-2X-6-311G-D-298.SHARKINP.tmp ... ok
----------------------
SHARK INTEGRAL PACKAGE
----------------------

Number of atoms                             ...     50
Number of basis functions                   ...    600
Number of shells                            ...    300
Maximum angular momentum                    ...      2
Integral batch strategy                     ... SHARK/LIBINT Hybrid
RI-J (if used) integral strategy            ... SPLIT-RIJ (Revised 2003 algorithm where possible)
Printlevel                                  ...      1
Contraction scheme used                     ... SEGMENTED contraction
Coulomb Range Separation                    ... NOT USED
Exchange Range Separation                   ... Long Range
   Mu parameter                             ...  0.300000
   Scaling (regular/separated)              ...  0.150000  0.850000
Finite Nucleus Model                        ... NOT USED
Auxiliary Coulomb fitting basis             ... AVAILABLE
   # of basis functions in Aux-J            ...   1690
   # of shells in Aux-J                     ...    550
   Maximum angular momentum in Aux-J        ...      4
Auxiliary J/K fitting basis                 ... NOT available
Auxiliary Correlation fitting basis         ... NOT available
Auxiliary 'external' fitting basis          ... NOT available
Integral threshold                          ...     2.500000e-11
Primitive cut-off                           ...     2.500000e-12
Primitive pair pre-selection threshold      ...     2.500000e-12

Calculating pre-screening integrals         ... done (  0.1 sec) Dimension = 300
Organizing shell pair data                  ... done (  1.7 sec)
Shell pair information
Total number of shell pairs                 ...     45150
Shell pairs after pre-screening             ...     21673
Total number of primitive shell pairs       ...    187045
Primitive shell pairs kept                  ...     53113
          la=0 lb=0:   7437 shell pairs
          la=1 lb=0:   8084 shell pairs
          la=1 lb=1:   2247 shell pairs
          la=2 lb=0:   2385 shell pairs
          la=2 lb=1:   1310 shell pairs
          la=2 lb=2:    210 shell pairs

Calculating one electron integrals          ... done (  0.1 sec)
Calculating RI/J V-Matrix + Cholesky decomp.... done (  4.0 sec)
Calculating Nuclear repulsion               ... done (  0.0 sec) ENN=   2692.006745662936 Eh

SHARK setup successfully completed in   8.9 seconds

Maximum memory used throughout the entire GTOINT-calculation: 120.3 MB
-------------------------------------------------------------------------------
                                 ORCA SCF
-------------------------------------------------------------------------------

------------
SCF SETTINGS
------------
Hamiltonian:
 Density Functional     Method          .... DFT(GTOs)
  Functional kind                       .... Exchange-Correlation
  Functional name                       .... wB97M-V exchange-correlation functional
  Functional family                     .... Hybrid MGGA
  Functional refs                              
    [ 0] N. Mardirossian and M. Head-Gordon, J. Chem. Phys. 144, 214110 (2016)
  Fraction of HF Exchange (short range) .... 0.1500
  Fraction of HF Exchange (long range)  .... 1.0000
  Range separation parameter mu         .... 0.3000
  Functional external parameters         .... 0
   Density functional embedding theory  .... OFF
 Long-range corrected/Screened/Range-Separated Hybrid DFT is turned on
   Amount of maximum screened exact exchange              ....  0.850000
   Range separation parameter mu (erf(mu*r12)/r12)        ....  0.300000
   NL short-range parameter             ....  6.000000
   NL long-range parameter              ....  0.010000
 RI-approximation to the Coulomb term is turned on
   Number of AuxJ basis functions       .... 1690
   RIJ-ON(X) (HFX calculated with O(N)) .... on


General Settings:
 Integral files         IntName         .... CURCUMIN-OPT-FREQ-TS-M06-2X-6-311G-D-298
 Hartree-Fock type      HFTyp           .... UHF
 Total Charge           Charge          ....    0
 Multiplicity           Mult            ....    2
 Number of Electrons    NEL             ....  217
 Basis Dimension        Dim             ....  600
 Nuclear Repulsion      ENuc            ....   2692.0067456629 Eh

Convergence Acceleration:
 DIIS                   CNVDIIS         .... on
   Start iteration      DIISMaxIt       ....    12
   Startup error        DIISStart       ....  0.200000
   # of expansion vecs  DIISMaxEq       ....     5
   Bias factor          DIISBfac        ....   1.050
   Max. coefficient     DIISMaxC        ....  10.000
 Trust-Rad. Augm. Hess. CNVTRAH         .... off
 SOSCF                  CNVSOSCF        .... off
 Level Shifting         CNVShift        .... on
   Level shift para.    LevelShift      ....    0.2500
   Turn off err/grad.   ShiftErr        ....    0.0010
 Zerner damping         CNVZerner       .... off
 Static damping         CNVDamp         .... on
   Fraction old density DampFac         ....    0.7000
   Max. Damping (<1)    DampMax         ....    0.9800
   Min. Damping (>=0)   DampMin         ....    0.0000
   Turn off err/grad.   DampErr         ....    0.1000
 Fernandez-Rico         CNVRico         .... off

SCF Procedure:
 Maximum # iterations   MaxIter         ....   125
 SCF integral mode      SCFMode         .... Direct
   Integral package                     .... SHARK and LIBINT hybrid scheme
 Reset frequency        DirectResetFreq ....    20
 Integral Threshold     Thresh          ....  2.500e-11 Eh
 Primitive CutOff       TCut            ....  2.500e-12 Eh

Convergence Tolerance:
 Convergence Check Mode ConvCheckMode   .... Total+1el-Energy
 Convergence forced     ConvForced      .... 0
 Energy Change          TolE            ....  1.000e-08 Eh
 1-El. energy change                    ....  1.000e-05 Eh
 DIIS Error             TolErr          ....  5.000e-07


Diagonalization of the overlap matrix:
Smallest eigenvalue                        ... 1.664e-04
Time for diagonalization                   ...    0.030 sec
Threshold for overlap eigenvalues          ... 1.000e-08
Number of eigenvalues below threshold      ... 0
Time for construction of square roots      ...    0.266 sec
Total time needed                          ...    0.296 sec

Time for model grid setup =    1.538 sec

------------------------------
INITIAL GUESS: MODEL POTENTIAL
------------------------------
Loading Hartree-Fock densities                     ... done
Calculating cut-offs                               ... done
Initializing the effective Hamiltonian             ... done
Setting up the integral package (SHARK)            ... done
Starting the Coulomb interaction                   ... done (   1.3 sec)
Reading the grid                                   ... done
Mapping shells                                     ... done
Starting the XC term evaluation                    ... done (   0.6 sec)
  promolecular density results
     # of electrons  =    216.983240072
     EX              =   -185.025528646
     EC              =     -7.308770391
     EX+EC           =   -192.334299037
Transforming the Hamiltonian                       ... done (   0.0 sec)
Diagonalizing the Hamiltonian                      ... done (   0.0 sec)
Back transforming the eigenvectors                 ... done (   0.0 sec)
Now organizing SCF variables                       ... done
                      ------------------
                      INITIAL GUESS DONE (   4.2 sec)
                      ------------------
-------------------
DFT GRID GENERATION
-------------------

General Integration Accuracy     IntAcc      ... 4.388
Radial Grid Type                 RadialGrid  ... OptM3 with GC (2021)
Angular Grid (max. ang.)         AngularGrid ... 4 (Lebedev-302)
Angular grid pruning method      GridPruning ... 4 (adaptive)
Weight generation scheme         WeightScheme... Becke
Basis function cutoff            BFCut       ... 1.0000e-11
Integration weight cutoff        WCut        ... 1.0000e-14
Angular grids for H and He will be reduced by one unit
Partially contracted basis set               ... off
Rotationally invariant grid construction     ... off

Total number of grid points                  ...   243872
Total number of batches                      ...     3833
Average number of points per batch           ...       63
Average number of grid points per atom       ...     4877

------------------
NL GRID GENERATION
------------------

General Integration Accuracy     IntAcc      ... 4.004
Radial Grid Type                 RadialGrid  ... OptM3 with GC (2021)
Angular Grid (max. ang.)         AngularGrid ... 2 (Lebedev-110)
Angular grid pruning method      GridPruning ... 4 (adaptive)
Weight generation scheme         WeightScheme... Becke
Basis function cutoff            BFCut       ... 1.0000e-10
Integration weight cutoff        WCut        ... 1.0000e-14
Angular grids for H and He will be reduced by one unit
Partially contracted basis set               ... off
Rotationally invariant grid construction     ... off

Total number of grid points                  ...    78496
Total number of batches                      ...     1255
Average number of points per batch           ...       62
Average number of grid points per atom       ...     1570
Time for grid setup =    6.474 sec


--------------------
CPCM SOLVATION MODEL
--------------------
CPCM parameters:
  Epsilon                                         ...       7.0000
  Refrac                                          ...       1.8534
  Rsolv                                           ...       1.3000
  Surface type                                    ... GAUSSIAN VDW
  Epsilon function type                           ...         CPCM
Radii:
 Radius for C  used is    3.8550 Bohr (=   2.0400 Ang.)
 Radius for H  used is    2.4944 Bohr (=   1.3200 Ang.)
 Radius for O  used is    3.4469 Bohr (=   1.8240 Ang.)
 Radius for N  used is    3.5149 Bohr (=   1.8600 Ang.)
Calculating surface                               ...        done! (  0.0s)
GEPOL surface points                              ...         2681
GEPOL Volume                                      ...    3209.1899
GEPOL Surface-area                                ...    1648.2579
Calculating surface distance matrix               ...        done! (  0.0s)
Performing Cholesky decomposition & store         ...        done! (  5.0s)
Overall time for CPCM initialization              ...                 5.1s
--------------
SCF ITERATIONS
--------------
ITER       Energy         Delta-E        Max-DP      RMS-DP      [F,P]     Damp
               ***  Starting incremental Fock matrix formation  ***
  0  -1467.6171689187   0.000000000000 0.05217258  0.00052857  0.1494580 0.7000
  1  -1467.9370039269  -0.319835008257 0.03663819  0.00038885  0.0707018 0.7000
                               ***Turning on DIIS***
  2  -1468.0931986467  -0.156194719816 0.04830640  0.00072082  0.0282182 0.0000
  3  -1468.3708214096  -0.277622762825 0.04167594  0.00028630  0.0372208 0.0000
  4  -1468.4081787168  -0.037357307244 0.01787928  0.00009092  0.0132066 0.0000
  5  -1468.4133208579  -0.005142141039 0.01740659  0.00006642  0.0082929 0.0000
  6  -1468.4161749915  -0.002854133622 0.01500663  0.00005913  0.0061520 0.0000
  7  -1468.4181324079  -0.001957416407 0.00906755  0.00004308  0.0039567 0.0000
  8  -1468.4190662284  -0.000933820540 0.00467482  0.00002665  0.0020685 0.0000
  9  -1468.4194088672  -0.000342638738 0.00281623  0.00001610  0.0010001 0.0000
 10  -1468.4195300472  -0.000121180032 0.00310233  0.00001778  0.0005677 0.0000
 11  -1468.4195999233  -0.000069876147 0.00095465  0.00000541  0.0003731 0.0000
 12  -1468.4196095930  -0.000009669672 0.00053783  0.00000337  0.0002641 0.0000
 13  -1468.4196136799  -0.000004086891 0.00035862  0.00000230  0.0001369 0.0000
 14  -1468.4196155564  -0.000001876464 0.00023589  0.00000165  0.0001014 0.0000
 15  -1468.4196164665  -0.000000910091 0.00014509  0.00000110  0.0000515 0.0000
 16  -1468.4196168670  -0.000000400497 0.00007259  0.00000076  0.0000389 0.0000
 17  -1468.4196171214  -0.000000254434 0.00005957  0.00000068  0.0000307 0.0000
 18  -1468.4196172813  -0.000000159923 0.00004194  0.00000046  0.0000273 0.0000
 19  -1468.4196173715  -0.000000090142 0.00003609  0.00000040  0.0000198 0.0000
               *** Restarting incremental Fock matrix formation ***
                                   *** Resetting DIIS ***
 20  -1468.4196174223  -0.000000050878 0.00001062  0.00000014  0.0000088 0.0000
 21  -1468.4196174344  -0.000000012064 0.00000474  0.00000007  0.0000113 0.0000
 22  -1468.4196174342   0.000000000176 0.00001073  0.00000013  0.0000056 0.0000
 23  -1468.4196174350  -0.000000000733 0.00000802  0.00000012  0.0000041 0.0000
 24  -1468.4196174312   0.000000003799 0.00000377  0.00000006  0.0000026 0.0000
                 **** Energy Check signals convergence ****

               *****************************************************
               *                     SUCCESS                       *
               *           SCF CONVERGED AFTER  25 CYCLES          *
               *****************************************************


----------------
TOTAL SCF ENERGY
----------------

Total Energy       :        -1468.41961744 Eh          -39957.72920 eV

Components:
Nuclear Repulsion  :         2692.00674566 Eh           73253.22767 eV
Electronic Energy  :        -4160.42636310 Eh         -113210.95687 eV
One Electron Energy:        -7354.72418135 Eh         -200132.21950 eV
Two Electron Energy:         3194.29781825 Eh           86921.26263 eV
CPCM Dielectric    :           -0.04325470 Eh              -1.17702 eV

Virial components:
Potential Energy   :        -2933.23345552 Eh          -79817.34016 eV
Kinetic Energy     :         1464.81383808 Eh           39859.61096 eV
Virial Ratio       :            2.00246160


DFT components:
N(Alpha)           :      108.999955125748 electrons
N(Beta)            :      107.999931744877 electrons
N(Total)           :      216.999886870625 electrons
NL Energy, E(C,NL) :        0.816981973745 Eh       
E(XC)              :     -139.453053005845 Eh       
DFET-embed. en.    :        0.000000000000 Eh       
CPCM Solvation Model Properties:
Surface-charge          :           -0.02977629
Charge-correction       :            0.00002022 Eh               0.00055 eV
Free-energy (cav+disp)  :  This term is not implemented in the current solvation scheme

---------------
SCF CONVERGENCE
---------------

  Last Energy change         ...   -9.1391e-09  Tolerance :   1.0000e-08
  Last MAX-Density change    ...    3.7377e-06  Tolerance :   1.0000e-07
  Last RMS-Density change    ...    3.7953e-08  Tolerance :   5.0000e-09
  Last DIIS Error            ...    1.6219e-06  Tolerance :   5.0000e-07

             **** THE GBW FILE WAS UPDATED (CURCUMIN-OPT-FREQ-TS-M06-2X-6-311G-D-298.gbw) ****
             **** DENSITY CURCUMIN-OPT-FREQ-TS-M06-2X-6-311G-D-298.scfp WAS UPDATED ****
             **** ENERGY FILE WAS UPDATED (CURCUMIN-OPT-FREQ-TS-M06-2X-6-311G-D-298.en.tmp) ****
----------------------
UHF SPIN CONTAMINATION
----------------------

Warning: in a DFT calculation there is little theoretical justification to 
         calculate <S**2> as in Hartree-Fock theory. We will do it anyways
         but you should keep in mind that the values have only limited relevance

Expectation value of <S**2>     :     0.768625
Ideal value S*(S+1) for S=0.5   :     0.750000
Deviation                       :     0.018625

             **** THE GBW FILE WAS UPDATED (CURCUMIN-OPT-FREQ-TS-M06-2X-6-311G-D-298.gbw) ****
             **** DENSITY CURCUMIN-OPT-FREQ-TS-M06-2X-6-311G-D-298.scfp WAS UPDATED ****
----------------
ORBITAL ENERGIES
----------------
                 SPIN UP ORBITALS
  NO   OCC          E(Eh)            E(eV) 
   0   1.0000     -19.380453      -527.3689 
   1   1.0000     -19.379405      -527.3404 
   2   1.0000     -19.377886      -527.2991 
   3   1.0000     -19.368140      -527.0339 
   4   1.0000     -19.367191      -527.0080 
   5   1.0000     -19.347972      -526.4851 
   6   1.0000     -19.328123      -525.9450 
   7   1.0000     -19.323219      -525.8115 
   8   1.0000     -14.765297      -401.7842 
   9   1.0000     -10.451004      -284.3863 
  10   1.0000     -10.447193      -284.2826 
  11   1.0000     -10.440386      -284.0973 
  12   1.0000     -10.439604      -284.0761 
  13   1.0000     -10.438311      -284.0409 
  14   1.0000     -10.424459      -283.6639 
  15   1.0000     -10.408861      -283.2395 
  16   1.0000     -10.393001      -282.8079 
  17   1.0000     -10.390574      -282.7419 
  18   1.0000     -10.384697      -282.5820 
  19   1.0000     -10.382362      -282.5184 
  20   1.0000     -10.376739      -282.3654 
  21   1.0000     -10.376250      -282.3521 
  22   1.0000     -10.373209      -282.2694 
  23   1.0000     -10.364462      -282.0314 
  24   1.0000     -10.362604      -281.9808 
  25   1.0000     -10.359966      -281.9090 
  26   1.0000     -10.357989      -281.8552 
  27   1.0000     -10.357675      -281.8467 
  28   1.0000     -10.354877      -281.7705 
  29   1.0000     -10.351411      -281.6762 
  30   1.0000      -1.383463       -37.6460 
  31   1.0000      -1.222924       -33.2775 
  32   1.0000      -1.207741       -32.8643 
  33   1.0000      -1.206040       -32.8180 
  34   1.0000      -1.199120       -32.6297 
  35   1.0000      -1.181394       -32.1474 
  36   1.0000      -1.179787       -32.1036 
  37   1.0000      -1.174583       -31.9620 
  38   1.0000      -1.029032       -28.0014 
  39   1.0000      -0.997348       -27.1392 
  40   1.0000      -0.952600       -25.9216 
  41   1.0000      -0.940824       -25.6011 
  42   1.0000      -0.938633       -25.5415 
  43   1.0000      -0.905019       -24.6268 
  44   1.0000      -0.886439       -24.1212 
  45   1.0000      -0.882653       -24.0182 
  46   1.0000      -0.858193       -23.3526 
  47   1.0000      -0.843463       -22.9518 
  48   1.0000      -0.821464       -22.3532 
  49   1.0000      -0.810551       -22.0562 
  50   1.0000      -0.783335       -21.3156 
  51   1.0000      -0.777823       -21.1656 
  52   1.0000      -0.745919       -20.2975 
  53   1.0000      -0.741177       -20.1685 
  54   1.0000      -0.732017       -19.9192 
  55   1.0000      -0.703077       -19.1317 
  56   1.0000      -0.696674       -18.9575 
  57   1.0000      -0.687510       -18.7081 
  58   1.0000      -0.670838       -18.2544 
  59   1.0000      -0.663364       -18.0510 
  60   1.0000      -0.646660       -17.5965 
  61   1.0000      -0.644867       -17.5477 
  62   1.0000      -0.642166       -17.4742 
  63   1.0000      -0.632373       -17.2077 
  64   1.0000      -0.624240       -16.9864 
  65   1.0000      -0.621109       -16.9012 
  66   1.0000      -0.614286       -16.7156 
  67   1.0000      -0.601604       -16.3705 
  68   1.0000      -0.594376       -16.1738 
  69   1.0000      -0.592289       -16.1170 
  70   1.0000      -0.582784       -15.8584 
  71   1.0000      -0.575168       -15.6511 
  72   1.0000      -0.569927       -15.5085 
  73   1.0000      -0.561433       -15.2774 
  74   1.0000      -0.556319       -15.1382 
  75   1.0000      -0.550862       -14.9897 
  76   1.0000      -0.545678       -14.8487 
  77   1.0000      -0.540795       -14.7158 
  78   1.0000      -0.539376       -14.6772 
  79   1.0000      -0.534393       -14.5416 
  80   1.0000      -0.527525       -14.3547 
  81   1.0000      -0.520564       -14.1653 
  82   1.0000      -0.513436       -13.9713 
  83   1.0000      -0.511460       -13.9175 
  84   1.0000      -0.504807       -13.7365 
  85   1.0000      -0.501381       -13.6433 
  86   1.0000      -0.492292       -13.3959 
  87   1.0000      -0.490702       -13.3527 
  88   1.0000      -0.481918       -13.1137 
  89   1.0000      -0.480004       -13.0616 
  90   1.0000      -0.473299       -12.8791 
  91   1.0000      -0.471289       -12.8244 
  92   1.0000      -0.465428       -12.6649 
  93   1.0000      -0.463847       -12.6219 
  94   1.0000      -0.443166       -12.0592 
  95   1.0000      -0.438191       -11.9238 
  96   1.0000      -0.432022       -11.7559 
  97   1.0000      -0.428202       -11.6520 
  98   1.0000      -0.404551       -11.0084 
  99   1.0000      -0.400700       -10.9036 
 100   1.0000      -0.394812       -10.7434 
 101   1.0000      -0.391367       -10.6496 
 102   1.0000      -0.386442       -10.5156 
 103   1.0000      -0.376420       -10.2429 
 104   1.0000      -0.358143        -9.7456 
 105   1.0000      -0.345252        -9.3948 
 106   1.0000      -0.324809        -8.8385 
 107   1.0000      -0.309343        -8.4176 
 108   1.0000      -0.302840        -8.2407 
 109   0.0000      -0.016289        -0.4432 
 110   0.0000      -0.001391        -0.0379 
 111   0.0000       0.008920         0.2427 
 112   0.0000       0.046094         1.2543 
 113   0.0000       0.064913         1.7664 
 114   0.0000       0.075771         2.0618 
 115   0.0000       0.094273         2.5653 
 116   0.0000       0.106453         2.8967 
 117   0.0000       0.111505         3.0342 
 118   0.0000       0.118635         3.2282 
 119   0.0000       0.128612         3.4997 
 120   0.0000       0.132162         3.5963 
 121   0.0000       0.141144         3.8407 
 122   0.0000       0.142341         3.8733 
 123   0.0000       0.147776         4.0212 
 124   0.0000       0.152163         4.1406 
 125   0.0000       0.159218         4.3325 
 126   0.0000       0.162773         4.4293 
 127   0.0000       0.176459         4.8017 
 128   0.0000       0.177436         4.8283 
 129   0.0000       0.187065         5.0903 
 130   0.0000       0.189576         5.1586 
 131   0.0000       0.190391         5.1808 
 132   0.0000       0.193692         5.2706 
 133   0.0000       0.195923         5.3313 
 134   0.0000       0.205779         5.5995 
 135   0.0000       0.215516         5.8645 
 136   0.0000       0.216850         5.9008 
 137   0.0000       0.227812         6.1991 
 138   0.0000       0.233644         6.3578 
 139   0.0000       0.238633         6.4935 
 140   0.0000       0.249389         6.7862 
 141   0.0000       0.261669         7.1204 
 142   0.0000       0.263614         7.1733 
 143   0.0000       0.282775         7.6947 
 144   0.0000       0.296942         8.0802 
 145   0.0000       0.301031         8.1915 
 146   0.0000       0.306069         8.3286 
 147   0.0000       0.312721         8.5096 
 148   0.0000       0.327306         8.9065 
 149   0.0000       0.334963         9.1148 
 150   0.0000       0.341712         9.2984 
 151   0.0000       0.346505         9.4289 
 152   0.0000       0.352909         9.6031 
 153   0.0000       0.355079         9.6622 
 154   0.0000       0.360453         9.8084 
 155   0.0000       0.370969        10.0946 
 156   0.0000       0.372619        10.1395 
 157   0.0000       0.377662        10.2767 
 158   0.0000       0.383523        10.4362 
 159   0.0000       0.387229        10.5370 
 160   0.0000       0.392966        10.6932 
 161   0.0000       0.398033        10.8310 
 162   0.0000       0.410140        11.1605 
 163   0.0000       0.415217        11.2986 
 164   0.0000       0.417318        11.3558 
 165   0.0000       0.425973        11.5913 
 166   0.0000       0.433519        11.7966 
 167   0.0000       0.438761        11.9393 
 168   0.0000       0.440419        11.9844 
 169   0.0000       0.443292        12.0626 
 170   0.0000       0.447483        12.1766 
 171   0.0000       0.454027        12.3547 
 172   0.0000       0.458030        12.4636 
 173   0.0000       0.462582        12.5875 
 174   0.0000       0.464254        12.6330 
 175   0.0000       0.468870        12.7586 
 176   0.0000       0.473947        12.8967 
 177   0.0000       0.481839        13.1115 
 178   0.0000       0.483496        13.1566 
 179   0.0000       0.491656        13.3786 
 180   0.0000       0.493478        13.4282 
 181   0.0000       0.502441        13.6721 
 182   0.0000       0.506327        13.7779 
 183   0.0000       0.509111        13.8536 
 184   0.0000       0.510644        13.8953 
 185   0.0000       0.515950        14.0397 
 186   0.0000       0.519024        14.1234 
 187   0.0000       0.521284        14.1849 
 188   0.0000       0.528802        14.3894 
 189   0.0000       0.532400        14.4874 
 190   0.0000       0.535244        14.5647 
 191   0.0000       0.536921        14.6104 
 192   0.0000       0.542254        14.7555 
 193   0.0000       0.545524        14.8445 
 194   0.0000       0.548361        14.9217 
 195   0.0000       0.553272        15.0553 
 196   0.0000       0.561890        15.2898 
 197   0.0000       0.568547        15.4710 
 198   0.0000       0.572047        15.5662 
 199   0.0000       0.577425        15.7125 
 200   0.0000       0.582832        15.8597 
 201   0.0000       0.589100        16.0302 
 202   0.0000       0.599612        16.3163 
 203   0.0000       0.603356        16.4182 
 204   0.0000       0.605767        16.4838 
 205   0.0000       0.607833        16.5400 
 206   0.0000       0.612819        16.6757 
[...]
 52:    575.73   0.012015   60.72  0.006513  ( 0.075219 -0.000708 -0.029230)
 53:    579.34   0.007523   38.02  0.004052  (-0.055410 -0.028683 -0.012627)
 54:    597.07   0.000034    0.17  0.000018  (-0.003239 -0.002626  0.000515)
 55:    615.51   0.004384   22.16  0.002223  (-0.046757  0.004944  0.003509)
 56:    618.96   0.003126   15.80  0.001576  (-0.038206 -0.007037  0.008188)
 57:    624.00   0.001808    9.14  0.000904  (-0.012999 -0.026479  0.005850)
 58:    660.17   0.002139   10.81  0.001011  ( 0.011639 -0.025543 -0.014937)
 59:    690.79   0.005410   27.34  0.002444  (-0.042505 -0.012568 -0.021893)
 60:    727.29   0.002611   13.19  0.001120  ( 0.000954  0.016454  0.029130)
 61:    732.27   0.000918    4.64  0.000391  ( 0.010159  0.010937 -0.012981)
 62:    750.67   0.000354    1.79  0.000147  ( 0.001179  0.006148  0.010392)
 63:    769.60   0.001632    8.25  0.000662  (-0.005273 -0.007820 -0.023934)
 64:    772.86   0.001553    7.85  0.000627  ( 0.020060  0.002660  0.014750)
 65:    809.76   0.007509   37.95  0.002894  (-0.053198 -0.007990  0.000315)
 66:    820.43   0.005413   27.36  0.002059  (-0.040569 -0.019183 -0.006718)
 67:    827.90   0.012677   64.07  0.004779  (-0.017701  0.056804  0.035193)
 68:    836.17   0.010830   54.73  0.004042  ( 0.031793 -0.025282  0.048907)
 69:    842.43   0.011258   56.89  0.004170  (-0.043559 -0.047573 -0.003102)
 70:    858.31   0.000707    3.58  0.000257  (-0.007218 -0.002929  0.014019)
 71:    879.31   0.002862   14.46  0.001016  (-0.008990 -0.017844  0.024827)
 72:    895.26   0.001110    5.61  0.000387  ( 0.005420 -0.013002 -0.013728)
 73:    921.63   0.001884    9.52  0.000638  (-0.007491  0.021049  0.011783)
 74:    941.39   0.000365    1.84  0.000121  ( 0.003061 -0.010376 -0.001964)
 75:    957.24   0.001173    5.93  0.000382  ( 0.007242 -0.000472 -0.018158)
 76:    959.26   0.000658    3.33  0.000214  ( 0.002515  0.009211 -0.011088)
 77:    965.12   0.000241    1.22  0.000078  (-0.006703 -0.003158 -0.004799)
 78:    970.33   0.008019   40.52  0.002579  (-0.021156  0.025168  0.038702)
 79:    990.56   0.008004   40.45  0.002521  ( 0.045876  0.012553 -0.016101)
 80:   1010.73   0.035985  181.85  0.011110  ( 0.101713 -0.023348  0.014824)
 81:   1023.31   0.013857   70.03  0.004226  ( 0.047408  0.026718  0.035560)
 82:   1028.07   0.015639   79.03  0.004747  ( 0.042978 -0.049376 -0.021497)
 83:   1058.45   0.022594  114.18  0.006661  ( 0.072368 -0.030053  0.022829)
 84:   1094.30   0.023089  116.68  0.006584  (-0.025735  0.074637 -0.018746)
 85:   1134.49   0.007217   36.47  0.001985  ( 0.000203  0.016651  0.041325)
 86:   1144.52   0.037634  190.19  0.010261  (-0.054613 -0.079448  0.031094)
 87:   1172.92   0.006100   30.82  0.001623  (-0.032974 -0.013541  0.018767)
 88:   1176.30   0.021685  109.59  0.005753  (-0.064771 -0.004620  0.039195)
 89:   1178.25   0.002759   13.94  0.000731  (-0.023124 -0.012101 -0.007042)
 90:   1187.27   0.007321   37.00  0.001924  ( 0.019594  0.038497 -0.007636)
 91:   1192.08   0.012319   62.25  0.003225  ( 0.049358 -0.001151 -0.028058)
 92:   1203.49   0.006266   31.67  0.001625  (-0.023818 -0.007156 -0.031723)
 93:   1215.90   0.023790  120.23  0.006106  (-0.070181  0.011573  0.032350)
 94:   1220.87   0.078599  397.21  0.020090  ( 0.134426  0.044522 -0.006143)
 95:   1231.76   0.093139  470.69  0.023597  (-0.152649 -0.015001 -0.008375)
 96:   1251.94   0.036726  185.60  0.009154  (-0.093587  0.019435 -0.004271)
 97:   1271.98   0.008066   40.76  0.001979  ( 0.026075 -0.007639  0.035224)
 98:   1288.98   0.020422  103.20  0.004944  (-0.046647 -0.014927 -0.050452)
 99:   1292.42   0.092207  465.98  0.022264  (-0.136096  0.061127  0.002325)
100:   1301.14   0.068243  344.87  0.016367  ( 0.119061  0.019494  0.042564)
101:   1310.13   0.013389   67.66  0.003189  (-0.041027  0.033745  0.019161)
102:   1318.27   0.026611  134.48  0.006299  (-0.060285 -0.050384 -0.011255)
103:   1323.37   0.043295  218.79  0.010209  ( 0.019559  0.068647  0.071515)
104:   1333.13   0.036396  183.93  0.008520  (-0.091202  0.003586  0.013751)
105:   1344.89   0.002508   12.68  0.000582  ( 0.019750 -0.009770 -0.009825)
106:   1361.52   0.045997  232.45  0.010543  ( 0.088133 -0.024243 -0.046769)
107:   1371.56   0.016001   80.86  0.003641  (-0.059520  0.008538  0.005008)
108:   1373.91   0.009598   48.50  0.002180  (-0.019568 -0.042312 -0.002608)
109:   1384.75   0.028018  141.59  0.006314  (-0.069488 -0.021595 -0.031922)
110:   1449.91   0.006169   31.18  0.001328  (-0.011406 -0.032894 -0.010757)
111:   1465.73   0.036224  183.06  0.007712  (-0.044574 -0.075622 -0.002597)
112:   1468.34   0.001169    5.91  0.000248  ( 0.009580  0.001529  0.012425)
113:   1482.41   0.002549   12.88  0.000537  ( 0.011688 -0.019779 -0.002981)
114:   1484.58   0.002751   13.90  0.000578  ( 0.013113  0.017110 -0.010656)
115:   1486.96   0.004005   20.24  0.000840  (-0.024234 -0.007680  0.013935)
116:   1488.79   0.004127   20.86  0.000865  (-0.011576 -0.014561 -0.022781)
117:   1493.57   0.003600   18.19  0.000752  ( 0.002120  0.020885  0.017648)
118:   1497.58   0.006901   34.87  0.001438  ( 0.032984 -0.002153  0.018585)
119:   1501.65   0.000960    4.85  0.000199  (-0.000812 -0.005172 -0.013115)
120:   1553.95   0.045907  231.99  0.009219  (-0.075702  0.036512  0.046423)
121:   1561.88   0.071662  362.15  0.014318  (-0.102169 -0.045193 -0.042863)
122:   1635.82   0.037426  189.14  0.007140  ( 0.084410 -0.003603 -0.001309)
123:   1656.62   0.032075  162.09  0.006042  (-0.071832  0.029608  0.002354)
124:   1661.86   0.090591  457.81  0.017011  ( 0.048493 -0.063184  0.103283)
125:   1665.08   0.002827   14.28  0.000530  (-0.006027 -0.016131  0.015272)
126:   1678.86   0.067217  339.68  0.012494  (-0.085650 -0.067687  0.024012)
127:   1714.00   0.036461  184.26  0.006638  (-0.072739 -0.036542 -0.003474)
128:   1717.12   0.015310   77.37  0.002782  ( 0.044392 -0.027033 -0.008995)
129:   1741.78   0.275297  1391.24  0.049323  (-0.151318 -0.114000  0.115887)
130:   1768.57   0.013329   67.36  0.002352  ( 0.031017  0.019588 -0.031721)
131:   3043.72   0.013719   69.33  0.001407  ( 0.025708 -0.025914  0.008610)
132:   3063.89   0.009204   46.51  0.000937  ( 0.020023 -0.016918  0.015821)
133:   3105.48   0.000349    1.76  0.000035  (-0.000150 -0.004645 -0.003671)
134:   3118.09   0.010046   50.77  0.001005  (-0.023172 -0.021630  0.000771)
135:   3143.66   0.006857   34.65  0.000681  ( 0.022074  0.005797 -0.012642)
136:   3161.27   0.002215   11.19  0.000219  ( 0.013966  0.003975 -0.002789)
137:   3162.76   0.008191   41.39  0.000808  ( 0.005388  0.002901  0.027762)
138:   3180.14   0.006064   30.64  0.000595  ( 0.003915 -0.021039 -0.011707)
139:   3180.21   0.000690    3.49  0.000068  ( 0.007936  0.001929  0.001007)
140:   3181.79   0.002898   14.64  0.000284  (-0.012970 -0.010768  0.000210)
141:   3184.20   0.001452    7.34  0.000142  (-0.008200  0.007182 -0.004849)
142:   3187.40   0.001575    7.96  0.000154  (-0.007666 -0.002249 -0.009508)
143:   3191.36   0.000127    0.64  0.000012  ( 0.000297  0.003013  0.001806)
144:   3194.68   0.001816    9.18  0.000177  ( 0.012578 -0.001569 -0.004090)
145:   3198.62   0.002821   14.26  0.000275  ( 0.001253  0.006180 -0.015345)
146:   3205.56   0.001185    5.99  0.000115  (-0.002706  0.002693 -0.010038)
147:   3211.07   0.000842    4.25  0.000082  (-0.001812 -0.008671  0.001830)
148:   3803.35   0.044515  224.96  0.003652  ( 0.049484  0.027600 -0.021024)
149:   3807.04   0.038252  193.31  0.003136  (-0.038731 -0.033557  0.022569)

* The epsilon (eps) is given for a Dirac delta lineshape.
** The dipole moment derivative (T) already includes vibrational overlap.

The first frequency considered to be a vibration is 7
The total number of vibrations considered is 143


--------------------------
THERMOCHEMISTRY AT 298.15K
--------------------------

Temperature         ... 298.15 K
Pressure            ... 1.00 atm
Total Mass          ... 414.39 AMU

Throughout the following assumptions are being made:
  (1) The electronic state is orbitally nondegenerate
      but the spin degeneracy is treated
  (2) There are no thermally accessible electronically excited states
  (3) Hindered rotations indicated by low frequency modes are not
      treated as such but are treated as vibrations and this may
      cause some error
  (4) All equations used are the standard statistical mechanics
      equations for an ideal gas
  (5) All vibrations are strictly harmonic

freq.      12.24  E(vib)   ...       0.58 
freq.      20.40  E(vib)   ...       0.56 
freq.      27.08  E(vib)   ...       0.55 
freq.      37.31  E(vib)   ...       0.54 
freq.      50.57  E(vib)   ...       0.52 
freq.      59.20  E(vib)   ...       0.51 
freq.      67.74  E(vib)   ...       0.50 
freq.      78.51  E(vib)   ...       0.49 
freq.      85.15  E(vib)   ...       0.48 
freq.      87.44  E(vib)   ...       0.48 
freq.     108.13  E(vib)   ...       0.45 
freq.     117.27  E(vib)   ...       0.44 
freq.     121.28  E(vib)   ...       0.44 
freq.     138.70  E(vib)   ...       0.42 
freq.     153.94  E(vib)   ...       0.40 
freq.     160.36  E(vib)   ...       0.39 
freq.     161.44  E(vib)   ...       0.39 
freq.     173.34  E(vib)   ...       0.38 
freq.     182.74  E(vib)   ...       0.37 
freq.     184.43  E(vib)   ...       0.37 
freq.     199.64  E(vib)   ...       0.35 
freq.     221.52  E(vib)   ...       0.33 
freq.     230.04  E(vib)   ...       0.32 
freq.     253.29  E(vib)   ...       0.30 
freq.     279.36  E(vib)   ...       0.28 
freq.     301.16  E(vib)   ...       0.26 
freq.     305.87  E(vib)   ...       0.26 
freq.     317.42  E(vib)   ...       0.25 
freq.     327.51  E(vib)   ...       0.24 
freq.     341.58  E(vib)   ...       0.23 
freq.     384.78  E(vib)   ...       0.20 
freq.     389.92  E(vib)   ...       0.20 
freq.     404.07  E(vib)   ...       0.19 
freq.     413.48  E(vib)   ...       0.19 
freq.     417.12  E(vib)   ...       0.18 
freq.     430.23  E(vib)   ...       0.18 
freq.     443.23  E(vib)   ...       0.17 
freq.     461.25  E(vib)   ...       0.16 
freq.     471.55  E(vib)   ...       0.15 
freq.     479.25  E(vib)   ...       0.15 
freq.     486.30  E(vib)   ...       0.15 
freq.     504.09  E(vib)   ...       0.14 
freq.     528.66  E(vib)   ...       0.13 
freq.     538.84  E(vib)   ...       0.12 
freq.     567.42  E(vib)   ...       0.11 
freq.     575.73  E(vib)   ...       0.11 
freq.     579.34  E(vib)   ...       0.11 
freq.     597.07  E(vib)   ...       0.10 
freq.     615.51  E(vib)   ...       0.10 
freq.     618.96  E(vib)   ...       0.09 
freq.     624.00  E(vib)   ...       0.09 
freq.     660.17  E(vib)   ...       0.08 
freq.     690.79  E(vib)   ...       0.07 
freq.     727.29  E(vib)   ...       0.06 
freq.     732.27  E(vib)   ...       0.06 
freq.     750.67  E(vib)   ...       0.06 
freq.     769.60  E(vib)   ...       0.05 
freq.     772.86  E(vib)   ...       0.05 
freq.     809.76  E(vib)   ...       0.05 
freq.     820.43  E(vib)   ...       0.05 
freq.     827.90  E(vib)   ...       0.04 
freq.     836.17  E(vib)   ...       0.04 
freq.     842.43  E(vib)   ...       0.04 
freq.     858.31  E(vib)   ...       0.04 
freq.     879.31  E(vib)   ...       0.04 
freq.     895.26  E(vib)   ...       0.03 
freq.     921.63  E(vib)   ...       0.03 
freq.     941.39  E(vib)   ...       0.03 
freq.     957.24  E(vib)   ...       0.03 
freq.     959.26  E(vib)   ...       0.03 
freq.     965.12  E(vib)   ...       0.03 
freq.     970.33  E(vib)   ...       0.03 
freq.     990.56  E(vib)   ...       0.02 
freq.    1010.73  E(vib)   ...       0.02 
freq.    1023.31  E(vib)   ...       0.02 
freq.    1028.07  E(vib)   ...       0.02 
freq.    1058.45  E(vib)   ...       0.02 
freq.    1094.30  E(vib)   ...       0.02 
freq.    1134.49  E(vib)   ...       0.01 
freq.    1144.52  E(vib)   ...       0.01 
freq.    1172.92  E(vib)   ...       0.01 
freq.    1176.30  E(vib)   ...       0.01 
freq.    1178.25  E(vib)   ...       0.01 
freq.    1187.27  E(vib)   ...       0.01 
freq.    1192.08  E(vib)   ...       0.01 
freq.    1203.49  E(vib)   ...       0.01 
freq.    1215.90  E(vib)   ...       0.01 
freq.    1220.87  E(vib)   ...       0.01 
freq.    1231.76  E(vib)   ...       0.01 
freq.    1251.94  E(vib)   ...       0.01 
freq.    1271.98  E(vib)   ...       0.01 
freq.    1288.98  E(vib)   ...       0.01 
freq.    1292.42  E(vib)   ...       0.01 
freq.    1301.14  E(vib)   ...       0.01 
freq.    1310.13  E(vib)   ...       0.01 
freq.    1318.27  E(vib)   ...       0.01 
freq.    1323.37  E(vib)   ...       0.01 
freq.    1333.13  E(vib)   ...       0.01 
freq.    1344.89  E(vib)   ...       0.01 
freq.    1361.52  E(vib)   ...       0.01 
freq.    1371.56  E(vib)   ...       0.01 
freq.    1373.91  E(vib)   ...       0.01 
freq.    1384.75  E(vib)   ...       0.00 
freq.    1449.91  E(vib)   ...       0.00 
freq.    1465.73  E(vib)   ...       0.00 
freq.    1468.34  E(vib)   ...       0.00 
freq.    1482.41  E(vib)   ...       0.00 
freq.    1484.58  E(vib)   ...       0.00 
freq.    1486.96  E(vib)   ...       0.00 
freq.    1488.79  E(vib)   ...       0.00 
freq.    1493.57  E(vib)   ...       0.00 
freq.    1497.58  E(vib)   ...       0.00 
freq.    1501.65  E(vib)   ...       0.00 
freq.    1553.95  E(vib)   ...       0.00 
freq.    1561.88  E(vib)   ...       0.00 
freq.    1635.82  E(vib)   ...       0.00 
freq.    1656.62  E(vib)   ...       0.00 
freq.    1661.86  E(vib)   ...       0.00 
freq.    1665.08  E(vib)   ...       0.00 
freq.    1678.86  E(vib)   ...       0.00 
freq.    1714.00  E(vib)   ...       0.00 
freq.    1717.12  E(vib)   ...       0.00 
freq.    1741.78  E(vib)   ...       0.00 
freq.    1768.57  E(vib)   ...       0.00 
freq.    3043.72  E(vib)   ...       0.00 
freq.    3063.89  E(vib)   ...       0.00 
freq.    3105.48  E(vib)   ...       0.00 
freq.    3118.09  E(vib)   ...       0.00 
freq.    3143.66  E(vib)   ...       0.00 
freq.    3161.27  E(vib)   ...       0.00 
freq.    3162.76  E(vib)   ...       0.00 
freq.    3180.14  E(vib)   ...       0.00 
freq.    3180.21  E(vib)   ...       0.00 
freq.    3181.79  E(vib)   ...       0.00 
freq.    3184.20  E(vib)   ...       0.00 
freq.    3187.40  E(vib)   ...       0.00 
freq.    3191.36  E(vib)   ...       0.00 
freq.    3194.68  E(vib)   ...       0.00 
freq.    3198.62  E(vib)   ...       0.00 
freq.    3205.56  E(vib)   ...       0.00 
freq.    3211.07  E(vib)   ...       0.00 
freq.    3803.35  E(vib)   ...       0.00 
freq.    3807.04  E(vib)   ...       0.00 

------------
INNER ENERGY
------------

The inner energy is: U= E(el) + E(ZPE) + E(vib) + E(rot) + E(trans)
    E(el)   - is the total energy from the electronic structure calculation
              = E(kin-el) + E(nuc-el) + E(el-el) + E(nuc-nuc)
    E(ZPE)  - the the zero temperature vibrational energy from the frequency calculation
    E(vib)  - the the finite temperature correction to E(ZPE) due to population
              of excited vibrational states
    E(rot)  - is the rotational thermal energy
    E(trans)- is the translational thermal energy

Summary of contributions to the inner energy U:
Electronic energy                ...  -1468.42248185 Eh
Zero point energy                ...      0.37638577 Eh     236.19 kcal/mol
Thermal vibrational correction   ...      0.02622121 Eh      16.45 kcal/mol
Thermal rotational correction    ...      0.00141627 Eh       0.89 kcal/mol
Thermal translational correction ...      0.00141627 Eh       0.89 kcal/mol
-----------------------------------------------------------------------
Total thermal energy                  -1468.01704232 Eh


Summary of corrections to the electronic energy:
(perhaps to be used in another calculation)
Total thermal correction                  0.02905375 Eh      18.23 kcal/mol
Non-thermal (ZPE) correction              0.37638577 Eh     236.19 kcal/mol
-----------------------------------------------------------------------
Total correction                          0.40543953 Eh     254.42 kcal/mol


--------
ENTHALPY
--------

The enthalpy is H = U + kB*T
                kB is Boltzmann's constant
Total free energy                 ...  -1468.01704232 Eh 
Thermal Enthalpy correction       ...      0.00094421 Eh       0.59 kcal/mol
-----------------------------------------------------------------------
Total Enthalpy                    ...  -1468.01609812 Eh


Note: Only C1 symmetry has been detected, increase convergence thresholds 
      if your molecule has a higher symmetry. Symmetry factor of 1.0 is   
      used for the rotational entropy correction. 
 

Note: Rotational entropy computed according to Herzberg 
Infrared and Raman Spectra, Chapter V,1, Van Nostrand Reinhold, 1945 
Point Group:  C1, Symmetry Number:   1  
Rotational constants in cm-1:     0.011314     0.001659     0.001610 

Vibrational entropy computed according to the QRRHO of S. Grimme
Chem.Eur.J. 2012 18 9955


-------
ENTROPY
-------

The entropy contributions are T*S = T*(S(el)+S(vib)+S(rot)+S(trans))
     S(el)   - electronic entropy
     S(vib)  - vibrational entropy
     S(rot)  - rotational entropy
     S(trans)- translational entropy
The entropies will be listed as multiplied by the temperature to get
units of energy

Electronic entropy                ...      0.00065446 Eh      0.41 kcal/mol
Vibrational entropy               ...      0.04747557 Eh     29.79 kcal/mol
Rotational entropy                ...      0.01768482 Eh     11.10 kcal/mol
Translational entropy             ...      0.02088467 Eh     13.11 kcal/mol
-----------------------------------------------------------------------
Final entropy term                ...      0.08669951 Eh     54.40 kcal/mol

In case the symmetry of your molecule has not been determined correctly
or in case you have a reason to use a different symmetry number we print 
out the resulting rotational entropy values for sn=1,12 :
 --------------------------------------------------------
|  sn= 1 | S(rot)=       0.01768482 Eh     11.10 kcal/mol|
|  sn= 2 | S(rot)=       0.01703037 Eh     10.69 kcal/mol|
|  sn= 3 | S(rot)=       0.01664754 Eh     10.45 kcal/mol|
|  sn= 4 | S(rot)=       0.01637591 Eh     10.28 kcal/mol|
|  sn= 5 | S(rot)=       0.01616522 Eh     10.14 kcal/mol|
|  sn= 6 | S(rot)=       0.01599308 Eh     10.04 kcal/mol|
|  sn= 7 | S(rot)=       0.01584753 Eh      9.94 kcal/mol|
|  sn= 8 | S(rot)=       0.01572146 Eh      9.87 kcal/mol|
|  sn= 9 | S(rot)=       0.01561025 Eh      9.80 kcal/mol|
|  sn=10 | S(rot)=       0.01551077 Eh      9.73 kcal/mol|
|  sn=11 | S(rot)=       0.01542078 Eh      9.68 kcal/mol|
|  sn=12 | S(rot)=       0.01533862 Eh      9.63 kcal/mol|
 --------------------------------------------------------


-------------------
GIBBS FREE ENERGY
-------------------

The Gibbs free energy is G = H - T*S

Total enthalpy                    ...  -1468.01609812 Eh 
Total entropy correction          ...     -0.08669951 Eh    -54.40 kcal/mol
-----------------------------------------------------------------------
Final Gibbs free energy         ...  -1468.10279763 Eh

For completeness - the Gibbs free energy minus the electronic energy
G-E(el)                           ...      0.31968422 Eh    200.60 kcal/mol



Timings for individual modules:

Sum of individual times         ...   252108.886 sec (=4201.815 min)
GTO integral calculation        ...      193.255 sec (=   3.221 min)   0.1 %
SCF iterations                  ...    24059.857 sec (= 400.998 min)   9.5 %
SCF Gradient evaluation         ...     3547.711 sec (=  59.129 min)   1.4 %
Geometry relaxation             ...        6.176 sec (=   0.103 min)   0.0 %
Numerical frequency calculation ...   224301.886 sec (=3738.365 min)  89.0 %
                             ****ORCA TERMINATED NORMALLY****
TOTAL RUN TIME: 2 days 21 hours 55 minutes 21 seconds 885 msec
