
                                 *****************
                                 * O   R   C   A *
                                 *****************

                                            #,                                       
                                            ###                                      
                                            ####                                     
                                            #####                                    
                                            ######                                   
                                           ########,                                 
                                     ,,################,,,,,                         
                               ,,#################################,,                 
                          ,,##########################################,,             
                       ,#########################################, ''#####,          
                    ,#############################################,,   '####,        
                  ,##################################################,,,,####,       
                ,###########''''           ''''###############################       
              ,#####''   ,,,,##########,,,,          '''####'''          '####       
            ,##' ,,,,###########################,,,                        '##       
           ' ,,###''''                  '''############,,,                           
         ,,##''                                '''############,,,,        ,,,,,,###''
      ,#''                                            '''#######################'''  
     '                                                          ''''####''''         
             ,#######,   #######,   ,#######,      ##                                
            ,#'     '#,  ##    ##  ,#'     '#,    #''#        ,####,   ,####,        
            ##       ##  ##   ,#'  ##            #'  '#       #'       #'  '#        
            ##       ##  #######   ##           ,######,      #####,   #    #        
            '#,     ,#'  ##    ##  '#,     ,#' ,#      #,     #,   #   #,  ,#        
             '#######'   ##     ##  '#######'  #'      '#     '####' # '####'        



                #########################################################
                #                        -***-                          #
                #          Department of theory and spectroscopy        #
                #                                                       #
                #                      Frank Neese                      #
                #                                                       #
                #     Directorship, Architecture, Infrastructure        #
                #                    SHARK, DRIVERS                     #
                #        Core code/Algorithms in most modules           #
                #                                                       #
                #        Max Planck Institute fuer Kohlenforschung      #
                #                Kaiser Wilhelm Platz 1                 #
                #                 D-45470 Muelheim/Ruhr                 #
                #                      Germany                          #
                #                                                       #
                #                  All rights reserved                  #
                #                        -***-                          #
                #########################################################


                         Program Version 6.0.0  -   RELEASE  -


 With contributions from (in alphabetic order):
   Daniel Aravena         : Magnetic Suceptibility
   Michael Atanasov       : Ab Initio Ligand Field Theory (pilot matlab implementation)
   Alexander A. Auer      : GIAO ZORA, VPT2 properties, NMR spectrum
   Ute Becker             : All parallelization in ORCA, NUMFREQ, NUMCALC
   Giovanni Bistoni       : ED, misc. LED, open-shell LED, HFLD
   Martin Brehm           : Molecular dynamics
   Dmytro Bykov           : pre 5.0 version of the SCF Hessian
   Marcos Casanova-Páez   : Triplet and SCS-CIS(D). UHF-(DLPNO)-IP/EA/STEOM-CCSD. UHF-CVS-IP/STEOM-CCSD
   Vijay G. Chilkuri      : MRCI spin determinant printing, contributions to CSF-ICE
   Pauline Colinet        : FMM embedding
   Dipayan Datta          : RHF DLPNO-CCSD density
   Achintya Kumar Dutta   : EOM-CC, STEOM-CC
   Nicolas Foglia         : Exact transition moments, OPA infrastructure, MCD improvements
   Dmitry Ganyushin       : Spin-Orbit,Spin-Spin,Magnetic field MRCI
   Miquel Garcia          : C-PCM and meta-GGA Hessian, CCSD/C-PCM, Gaussian charge scheme
   Tiago L. C. Gouveia    : GS-ROHF, GS-ROCIS
   Yang Guo               : DLPNO-NEVPT2, F12-NEVPT2, CIM, IAO-localization
   Andreas Hansen         : Spin unrestricted coupled pair/coupled cluster methods
   Ingolf Harden          : AUTO-CI MPn and infrastructure 
   Benjamin Helmich-Paris : MC-RPA, TRAH-(SCF,CASSCF), AVAS, COSX integrals, SCF dyn. polar.
   Lee Huntington         : MR-EOM, pCC
   Robert Izsak           : Overlap fitted RIJCOSX, COSX-SCS-MP3, EOM
   Riya Kayal             : Wick's Theorem for AUTO-CI, AUTO-CI UHF-CCSDT
   Emily Kempfer          : AUTO-CI, RHF CISDT and CCSDT
   Christian Kollmar      : KDIIS, OOCD, Brueckner-CCSD(T), CCSD density, CASPT2, CASPT2-K, improved NEVPT2
   Axel Koslowski         : Symmetry handling
   Simone Kossmann        : Meta GGA functionals, TD-DFT gradient, OOMP2, (MP2 Hessian; deprecated post 5.0)
   Lucas Lang             : DCDCAS
   Marvin Lechner         : AUTO-CI (C++ implementation), FIC-MRCC
   Spencer Leger          : CASSCF response
   Dagmar Lenk            : GEPOL surface, SMD, ORCA-2-JSON
   Dimitrios Liakos       : Extrapolation schemes; Compound Job, initial MDCI parallelization
   Dimitrios Manganas     : Further ROCIS development; embedding schemes. LFT, Crystal Embedding
   Dimitrios Pantazis     : SARC Basis sets
   Anastasios Papadopoulos: AUTO-CI, single reference methods and gradients
   Taras Petrenko         : pre 6.0 DFT Hessian and TD-DFT gradient, (ASA, deprecated), ECA, 1-Electron XAS/XES, NRVS
   Peter Pinski           : DLPNO-MP2, DLPNO-MP2 Gradient
   Christoph Reimann      : Effective Core Potentials
   Marius Retegan         : Local ZFS, SOC
   Christoph Riplinger    : Optimizer, TS searches, QM/MM, DLPNO-CCSD(T), (RO)-DLPNO pert. Triples
   Michael Roemelt        : Original ROCIS implementation
   Masaaki Saitow         : Open-shell DLPNO-CCSD energy and density
   Barbara Sandhoefer     : DKH picture change effects
   Kantharuban Sivalingam : CASSCF convergence/infrastructure, NEVPT2 and variants, FIC-MRCI
   Bernardo de Souza      : ESD, SOC TD-DFT
   Georgi Stoychev        : AutoAux, RI-MP2 NMR, DLPNO-MP2 response, X2C
   Van Anh Tran           : RI-MP2 g-tensors
   Willem Van den Heuvel  : Paramagnetic NMR
   Zikuan Wang            : NOTCH, Electric field optimization 
   Frank Wennmohs         : Technical directorship and infrastructure
   Hang Xu                : AUTO-CI-Response properties 


 We gratefully acknowledge several colleagues who have allowed us to
 interface, adapt or use parts of their codes:
   Stefan Grimme, W. Hujo, H. Kruse, P. Pracht,  : VdW corrections, initial TS optimization,
                  C. Bannwarth, S. Ehlert,         DFT functionals, gCP, sTDA/sTD-DF
                  L. Wittmann, M. Mueller
   Ed Valeev, F. Pavosevic, A. Kumar             : LibInt (2-el integral package), F12 methods
   Garnet Chan, S. Sharma, J. Yang, R. Olivares  : DMRG
   Ulf Ekstrom                                   : XCFun DFT Library
   Mihaly Kallay                                 : mrcc  (arbitrary order and MRCC methods)
   Frank Weinhold                                : gennbo (NPA and NBO analysis)
   Simon Mueller                                 : openCOSMO-RS
   Christopher J. Cramer and Donald G. Truhlar   : smd solvation model
   Lars Goerigk                                  : TD-DFT with DH, B97 family of functionals
   V. Asgeirsson, H. Jonsson                     : NEB implementation
   FAccTs GmbH                                   : IRC, NEB, NEB-TS, DLPNO-Multilevel, CI-OPT
                                                   MM, QMMM, 2- and 3-layer-ONIOM, Crystal-QMMM,
                                                   LR-CPCM, SF, NACMEs, symmetry and pop. for TD-DFT,
                                                   nearIR, NL-DFT gradient (VV10), updates on ESD,
                                                   ML-optimized integration grids, MBIS, APM,
                                                   GOAT, DOCKER, SOLVATOR, interface openCOSMO-RS
   S Lehtola, MJT Oliveira, MAL Marques          : LibXC Library
   Liviu Ungur et al                             : ANISO software


 Your calculation uses the libint2 library for the computation of 2-el integrals
 For citations please refer to: http://libint.valeyev.net

 Your ORCA version has been built with support for libXC version: 6.2.2
 For citations please refer to: https://libxc.gitlab.io

 This ORCA versions uses:
   CBLAS   interface :  Fast vector & matrix operations
   LAPACKE interface :  Fast linear algebra routines
   SCALAPACK package :  Parallel linear algebra routines
   Shared memory     :  Shared parallel matrices
   BLAS/LAPACK       :  OpenBLAS 0.3.27  USE64BITINT DYNAMIC_ARCH NO_AFFINITY Cooperlake SINGLE_THREADED
        Core in use  :  Cooperlake
   Copyright (c) 2011-2014, The OpenBLAS Project


NOTE: MaxCore=2000 MB was set to SCF,MP2,MDCI,CIPSI,MRCI and CIS
      => If you want to overwrite this, your respective input block should be placed after the MaxCore statement
Your calculation utilizes the DFT-NL dispersion correction.
Cite in your paper:
Vydrov, O. A.; Van Voorhis, T. J. Chem. Phys. 2010, 133, 244103
Hujo, W.; Grimme, S. J. Chem. Theory Comput. 2011, 7, 3866 
   

Warning: RI is on but no J-basis has been assigned. Assigning Def2/J (nothing to worry about!)
================================================================================

----- Orbital basis set information -----
Your calculation utilizes the basis: 6-311+G(d)
   H, Li - Ne  : R. Krishnan, J. S. Binkley, R. Seeger and J. A. Pople, J. Chem. Phys. 72, 650 (1980).
   Na - Ar     : A. D. McLean and G. S. Chandler J. Chem. Phys. 72, 5639, (1980).
   K  - Ca     : J.-P. Blaudeau, M. P. McGrath, L. A. Curtiss and L. Radom, J. Chem. Phys. 107, 5016 (1997).
   Ga - Kr     : L. A. Curtiss, M. P. McGrath, J.-P. Blandeau, N. E. Davis, R. C. Binning and L. Radom, J. Chem. Phys. 103, 6104 (1995).
   Pol./Diff.
   H, Li - Cl  : T. Clark, J. Chandrasekhar and P. v. R. Schleyer, J. Comp. Chem. 4, 294 (1983).
   H - Ne      : M. J. Frisch, J. A. Pople and J. S. Binkley, J. Chem. Phys. 80, 3265 (1984).

----- AuxJ basis set information -----
Your calculation utilizes the auxiliary basis: def2/J
   F. Weigend, Phys. Chem. Chem. Phys. 8, 1057 (2006).

================================================================================
                                        WARNINGS
                       Please study these warnings very carefully!
================================================================================

Using LibXC functional ID 531 : wB97M-V exchange-correlation functional
[ 1]  N. Mardirossian and M. Head-Gordon.,  J. Chem. Phys. 144, 214110 (2016)
Using LibXC functional ID 531 : wB97M-V exchange-correlation functional
[ 1]  N. Mardirossian and M. Head-Gordon.,  J. Chem. Phys. 144, 214110 (2016)

WARNING: B97M-V or wB97M-V functional requested.
  ===> : libXC variant has now been activated.
         Any manually given DFX/HFX/RangeSep scaling parameters are IGNORED!

Your calculation utilizes LibXC
 by S Lehtola, C Steigemann, MJT Oliveira & MAL Marques
Please cite in your paper:
 S Lehtola, C Steigemann, MJT Oliveira & MAL Marques, SoftwareX, 7, (2018), 1.
   


WARNING: your system is open-shell and RHF/RKS was chosen
  ===> : WILL SWITCH to UHF/UKS


WARNING: Geometry Optimization
  ===> : Switching off AutoStart
         For restart on a previous wavefunction, please use MOREAD

WARNING: Analytic gradients for DFT-NL dispersion can only be done using the self-consistent method,
  ===>   Switching to SCNL

WARNING: Self-consistent DFT-NL dispersion not compatible with AutoTRAH.
  ===>   Switching AutoTRAH off


================================================================================
                                       INPUT FILE
================================================================================
NAME = CURCUMIN-OPT-FREQ-Prod-1-wB97XM-V-6-311+G-D-363.inp
|  1> #
|  2> ! Opt NumFreq wb97M-V 6-311+G(d) CPCM RIJDX
|  3> %maxcore 2000
|  4> %cpcm
|  5> epsilon 7 # Dielectric constant
|  6> refrac 1.85341 # Refractive index
|  7> end
|  8> %FREQ temp 363.15 #temperature is 363.15K
|  9> end
| 10> 
| 11> * xyz 0 2
| 12>   C   1.86873725086433      1.48587758242765      1.56127220049713
| 13>   H   1.70613718104801      2.54912977829024      1.71678707406630
| 14>   C   1.16600865437978      0.58698587568159      2.25874401725608
| 15>   H   1.36624609716545     -0.47910250399434      2.18854073718478
| 16>   C   0.09499012048174      0.94488175880565      3.21464387872287
| 17>   O   -0.30689651209913      0.11914864781773      4.01552046196525
| 18>   C   2.92372514271669      1.15283184811599      0.58923279783151
| 19>   C   4.08987077271385      1.91628518068314      0.53836936502696
| 20>   C   2.84871096677033      0.07869838636900     -0.29924496634116
| 21>   C   5.12545815867193      1.60396042511797     -0.33192181445949
| 22>   H   4.19141671664867      2.76528081519629      1.20577629358133
| 23>   C   3.85596338785582     -0.25988500439012     -1.18945365055545
| 24>   H   4.77966123291566     -1.55794318477504      2.82866535113829
| 25>   C   5.01942350888995      0.52228475319739     -1.19986196314978
| 26>   H   6.02337924978841      2.21413388510213     -0.35226926895336
| 27>   O   5.97219137365276      0.17975756412378     -2.09916196243813
| 28>   H   6.72462645575914      0.78338503076290     -2.05048890034221
| 29>   O   3.65950217348872     -1.26287111373128     -2.08944074618259
| 30>   C   4.40295153734615     -2.46316566833476     -1.79844725567987
| 31>   H   4.09155229390120     -2.86477277323883     -0.83229766164868
| 32>   H   4.15659679027908     -3.16634279964180     -2.59042073814511
| 33>   H   5.47418538398498     -2.25885543518635     -1.80060160106519
| 34>   C   -2.51335826188884      0.92181774630993      1.48056989679469
| 35>   H   -2.39068873672159      0.65909664288843      2.52891322262120
| 36>   C   -1.85576817193484      1.98495496087584      0.99118354965306
| 37>   H   -1.97471942572601      2.31180004709742     -0.03778420983182
| 38>   C   -0.93590311646287      2.81167541160679      1.78529393821081
| 39>   O   -0.50603043687800      3.86428172533898      1.33769098486286
| 40>   C   -3.42612818189808      0.04533968713070      0.74277319779426
| 41>   C   -4.09703919604803     -0.96461520574300      1.43628154786176
| 42>   C   -3.65077167609937      0.16965740650448     -0.63642404831132
| 43>   C   -4.96827257327400     -1.82684012376878      0.78181450644137
| 44>   H   -3.93366399125212     -1.08208236523447      2.50313120664485
| 45>   C   -4.51337073833516     -0.68319682155989     -1.29619729868071
| 46>   H   -3.14727233552909      0.92786049891550     -1.22729669387390
| 47>   C   -5.18035667836947     -1.69609697382270     -0.58617114190179
| 48>   H   -5.47993769808642     -2.61324223765019      1.32941166027420
| 49>   O   -6.00123076248845     -2.51344543748207     -1.29502651019957
| 50>   H   -6.40673858808621     -3.17025811974728     -0.71491113895742
| 51>   O   -4.67733348712315     -0.57399663188127     -2.65594160393694
| 52>   C   -5.91574397830413      0.04299912601661     -3.03065090552228
| 53>   H   -5.95851486838341      1.06582260695067     -2.64560414129558
| 54>   H   -5.93586906018215      0.05928909328581     -4.11862023392185
| 55>   H   -6.76527515061422     -0.53134776448567     -2.65557650884322
| 56>   C   -0.50389159178790      2.34369483535683      3.17272189692409
| 57>   H   -1.35697585787150      2.35644225755838      3.85561917096861
| 58>   H   0.23200578236957      3.06303138583669      3.54263120368933
| 59>   O   1.68159143528035     -1.89552573902881     -0.04570005314388
| 60>   O   0.61763629938270     -0.18435826001354     -0.81502768401492
| 61>   N   1.61745910908889     -0.73090079965434     -0.39245645861536
| 62> *
| 63> 
| 64> 
| 65>                          ****END OF INPUT****
================================================================================

                       *****************************
                       * Geometry Optimization Run *
                       *****************************

Geometry optimization settings:
Update method            Update   .... BFGS
Choice of coordinates    CoordSys .... (2022) Redundant Internals
Initial Hessian          InHess   .... Almloef's Model
Max. no of cycles        MaxIter  .... 150

Convergence Tolerances:
Energy Change            TolE     ....  5.0000e-06 Eh
Max. Gradient            TolMAXG  ....  3.0000e-04 Eh/bohr
RMS Gradient             TolRMSG  ....  1.0000e-04 Eh/bohr
Max. Displacement        TolMAXD  ....  4.0000e-03 bohr
RMS Displacement         TolRMSD  ....  2.0000e-03 bohr
Strict Convergence                .... False

------------------------------------------------------------------------------
                        ORCA OPTIMIZATION COORDINATE SETUP
------------------------------------------------------------------------------

The optimization will be done in redundant internal coordinates (2022)
Making redundant internal coordinates   ...  (2022 redundants) done
Evaluating the initial hessian          ...  (Almloef) done
Evaluating the coordinates              ...  done
Calculating the B-matrix                .... done
Calculating the G-matrix                .... done
Diagonalizing the G-matrix              .... done
Small eigenvalue found = 1.343e-03
Small eigenvalue found = 2.919e-03
Small eigenvalue found = 8.887e-03
Small eigenvalue found = 1.090e-02
Small eigenvalue found = 1.632e-02
Small eigenvalue found = 2.327e-02
The first mode is                       ....  418
The number of degrees of freedom        ....  144

    -----------------------------------------------------------------
                    Redundant Internal Coordinates


    -----------------------------------------------------------------
         Definition                    Initial Value    Approx d2E/dq
    -----------------------------------------------------------------
      1. B(H   1,C   0)                  1.0868         0.364361   
      2. B(C   2,C   0)                  1.3373         0.758333   
      3. B(H   3,C   2)                  1.0870         0.364091   
      4. B(C   4,C   2)                  1.4795         0.449728   
      5. B(O   5,C   4)                  1.2185         1.050720   
      6. B(C   6,C   0)                  1.4727         0.461139   
      7. B(C   7,C   6)                  1.3948         0.613975   
      8. B(C   8,C   6)                  1.3960         0.611202   
      9. B(C   9,C   7)                  1.3883         0.628696   
     10. B(H  10,C   7)                  1.0847         0.367203   
     11. B(C  11,C   8)                  1.3862         0.633481   
     12. B(H  12,C   2)                  4.2408         0.000003   
     13. B(H  12,C  11)                  4.3224         0.000003   
     14. B(H  12,C   7)                  4.2180         0.000004   
     15. B(H  12,H   3)                  3.6366         0.000006   
     16. B(H  12,C   6)                  3.9759         0.000009   
     17. B(H  12,C   0)                  4.3983         0.000002   
     18. B(H  12,C   8)                  4.0238         0.000008   
     19. B(H  12,H  10)                  4.6551         0.000000   
     20. B(H  12,C   9)                  4.4840         0.000001   
     21. B(C  13,H  12)                  4.5402         0.000001   
     22. B(C  13,C  11)                  1.4020         0.597904   
     23. B(C  13,C   9)                  1.3909         0.622748   
     24. B(H  14,C   9)                  1.0858         0.365683   
     25. B(O  15,C  13)                  1.3542         0.638274   
     26. B(H  16,O  15)                  0.9659         0.508875   
     27. B(O  17,C  11)                  1.3618         0.620632   
     28. B(C  18,O  17)                  1.4416         0.463033   
     29. B(H  19,H  12)                  3.9477         0.000002   
     30. B(H  19,C  18)                  1.0917         0.357922   
     31. B(H  20,C  18)                  1.0874         0.363598   
     32. B(H  21,C  18)                  1.0905         0.359379   
     33. B(H  23,C  22)                  1.0877         0.363154   
     34. B(C  24,C  22)                  1.3425         0.744036   
     35. B(H  25,C  24)                  1.0862         0.365211   
     36. B(C  26,C  24)                  1.4698         0.466087   
     37. B(O  27,C  26)                  1.2219         1.037568   
     38. B(C  28,C  22)                  1.4648         0.474639   
     39. B(C  29,C  28)                  1.3968         0.609355   
     40. B(C  30,C  28)                  1.4029         0.595897   
     41. B(C  31,C  29)                  1.3895         0.625865   
     42. B(H  32,C  29)                  1.0857         0.365887   
     43. B(C  33,C  30)                  1.3808         0.646162   
     44. B(H  34,C  30)                  1.0851         0.366596   
     45. B(C  35,C  33)                  1.4053         0.590566   
     46. B(C  35,C  31)                  1.3905         0.623676   
     47. B(H  36,C  31)                  1.0863         0.365001   
     48. B(O  37,C  35)                  1.3581         0.629230   
     49. B(H  38,O  37)                  0.9656         0.509378   
     50. B(O  39,C  33)                  1.3739         0.593604   
     51. B(C  40,O  39)                  1.4334         0.477056   
     52. B(H  41,C  40)                  1.0937         0.355192   
     53. B(H  42,C  40)                  1.0883         0.362386   
     54. B(H  43,C  40)                  1.0919         0.357588   
     55. B(C  44,C  26)                  1.5266         0.378230   
     56. B(C  44,C   4)                  1.5222         0.384433   
     57. B(H  45,C  44)                  1.0928         0.356384   
     58. B(H  46,C  44)                  1.0935         0.355451   
     59. B(O  47,H  12)                  4.2396         0.000003   
     60. B(O  48,H  34)                  3.9473         0.000009   
     61. B(N  49,H  12)                  4.5890         0.000001   
     62. B(N  49,O  48)                  1.2153         0.952263   
     63. B(N  49,O  47)                  1.2168         0.946837   
     64. B(N  49,C   8)                  1.4765         0.407224   
     65. A(C   6,C   0,H  12)           63.8686         0.104766   
     66. A(C   2,C   0,H  12)           74.4733         0.106645   
     67. A(H   1,C   0,C   6)          115.0165         0.336464   
     68. A(C   2,C   0,C   6)          124.6591         0.426755   
     69. A(H   1,C   0,C   2)          120.2893         0.365954   
     70. A(H   1,C   0,H  12)          137.2942         0.101928   
     71. A(C   0,C   2,H  12)           87.8389         0.109114   
     72. A(H   3,C   2,C   4)          114.3513         0.335024   
     73. A(C   0,C   2,H   3)          121.9220         0.365908   
     74. A(C   0,C   2,C   4)          123.6959         0.424845   
     75. A(H   3,C   2,H  12)           49.8830         0.103734   
     76. A(C   4,C   2,H  12)          130.7214         0.106870   
     77. A(C   2,H   3,H  12)          116.9035         0.102393   
     78. A(C   2,C   4,O   5)          119.9660         0.447596   
     79. A(C   2,C   4,C  44)          119.2952         0.376979   
     80. A(O   5,C   4,C  44)          120.7352         0.435087   
     81. A(C   7,C   6,C   8)          116.2885         0.432192   
     82. A(C   8,C   6,H  12)           81.8919         0.112874   
     83. A(C   7,C   6,H  12)           90.1980         0.112899   
     84. A(C   0,C   6,C   8)          123.7523         0.410662   
     85. A(C   0,C   6,H  12)           96.7084         0.111399   
     86. A(C   0,C   6,C   7)          119.9495         0.410991   
     87. A(C   9,C   7,H  10)          119.4700         0.354915   
     88. A(C   6,C   7,H  12)           70.4928         0.108541   
     89. A(C   6,C   7,C   9)          121.5600         0.434391   
     90. A(H  10,C   7,H  12)          107.1748         0.104045   
     91. A(C   9,C   7,H  12)           91.8965         0.108646   
     92. A(C   6,C   7,H  10)          118.9648         0.353493   
     93. A(C  11,C   8,N  49)          115.5592         0.401686   
     94. A(H  12,C   8,N  49)          103.0746         0.109755   
     95. A(C   6,C   8,N  49)          120.4565         0.399162   
     96. A(C  11,C   8,H  12)           92.9328         0.112129   
     97. A(C   6,C   8,C  11)          123.8900         0.434630   
     98. A(C   6,C   8,H  12)           78.0200         0.111942   
     99. A(H  12,C   9,C  13)           83.4298         0.104714   
    100. A(C   7,C   9,H  14)          120.1446         0.354666   
    101. A(C  13,C   9,H  14)          119.2335         0.354095   
    102. A(C   7,C   9,C  13)          120.6150         0.435502   
    103. A(C   7,C   9,H  12)           70.0779         0.104748   
    104. A(H  12,C   9,H  14)          118.2448         0.101048   
    105. A(C   7,H  10,H  12)           59.9623         0.094753   
    106. A(C   8,C  11,H  12)           68.3868         0.107043   
    107. A(H  12,C  11,O  17)          115.0870         0.106812   
    108. A(C  13,C  11,O  17)          121.7163         0.428505   
    109. A(H  12,C  11,C  13)           89.8340         0.106809   
    110. A(C   8,C  11,O  17)          119.9642         0.432976   
    111. A(C   8,C  11,C  13)          118.1312         0.432914   
    112. A(C   9,H  12,N  49)           55.3408         0.089631   
    113. A(C   2,H  12,H  10)           51.3721         0.089417   
    114. A(C   0,H  12,N  49)           38.4598         0.089678   
    115. A(H   3,H  12,C  11)           63.0444         0.089909   
    116. A(C   2,H  12,C   8)           44.0187         0.090282   
    117. A(C   2,H  12,C   6)           35.0839         0.090334   
    118. A(C   2,H  12,N  49)           39.4060         0.089772   
    119. A(H   3,H  12,N  49)           34.5328         0.089702   
    120. A(C  11,H  12,N  49)           31.3640         0.089722   
    121. A(C   7,H  12,N  49)           50.0394         0.089787   
    122. A(C   9,H  12,C  13)           17.7182         0.089682   
    123. A(C  11,H  12,H  19)           36.8773         0.089702   
    124. A(C   8,H  12,C  11)           18.6804         0.090198   
    125. A(C  11,H  12,O  47)           40.3149         0.089965   
    126. A(C  13,H  12,N  49)           48.0108         0.089602   
    127. A(C   7,H  12,O  47)           65.0359         0.090052   
    128. A(C   8,H  12,O  47)           32.2938         0.090237   
    129. A(C   6,H  12,O  47)           48.0334         0.090287   
    130. A(H   3,H  12,O  47)           38.5913         0.089939   
    131. A(C   7,H  12,C   8)           33.3234         0.090306   
    132. A(H  10,H  12,C  13)           43.2669         0.089325   
    133. A(C   7,H  12,H  19)           74.9663         0.089765   
    134. A(H   3,H  12,C   7)           60.4342         0.089991   
    135. A(C   6,H  12,N  49)           32.8715         0.089963   
    136. A(C   0,H  12,C   2)           17.6878         0.089939   
    137. A(C   0,H  12,O  47)           51.3986         0.089906   
    138. A(C   0,H  12,H  10)           34.2281         0.089366   
    139. A(H  10,H  12,C  11)           50.9513         0.089390   
    140. A(C   8,H  12,H  19)           47.9407         0.089900   
    141. A(C  11,H  12,C  13)           17.9861         0.089780   
    142. A(H  10,H  12,H  19)           87.8282         0.089293   
    143. A(H   3,H  12,H  10)           62.9039         0.089379   
    144. A(C   9,H  12,H  10)           27.0186         0.089341   
    145. A(O  47,H  12,N  49)           15.1851         0.089745   
    146. A(C   8,H  12,N  49)           18.2649         0.089925   
    147. A(C   9,H  12,H  19)           65.9965         0.089614   
    148. A(H  19,H  12,N  49)           44.6514         0.089542   
    149. A(H   3,H  12,C   6)           42.3068         0.090212   
    150. A(C   6,H  12,H  19)           67.7896         0.089936   
    151. A(H   3,H  12,H  19)           76.7829         0.089683   
    152. A(C   8,H  12,C  13)           31.7062         0.089999   
    153. A(C   8,H  12,H  10)           44.8150         0.089500   
    154. A(H   3,H  12,C   8)           44.9340         0.090165   
    155. A(C   0,H  12,C  13)           57.4652         0.089732   
    156. A(C   6,H  12,C   8)           20.0881         0.090598   
    157. A(H  10,H  12,N  49)           60.0559         0.089301   
    158. A(C  13,H  12,H  19)           48.5493         0.089586   
    159. A(C   2,H  12,C  13)           72.1826         0.089834   
    160. A(C  13,H  12,O  47)           58.2309         0.089805   
    161. A(C   7,H  12,C  13)           31.7306         0.089850   
    162. A(C   6,H  12,C   7)           19.3092         0.090359   
    163. A(C   6,H  12,C  13)           38.0475         0.090040   
    164. A(H   3,H  12,C  13)           75.9636         0.089758   
    165. A(C   6,H  12,H  10)           27.3096         0.089520   
    166. A(H  19,H  12,O  47)           38.5115         0.089725   
    167. A(C   0,H  12,C   9)           50.2030         0.089767   
    168. A(C   2,H  12,C   9)           67.3147         0.089874   
    169. A(C   9,H  12,O  47)           68.5691         0.089844   
    170. A(C   7,H  12,C   9)           18.0256         0.089891   
    171. A(C   6,H  12,C   9)           32.6713         0.090090   
    172. A(H   3,H  12,C   9)           74.8781         0.089795   
    173. A(C   2,H  12,H   3)           13.2135         0.089973   
    174. A(C   2,H  12,H  19)           83.9309         0.089751   
    175. A(C   7,H  12,H  10)           12.8629         0.089425   
    176. A(C   0,H  12,C  11)           51.8929         0.089877   
    177. A(C   2,H  12,C   7)           51.0291         0.090091   
    178. A(C   2,H  12,O  47)           47.6598         0.090033   
    179. A(C   8,H  12,C   9)           37.0867         0.090047   
    180. A(H  10,H  12,O  47)           75.2410         0.089402   
    181. A(C   0,H  12,C   7)           33.4134         0.089957   
    182. A(C   0,H  12,C   8)           34.6047         0.090124   
    183. A(C   0,H  12,C   6)           19.4230         0.090170   
    184. A(C   6,H  12,C  11)           34.0961         0.090246   
    185. A(C   0,H  12,H  19)           81.1703         0.089659   
    186. A(C   7,H  12,C  11)           38.0890         0.090019   
    187. A(C   0,H  12,H   3)           28.6888         0.089853   
    188. A(C   2,H  12,C  11)           62.6826         0.090000   
    189. A(C   9,H  12,C  11)           31.7327         0.089817   
    190. A(C  11,C  13,O  15)          116.5954         0.430666   
    191. A(C   9,C  13,O  15)          123.8811         0.433829   
    192. A(C  11,C  13,H  12)           72.1799         0.103859   
    193. A(C   9,C  13,H  12)           78.8520         0.103996   
    194. A(C   9,C  13,C  11)          119.5054         0.431586   
    195. A(H  12,C  13,O  15)          120.6973         0.103956   
    196. A(C  13,O  15,H  16)          110.8890         0.370594   
    197. A(C  11,O  17,C  18)          113.9184         0.406783   
    198. A(H  20,C  18,H  21)          110.0148         0.291190   
    199. A(H  19,C  18,H  21)          110.5409         0.290471   
    200. A(O  17,C  18,H  21)          110.4997         0.333891   
    201. A(H  19,C  18,H  20)          110.0032         0.291004   
    202. A(O  17,C  18,H  20)          105.9370         0.334539   
    203. A(O  17,C  18,H  19)          109.7464         0.333666   
    204. A(H  12,H  19,C  18)          130.4853         0.099301   
    205. A(C  24,C  22,C  28)          126.5465         0.427507   
    206. A(H  23,C  22,C  28)          114.2804         0.337899   
    207. A(H  23,C  22,C  24)          119.1694         0.364557   
    208. A(H  25,C  24,C  26)          114.2755         0.337194   
    209. A(C  22,C  24,C  26)          123.7147         0.426116   
    210. A(C  22,C  24,H  25)          122.0062         0.364909   
    211. A(C  24,C  26,O  27)          120.4508         0.449479   
    212. A(O  27,C  26,C  44)          119.8295         0.432834   
    213. A(C  24,C  26,C  44)          119.7166         0.378250   
    214. A(C  29,C  28,C  30)          118.3768         0.429645   
    215. A(C  22,C  28,C  30)          122.8149         0.410916   
    216. A(C  22,C  28,C  29)          118.8069         0.412548   
    217. A(C  31,C  29,H  32)          119.3439         0.354428   
    218. A(C  28,C  29,H  32)          119.5935         0.352827   
    219. A(C  28,C  29,C  31)          121.0621         0.433449   
    220. A(C  33,C  30,H  34)          117.4667         0.356470   
    221. A(C  28,C  30,H  34)          121.5295         0.351612   
    222. A(C  28,C  30,C  33)          120.9996         0.434197   
    223. A(C  35,C  31,H  36)          119.4822         0.354072   
    224. A(C  29,C  31,H  36)          120.4706         0.354282   
    225. A(C  29,C  31,C  35)          120.0439         0.435265   
    226. A(C  35,C  33,O  39)          120.0438         0.424163   
    227. A(C  30,C  33,O  39)          119.8893         0.431058   
    228. A(C  30,C  33,C  35)          120.0158         0.433496   
    229. A(C  33,C  35,O  37)          117.1899         0.428614   
    230. A(C  31,C  35,O  37)          123.3061         0.432833   
    231. A(C  31,C  35,C  33)          119.5010         0.430745   
    232. A(C  35,O  37,H  38)          110.4652         0.369749   
    233. A(C  33,O  39,C  40)          113.3293         0.405728   
    234. A(H  41,C  40,H  43)          109.9101         0.289895   
    235. A(O  39,C  40,H  43)          110.8528         0.335272   
    236. A(H  41,C  40,H  42)          109.7080         0.290502   
    237. A(O  39,C  40,H  42)          106.4842         0.336016   
    238. A(O  39,C  40,H  41)          110.1379         0.334898   
    239. A(H  42,C  40,H  43)          109.6877         0.290809   
    240. A(H  45,C  44,H  46)          107.8344         0.289775   
    241. A(C  26,C  44,H  46)          107.2302         0.324286   
    242. A(C   4,C  44,H  46)          109.2937         0.325154   
    243. A(C  26,C  44,H  45)          110.0862         0.324426   
    244. A(C   4,C  44,H  45)          107.4955         0.325294   
    245. A(C   4,C  44,C  26)          114.7122         0.365911   
    246. A(H  12,O  47,N  49)           98.9461         0.109071   
    247. A(H  12,N  49,O  48)          153.1289         0.104029   
    248. A(H  12,N  49,O  47)           65.8688         0.104010   
    249. A(C   8,N  49,H  12)           58.6606         0.101505   
    250. A(O  47,N  49,O  48)          124.9506         0.493768   
    251. A(C   8,N  49,O  48)          117.4777         0.426230   
    252. A(C   8,N  49,O  47)          117.5710         0.425794   
    253. D(H   3,C   2,C   0,C   6)      3.1543         0.048156   
    254. D(C   4,C   2,C   0,H  12)    139.4212         0.048156   
    255. D(H   3,C   2,C   0,H  12)    -38.4447         0.048156   
    256. D(C   4,C   2,C   0,C   6)   -178.9798         0.048156   
    257. D(H   3,C   2,C   0,H   1)   -174.5795         0.048156   
    258. D(C   4,C   2,C   0,H   1)      3.2864         0.048156   
    259. D(H  12,H   3,C   2,C   0)     54.3375         0.124776   
    260. D(H  12,H   3,C   2,C   4)   -123.7137         0.124776   
    261. D(O   5,C   4,C   2,C   0)   -164.4899         0.014916   
    262. D(C  44,C   4,C   2,H   3)   -165.7870         0.014916   
    263. D(O   5,C   4,C   2,H   3)     13.5219         0.014916   
    264. D(O   5,C   4,C   2,H  12)    -43.5473         0.014916   
    265. D(C  44,C   4,C   2,C   0)     16.2011         0.014916   
    266. D(C   8,C   6,C   0,C   2)     39.2699         0.016799   
    267. D(C   7,C   6,C   0,C   2)   -139.5563         0.016799   
    268. D(C   8,C   6,C   0,H  12)     84.7096         0.016799   
    269. D(C   7,C   6,C   0,H  12)    -94.1166         0.016799   
    270. D(C   8,C   6,C   0,H   1)   -142.8895         0.016799   
    271. D(C   7,C   6,C   0,H   1)     38.2843         0.016799   
    272. D(C   9,C   7,C   6,C   8)     -1.2080         0.030430   
    273. D(H  10,C   7,C   6,C   0)     -1.4580         0.030430   
    274. D(C   9,C   7,C   6,H  12)     79.8401         0.030430   
    275. D(H  10,C   7,C   6,C   8)    179.6305         0.030430   
    276. D(H  10,C   7,C   6,H  12)    -99.3214         0.030430   
    277. D(C   9,C   7,C   6,C   0)    177.7034         0.030430   
    278. D(C  11,C   8,C   6,H  12)    -85.4388         0.030137   
    279. D(N  49,C   8,C   6,C   7)   -175.5615         0.030137   
    280. D(C  11,C   8,C   6,C   0)   -178.1164         0.030137   
    281. D(C  11,C   8,C   6,C   7)      0.7492         0.030137   
    282. D(N  49,C   8,C   6,H  12)     98.2504         0.030137   
    283. D(N  49,C   8,C   6,C   0)      5.5729         0.030137   
    284. D(C  13,C   9,C   7,C   6)      0.9767         0.032013   
    285. D(H  14,C   9,C   7,C   6)   -179.9907         0.032013   
    286. D(C  13,C   9,C   7,H  12)     69.1523         0.032013   
    287. D(H  14,C   9,C   7,H  10)     -0.8334         0.032013   
    288. D(H  14,C   9,C   7,H  12)   -111.8151         0.032013   
    289. D(C  13,C   9,C   7,H  10)   -179.8660         0.032013   
    290. D(H  12,H  10,C   7,C   9)   -102.3825         0.127393   
    291. D(H  12,H  10,C   7,C   6)     76.7968         0.127393   
    292. D(O  17,C  11,C   8,N  49)      1.3409         0.032538   
    293. D(C  13,C  11,C   8,C   6)     -0.0355         0.032538   
    294. D(C  13,C  11,C   8,H  12)    -77.5633         0.032538   
    295. D(C  13,C  11,C   8,N  49)    176.4396         0.032538   
    296. D(O  17,C  11,C   8,H  12)    107.3380         0.032538   
    297. D(O  17,C  11,C   8,C   6)   -175.1341         0.032538   
    298. D(C   6,H  12,C   8,N  49)   -118.8607         0.001500   
    299. D(O  47,H  12,C   0,H   1)   -171.3798         0.001500   
    300. D(H  19,H  12,C   8,C   6)   -170.0066         0.001500   
    301. D(C   2,H  12,C   7,C   6)    -29.0390         0.001500   
    302. D(O  47,H  12,C   7,C   6)     25.5810         0.001500   
    303. D(C   8,H  12,C   0,C   6)    -30.3819         0.001500   
    304. D(C   8,H  12,C   7,H  10)    149.3643         0.001500   
    305. D(H  19,H  12,C   7,H  10)   -179.2976         0.001500   
    306. D(C   8,H  12,C   0,H   1)   -129.7608         0.001500   
    307. D(C   6,H  12,C   0,C   2)    142.5351         0.001500   
    308. D(O  47,H  12,C   7,C   9)    -97.3642         0.001500   
    309. D(C   7,H  12,C   0,C   2)    173.7969         0.001500   
    310. D(H   3,H  12,C   8,C  11)   -163.8852         0.001500   
    311. D(H  19,H  12,C   8,C  11)    -45.9583         0.001500   
    312. D(H  19,H  12,C   8,N  49)     71.1327         0.001500   
    313. D(H   3,H  12,C   2,C   4)     89.2059         0.001500   
    314. D(C   7,H  12,C   8,C  11)     91.4692         0.001500   
    315. D(C   8,H  12,C   0,C   2)    112.1532         0.001500   
    316. D(H   3,H  12,C   7,H  10)     97.5843         0.001500   
    317. D(C   6,H  12,C   0,H   1)    -99.3790         0.001500   
    318. D(C   8,H  12,C   7,C   6)     34.0078         0.001500   
    319. D(H   3,H  12,C   7,C   6)    -17.7722         0.001500   
    320. D(C   2,H  12,C   6,C   0)     18.7560         0.001500   
    321. D(H  19,H  12,C   0,C   6)    -44.7797         0.001500   
    322. D(H   3,H  12,C   6,C   8)    -86.6869         0.001500   
    323. D(O  47,H  12,C   6,C   0)     91.5624         0.001500   
    324. D(H   3,H  12,C   0,C   6)   -123.3519         0.001500   
    325. D(C   7,H  12,C   6,C   8)    116.5433         0.001500   
    326. D(H   3,H  12,C   0,H   1)    137.2691         0.001500   
    327. D(H  19,H  12,C   6,C   8)      7.9997         0.001500   
    328. D(C   8,H  12,C   6,C   7)   -116.5433         0.001500   
    329. D(O  47,H  12,C   6,C   7)   -148.2330         0.001500   
    330. D(H   3,H  12,C   6,C   7)    156.7698         0.001500   
    331. D(H  19,H  12,C   0,H   1)   -144.1587         0.001500   
    332. D(C   2,H  12,C   6,C   7)    138.9605         0.001500   
    333. D(H  10,H  12,H   3,C   2)    -27.2949         0.001500   
    334. D(O  47,H  12,C  11,C   8)     53.5938         0.001500   
    335. D(N  49,H  12,H   3,C   2)   -103.0797         0.001500   
    336. D(C   7,H  12,C  11,C   8)    -62.9050         0.001500   
    337. D(C   8,H  12,C  11,O  17)   -114.0609         0.001500   
    338. D(H   3,H  12,C   6,C   0)     36.5653         0.001500   
    339. D(C  13,H  12,H   3,C   2)    -71.6349         0.001500   
    340. D(O  47,H  12,C   6,C   8)    -31.6898         0.001500   
    341. D(H  19,H  12,C   6,C   0)    131.2519         0.001500   
    342. D(H  19,H  12,C   6,C   7)   -108.5436         0.001500   
    343. D(C   9,H  12,H   3,C   2)    -53.3563         0.001500   
    344. D(H   3,H  12,C   0,C   2)     19.1832         0.001500   
    345. D(C   7,H  12,C   6,C   0)   -120.2045         0.001500   
    346. D(C   8,H  12,C   6,C   0)    123.2522         0.001500   
    347. D(C   6,H  12,C  11,C   8)    -30.5078         0.001500   
    348. D(C   0,H  12,H   3,C   2)    -25.8975         0.001500   
    349. D(H  19,H  12,C  11,C  13)   -122.2406         0.001500   
    350. D(C  11,H  12,H   3,C   2)    -85.0386         0.001500   
    351. D(H  19,H  12,C  11,C   8)    117.2088         0.001500   
    352. D(H  19,H  12,C   0,C   2)     97.7554         0.001500   
    353. D(H   3,H  12,C  11,O  17)   -101.3557         0.001500   
    354. D(H   3,H  12,C   7,C   9)   -140.7174         0.001500   
    355. D(O  47,H  12,H   3,C   2)   -127.8016         0.001500   
    356. D(H  19,H  12,C   7,C   6)     65.3459         0.001500   
    357. D(H  19,H  12,C   7,C   9)    -57.5993         0.001500   
    358. D(C   8,H  12,C   7,C   9)    -88.9374         0.001500   
    359. D(C   6,H  12,C   7,C   9)   -122.9452         0.001500   
    360. D(C   6,H  12,C   7,H  10)    115.3565         0.001500   
    361. D(C   7,H  12,H   3,C   2)    -41.6468         0.001500   
    362. D(C  13,H  12,H  10,C   7)     22.8241         0.001500   
    363. D(C   8,H  12,H   3,C   2)    -79.3147         0.001500   
    364. D(H   3,H  12,H  10,C   7)    -75.5755         0.001500   
    365. D(C   7,H  12,C   0,H   1)    -68.1172         0.001500   
    366. D(O  47,H  12,C   7,H  10)    140.9375         0.001500   
    367. D(C   6,H  12,H  10,C   7)    -40.6388         0.001500   
    368. D(H   3,H  12,C   8,C   6)     72.0665         0.001500   
    369. D(C   7,H  12,C   0,C   6)     31.2618         0.001500   
    370. D(H   3,H  12,C   8,N  49)    -46.7942         0.001500   
    371. D(C   2,H  12,H  10,C   7)    -83.2864         0.001500   
    372. D(C   7,H  12,C   2,H   3)    131.9737         0.001500   
    373. D(H   3,H  12,C   2,C   0)   -136.3631         0.001500   
    374. D(C   6,H  12,C   8,C  11)    124.0483         0.001500   
    375. D(O  47,H  12,C   2,C   0)    -94.5440         0.001500   
    376. D(C   7,H  12,C   8,C   6)    -32.5791         0.001500   
    377. D(H  19,H  12,C   2,C   0)    -79.9413         0.001500   
    378. D(C   7,H  12,C   8,N  49)   -151.4398         0.001500   
    379. D(H  19,H  12,H  10,C   7)      0.6789         0.001500   
    380. D(H  19,H  12,H   3,C   2)   -121.6788         0.001500   
    381. D(C   6,H  12,H   3,C   2)    -50.2707         0.001500   
    382. D(C   7,H  12,C   9,H  14)    114.3082         0.001500   
    383. D(C   7,H  12,C   2,C   0)     -4.3894         0.001500   
    384. D(C   7,H  12,C   9,C  13)   -125.9449         0.001500   
    385. D(C   0,H  12,H  10,C   7)    -76.7680         0.001500   
    386. D(C   8,H  12,C   2,C   4)    176.3744         0.001500   
    387. D(C   8,H  12,C   9,C   7)     65.6245         0.001500   
    388. D(C   8,H  12,C   2,H   3)     87.1685         0.001500   
    389. D(C   6,H  12,C   9,H  14)    145.2419         0.001500   
    390. D(C   8,H  12,C   9,H  14)    179.9327         0.001500   
    391. D(C   6,H  12,C   9,C  13)    -95.0112         0.001500   
    392. D(C   8,H  12,C   2,C   0)    -49.1946         0.001500   
    393. D(H  19,H  12,C   9,H  14)   -128.8956         0.001500   
    394. D(C   8,H  12,C   9,C  13)    -60.3204         0.001500   
    395. D(C   6,H  12,C   2,C   4)   -155.0359         0.001500   
    396. D(H  19,H  12,C   9,C  13)     -9.1487         0.001500   
    397. D(O  47,H  12,C   9,C   7)     74.9889         0.001500   
    398. D(C   9,H  12,H  10,C   7)     35.4194         0.001500   
    399. D(C   7,H  12,C   2,C   4)   -138.8203         0.001500   
    400. D(C  11,H  12,H  10,C   7)      0.5018         0.001500   
    401. D(C   8,H  12,H  10,C   7)    -23.4022         0.001500   
    402. D(O  47,H  12,H  10,C   7)    -36.2127         0.001500   
    403. D(H  19,H  12,C   9,C   7)    116.7962         0.001500   
    404. D(C   6,H  12,C   2,H   3)    115.7582         0.001500   
    405. D(H   3,H  12,C   9,H  14)    149.0903         0.001500   
    406. D(C   6,H  12,C   2,C   0)    -20.6049         0.001500   
    407. D(H   3,H  12,C   9,C   7)     34.7821         0.001500   
    408. D(N  49,H  12,H  10,C   7)    -36.2167         0.001500   
    409. D(H   3,H  12,C  11,C   8)     12.7052         0.001500   
    410. D(H   3,H  12,C  11,C  13)    133.2558         0.001500   
    411. D(C   6,H  12,C   9,C   7)     30.9337         0.001500   
    412. D(C   2,H  12,C   8,C   6)     53.2076         0.001500   
    413. D(O  47,H  12,C   8,N  49)     14.1614         0.001500   
    414. D(H  19,H  12,C  11,O  17)      3.1479         0.001500   
    415. D(H   3,H  12,C   9,C  13)    -91.1628         0.001500   
    416. D(C   6,H  12,C  11,C  13)     90.0428         0.001500   
    417. D(C   6,H  12,C  11,O  17)   -144.5686         0.001500   
    418. D(C   8,H  12,C  11,C  13)    120.5506         0.001500   
    419. D(O  47,H  12,C   8,C  11)   -102.9296         0.001500   
    420. D(H  19,H  12,C   2,C   4)    145.6278         0.001500   
    421. D(C   7,H  12,C  11,C  13)     57.6456         0.001500   
    422. D(C   7,H  12,C  11,O  17)   -176.9659         0.001500   
    423. D(H  19,H  12,C   2,H   3)     56.4219         0.001500   
    424. D(O  47,H  12,C   8,C   6)    133.0221         0.001500   
    425. D(C  11,C  13,H  12,C   6)    -65.4465         0.001500   
    426. D(C  11,C  13,H  12,H  19)     42.6251         0.001500   
    427. D(C  11,C  13,H  12,H   3)    -42.0021         0.001500   
    428. D(C   9,C  13,H  12,H  10)     18.9960         0.001500   
    429. D(C   9,C  13,H  12,N  49)    107.6443         0.001500   
    430. D(C   9,C  13,H  12,C   0)     60.1334         0.001500   
    431. D(C   9,C  13,H  12,C  11)    126.2011         0.001500   
    432. D(C   9,C  13,H  12,O  47)    121.7482         0.001500   
    433. D(C   9,C  13,H  12,C   7)     28.4465         0.001500   
    434. D(C   9,C  13,H  12,C   8)     94.5450         0.001500   
    435. D(C   9,C  13,H  12,C   6)     60.7546         0.001500   
    436. D(C   9,C  13,H  12,H  19)    168.8262         0.001500   
    437. D(C   9,C  13,H  12,H   3)     84.1991         0.001500   
    438. D(O  15,C  13,C  11,H  12)    116.0237         0.028758   
    439. D(O  15,C  13,C  11,O  17)     -3.7542         0.028758   
    440. D(O  15,C  13,C  11,C   8)   -178.7623         0.028758   
    441. D(C   9,C  13,C  11,H  12)    -65.4643         0.028758   
    442. D(C   9,C  13,H  12,C   2)     71.0275         0.001500   
    443. D(C   9,C  13,C  11,O  17)    174.7577         0.028758   
    444. D(C   9,C  13,C  11,C   8)     -0.2503         0.028758   
    445. D(O  15,C  13,C   9,H  12)   -119.6314         0.031367   
    446. D(O  15,C  13,C   9,H  14)     -0.8521         0.031367   
    447. D(O  15,C  13,C   9,C   7)    178.1893         0.031367   
    448. D(C  11,C  13,C   9,H  12)     61.9714         0.031367   
    449. D(C  11,C  13,C   9,H  14)   -179.2493         0.031367   
    450. D(C  11,C  13,H  12,C   8)    -31.6561         0.001500   
    451. D(C  11,C  13,C   9,C   7)     -0.2080         0.031367   
    452. D(H  16,O  15,C  13,H  12)    -97.2040         0.033144   
    453. D(H  16,O  15,C  13,C  11)    178.5797         0.033144   
    454. D(H  16,O  15,C  13,C   9)      0.1397         0.033144   
    455. D(C  18,O  17,C  11,H  12)    -29.6056         0.031195   
    456. D(C  18,O  17,C  11,C  13)     76.9868         0.031195   
    457. D(C  18,O  17,C  11,C   8)   -108.0948         0.031195   
    458. D(H  21,C  18,O  17,C  11)    -60.5969         0.016893   
    459. D(H  20,C  18,O  17,C  11)   -179.7255         0.016893   
    460. D(H  19,C  18,O  17,C  11)     61.5579         0.016893   
    461. D(H  12,H  19,C  18,H  20)    171.5446         0.119689   
    462. D(H  12,H  19,C  18,O  17)    -72.2787         0.119689   
    463. D(C  18,H  19,H  12,H  10)     39.1310         0.001500   
    464. D(C  18,H  19,H  12,C  13)     18.9672         0.001500   
    465. D(C  18,H  19,H  12,C   9)     22.6688         0.001500   
    466. D(C  18,H  19,H  12,C   0)     72.8849         0.001500   
    467. D(C  18,H  19,H  12,C  11)     39.3602         0.001500   
    468. D(C  18,H  19,H  12,C   2)     90.5077         0.001500   
    469. D(C  18,H  19,H  12,O  47)    107.9221         0.001500   
    470. D(C  18,H  19,H  12,N  49)     86.8808         0.001500   
    471. D(C  18,H  19,H  12,C   7)     39.2875         0.001500   
    472. D(C  18,H  19,H  12,C   8)     61.9206         0.001500   
    473. D(C  18,H  19,H  12,C   6)     58.2293         0.001500   
    474. D(H  12,H  19,C  18,H  21)     49.8516         0.119689   
    475. D(C  18,H  19,H  12,H   3)    101.7886         0.001500   
    476. D(C  26,C  24,C  22,C  28)   -179.0273         0.039419   
    477. D(C  26,C  24,C  22,H  23)      1.7146         0.039419   
    478. D(H  25,C  24,C  22,C  28)      1.7112         0.039419   
    479. D(H  25,C  24,C  22,H  23)   -177.5469         0.039419   
    480. D(C  44,C  26,C  24,H  25)   -170.3090         0.014794   
    481. D(C  44,C  26,C  24,C  22)     10.3780         0.014794   
    482. D(O  27,C  26,C  24,H  25)      9.0464         0.014794   
    483. D(O  27,C  26,C  24,C  22)   -170.2667         0.014794   
    484. D(C  30,C  28,C  22,C  24)      4.7748         0.015339   
    485. D(C  30,C  28,C  22,H  23)   -175.9359         0.015339   
    486. D(C  29,C  28,C  22,C  24)   -175.6651         0.015339   
    487. D(C  29,C  28,C  22,H  23)      3.6242         0.015339   
    488. D(H  32,C  29,C  28,C  30)    179.6673         0.025641   
    489. D(H  32,C  29,C  28,C  22)      0.0875         0.025641   
    490. D(C  31,C  29,C  28,C  30)     -0.0899         0.025641   
    491. D(C  31,C  29,C  28,C  22)   -179.6697         0.025641   
    492. D(H  34,C  30,C  28,C  29)   -179.2251         0.024461   
    493. D(H  34,C  30,C  28,C  22)      0.3368         0.024461   
    494. D(C  33,C  30,C  28,C  29)      0.0118         0.024461   
    495. D(C  33,C  30,C  28,C  22)    179.5737         0.024461   
    496. D(H  36,C  31,C  29,H  32)     -0.1712         0.027137   
    497. D(H  36,C  31,C  29,C  28)    179.5866         0.027137   
    498. D(C  35,C  31,C  29,H  32)   -179.5016         0.027137   
    499. D(C  35,C  31,C  29,C  28)      0.2561         0.027137   
    500. D(O  39,C  33,C  30,H  34)      1.7671         0.029047   
    501. D(O  39,C  33,C  30,C  28)   -177.4998         0.029047   
    502. D(C  35,C  33,C  30,H  34)    179.1680         0.029047   
    503. D(C  35,C  33,C  30,C  28)     -0.0990         0.029047   
    504. D(O  37,C  35,C  31,H  36)     -0.3209         0.026935   
    505. D(O  37,C  35,C  31,C  29)    179.0162         0.026935   
    506. D(C  33,C  35,C  31,H  36)   -179.6763         0.026935   
    507. D(C  33,C  35,C  31,C  29)     -0.3392         0.026935   
    508. D(O  37,C  35,C  33,O  39)     -1.7354         0.024004   
    509. D(O  37,C  35,C  33,C  30)   -179.1321         0.024004   
    510. D(C  31,C  35,C  33,O  39)    177.6590         0.024004   
    511. D(C  31,C  35,C  33,C  30)      0.2623         0.024004   
    512. D(H  38,O  37,C  35,C  33)    179.9709         0.029112   
    513. D(H  38,O  37,C  35,C  31)      0.6015         0.029112   
    514. D(C  40,O  39,C  33,C  35)     77.9457         0.025700   
    515. D(C  40,O  39,C  33,C  30)   -104.6542         0.025700   
    516. D(H  43,C  40,O  39,C  33)    -59.9356         0.017949   
    517. D(H  42,C  40,O  39,C  33)   -179.1894         0.017949   
    518. D(H  41,C  40,O  39,C  33)     61.9231         0.017949   
    519. D(H  46,C  44,C  26,C  24)    175.6341         0.010681   
    520. D(H  45,C  44,C  26,O  27)    113.3288         0.010681   
    521. D(H  45,C  44,C  26,C  24)    -67.3118         0.010681   
    522. D(C   4,C  44,C  26,O  27)   -125.2948         0.010681   
    523. D(C   4,C  44,C  26,C  24)     54.0646         0.010681   
    524. D(H  46,C  44,C   4,C   2)    -70.7671         0.011013   
    525. D(H  45,C  44,C   4,O   5)     -6.8513         0.011013   
    526. D(H  45,C  44,C   4,C   2)    172.4521         0.011013   
    527. D(C  26,C  44,C   4,O   5)   -129.6342         0.011013   
    528. D(C  26,C  44,C   4,C   2)     49.6693         0.011013   
    529. D(N  49,O  47,H  12,C  13)    -43.7463         0.001500   
    530. D(N  49,O  47,H  12,C   9)    -27.6042         0.001500   
    531. D(N  49,O  47,H  12,C   0)     27.8894         0.001500   
    532. D(N  49,O  47,H  12,C  11)    -45.8698         0.001500   
    533. D(N  49,O  47,H  12,C   2)     50.6918         0.001500   
    534. D(N  49,O  47,H  12,C   7)     -8.3546         0.001500   
    535. D(N  49,O  47,H  12,C   8)    -17.0214         0.001500   
    536. D(N  49,O  47,H  12,C   6)      2.7163         0.001500   
    537. D(N  49,O  47,H  12,H  19)   -105.5658         0.001500   
    538. D(N  49,O  47,H  12,H  10)     -0.0131         0.001500   
    539. D(N  49,O  47,H  12,H   3)     64.8350         0.001500   
    540. D(O  48,N  49,O  47,H  12)   -151.5722         0.095261   
    541. D(C   8,N  49,O  47,H  12)     28.7379         0.095261   
    542. D(O  47,N  49,H  12,C   8)    150.0656         0.001500   
    543. D(O  47,N  49,H  12,C   6)   -176.2776         0.001500   
    544. D(O  47,N  49,H  12,H  19)     58.5945         0.001500   
    545. D(O  47,N  49,H  12,H   3)    -95.1864         0.001500   
    546. D(C   8,N  49,H  12,H  10)     29.9198         0.001500   
    547. D(C   8,N  49,H  12,C   9)     -1.6917         0.001500   
    548. D(C   8,N  49,H  12,C   0)     65.9321         0.001500   
    549. D(C   8,N  49,H  12,C  11)    -33.2205         0.001500   
    550. D(C   8,N  49,H  12,C   2)     94.2157         0.001500   
    551. D(C   8,N  49,H  12,O  47)   -150.0656         0.001500   
    552. D(C   8,N  49,H  12,C   7)     20.0387         0.001500   
    553. D(C   8,N  49,H  12,C   6)     33.6568         0.001500   
    554. D(C   8,N  49,H  12,C  13)    -22.3372         0.001500   
    555. D(C   8,N  49,H  12,H  19)    -91.4711         0.001500   
    556. D(C   8,N  49,H  12,H   3)    114.7480         0.001500   
    557. D(O  48,N  49,C   8,H  12)    149.3731         0.015150   
    558. D(O  48,N  49,C   8,C  11)   -110.8802         0.015150   
    559. D(O  48,N  49,C   8,C   6)     65.7255         0.015150   
    560. D(O  47,N  49,C   8,H  12)    -30.9134         0.015150   
    561. D(O  47,N  49,C   8,C  11)     68.8333         0.015150   
    562. D(O  47,N  49,C   8,C   6)   -114.5611         0.015150   
    -----------------------------------------------------------------

Number of atoms                         .... 50
Number of degrees of freedom            .... 562


         *************************************************************
         *                GEOMETRY OPTIMIZATION CYCLE   1            *
         *************************************************************
---------------------------------
CARTESIAN COORDINATES (ANGSTROEM)
---------------------------------
  C      1.868737    1.485878    1.561272
  H      1.706137    2.549130    1.716787
  C      1.166009    0.586986    2.258744
  H      1.366246   -0.479103    2.188541
  C      0.094990    0.944882    3.214644
  O     -0.306897    0.119149    4.015520
  C      2.923725    1.152832    0.589233
  C      4.089871    1.916285    0.538369
  C      2.848711    0.078698   -0.299245
  C      5.125458    1.603960   -0.331922
  H      4.191417    2.765281    1.205776
  C      3.855963   -0.259885   -1.189454
  H      4.779661   -1.557943    2.828665
  C      5.019424    0.522285   -1.199862
  H      6.023379    2.214134   -0.352269
  O      5.972191    0.179758   -2.099162
  H      6.724626    0.783385   -2.050489
  O      3.659502   -1.262871   -2.089441
  C      4.402952   -2.463166   -1.798447
  H      4.091552   -2.864773   -0.832298
  H      4.156597   -3.166343   -2.590421
  H      5.474185   -2.258855   -1.800602
  C     -2.513358    0.921818    1.480570
  H     -2.390689    0.659097    2.528913
  C     -1.855768    1.984955    0.991184
  H     -1.974719    2.311800   -0.037784
  C     -0.935903    2.811675    1.785294
  O     -0.506030    3.864282    1.337691
  C     -3.426128    0.045340    0.742773
  C     -4.097039   -0.964615    1.436282
  C     -3.650772    0.169657   -0.636424
  C     -4.968273   -1.826840    0.781815
  H     -3.933664   -1.082082    2.503131
  C     -4.513371   -0.683197   -1.296197
  H     -3.147272    0.927860   -1.227297
  C     -5.180357   -1.696097   -0.586171
  H     -5.479938   -2.613242    1.329412
  O     -6.001231   -2.513445   -1.295027
  H     -6.406739   -3.170258   -0.714911
  O     -4.677333   -0.573997   -2.655942
  C     -5.915744    0.042999   -3.030651
  H     -5.958515    1.065823   -2.645604
  H     -5.935869    0.059289   -4.118620
  H     -6.765275   -0.531348   -2.655577
  C     -0.503892    2.343695    3.172722
  H     -1.356976    2.356442    3.855619
  H      0.232006    3.063031    3.542631
  O      1.681591   -1.895526   -0.045700
  O      0.617636   -0.184358   -0.815028
  N      1.617459   -0.730901   -0.392456

----------------------------
CARTESIAN COORDINATES (A.U.)
----------------------------
  NO LB      ZA    FRAG     MASS         X           Y           Z
   0 C     6.0000    0    12.011    3.531402    2.807902    2.950377
   1 H     1.0000    0     1.008    3.224132    4.817157    3.244257
   2 C     6.0000    0    12.011    2.203437    1.109243    4.268408
   3 H     1.0000    0     1.008    2.581831   -0.905373    4.135743
   4 C     6.0000    0    12.011    0.179505    1.785568    6.074797
   5 O     8.0000    0    15.999   -0.579950    0.225158    7.588234
   6 C     6.0000    0    12.011    5.525040    2.178536    1.113489
   7 C     6.0000    0    12.011    7.728736    3.621254    1.017371
   8 C     6.0000    0    12.011    5.383284    0.148718   -0.565491
   9 C     6.0000    0    12.011    9.685712    3.031046   -0.627241
  10 H     1.0000    0     1.008    7.920630    5.225623    2.278587
  11 C     6.0000    0    12.011    7.286715   -0.491111   -2.247742
  12 H     1.0000    0     1.008    9.032251   -2.944086    5.345403
  13 C     6.0000    0    12.011    9.485336    0.986975   -2.267411
  14 H     1.0000    0     1.008   11.382537    4.184107   -0.665692
  15 O     8.0000    0    15.999   11.285806    0.339693   -3.966841
  16 H     1.0000    0     1.008   12.707702    1.480383   -3.874862
  17 O     8.0000    0    15.999    6.915457   -2.386481   -3.948471
  18 C     6.0000    0    12.011    8.320373   -4.654709   -3.398573
  19 H     1.0000    0     1.008    7.731913   -5.413636   -1.572815
  20 H     1.0000    0     1.008    7.854830   -5.983521   -4.895186
  21 H     1.0000    0     1.008   10.344711   -4.268618   -3.402644
  22 C     6.0000    0    12.011   -4.749559    1.741983    2.797872
  23 H     1.0000    0     1.008   -4.517747    1.245512    4.778953
  24 C     6.0000    0    12.011   -3.506894    3.751021    1.873065
  25 H     1.0000    0     1.008   -3.731679    4.368669   -0.071402
  26 C     6.0000    0    12.011   -1.768601    5.313297    3.373717
  27 O     8.0000    0    15.999   -0.956259    7.302434    2.527870
  28 C     6.0000    0    12.011   -6.474444    0.085680    1.403638
  29 C     6.0000    0    12.011   -7.742282   -1.822859    2.714179
  30 C     6.0000    0    12.011   -6.898959    0.320606   -1.202667
  31 C     6.0000    0    12.011   -9.388675   -3.452228    1.477415
  32 H     1.0000    0     1.008   -7.433548   -2.044839    4.730232
  33 C     6.0000    0    12.011   -8.529035   -1.291055   -2.449458
  34 H     1.0000    0     1.008   -5.947483    1.753402   -2.319255
  35 C     6.0000    0    12.011   -9.789455   -3.205159   -1.107703
  36 H     1.0000    0     1.008  -10.355581   -4.938312    2.512224
  37 O     8.0000    0    15.999  -11.340683   -4.749724   -2.447245
  38 H     1.0000    0     1.008  -12.106981   -5.990920   -1.350986
  39 O     8.0000    0    15.999   -8.838879   -1.084696   -5.019002
  40 C     6.0000    0    12.011  -11.179136    0.081257   -5.727100
  41 H     1.0000    0     1.008  -11.259961    2.014113   -4.999467
  42 H     1.0000    0     1.008  -11.217167    0.112040   -7.783064
  43 H     1.0000    0     1.008  -12.784517   -1.004102   -5.018312
  44 C     6.0000    0    12.011   -0.952217    4.428941    5.995575
  45 H     1.0000    0     1.008   -2.564313    4.453031    7.286064
  46 H     1.0000    0     1.008    0.438427    5.788290    6.694603
  47 O     8.0000    0    15.999    3.177747   -3.582025   -0.086361
  48 O     8.0000    0    15.999    1.167163   -0.348387   -1.540179
  49 N     7.0000    0    14.007    3.056555   -1.381202   -0.741635

--------------------------------
INTERNAL COORDINATES (ANGSTROEM)
--------------------------------
 C      0   0   0     0.000000000000     0.00000000     0.00000000
 H      1   0   0     1.086797538924     0.00000000     0.00000000
 C      1   2   0     1.337273612970   120.28925123     0.00000000
 H      3   1   2     1.086999524980   121.92202405   185.42046437
 C      3   1   2     1.479498127157   123.69591564     3.28639820
 O      5   3   1     1.218503729012   119.96596315   195.51005915
 C      1   2   3     1.472677667867   115.01650113   182.05695223
 C      7   1   2     1.394755788719   119.94954202    38.28432353
 C      7   1   2     1.395988022036   123.75228580   217.11049345
 C      8   7   1     1.388306422944   121.55995413   177.70343350
 H      8   7   1     1.084682983380   118.96477596   358.54199774
 C      9   7   1     1.386242278150   123.89002373   181.88362975
 H      4   3   1     3.636627507027   116.90348108    54.33748579
 C     10   8   7     1.390893852128   120.61497284     0.97669555
 H     10   8   7     1.085812118207   120.14457453   180.00933240
 O     14  10   8     1.354190521345   123.88105121   178.18925021
 H     16  14  10     0.965864244208   110.88897781     0.13970695
 O     12   9   7     1.361820442121   119.96419677   184.86588329
 C     18  12   9     1.441562064549   113.91839656   251.90518558
 H     19  18  12     1.091651406619   109.74638745    61.55793492
 H     19  18  12     1.087368721421   105.93704408   180.27445943
 H     19  18  12     1.090545398761   110.49967442   299.40305936
 C      5   3   1     3.132255705923   104.08446540    91.33444676
 H     23   5   3     1.087701208693    51.26476622   147.05350710
 C     23   5   3     1.342454639893    77.76500470   291.47264626
 H     25  23   5     1.086163781952   122.00620593   151.13494917
 C     25  23   5     1.469772000397   123.71465585   330.39644894
 O     27  25  23     1.221932476125   120.45077483   189.73334784
 C     23   5   3     1.464823089712   143.33603284    68.28502093
 C     29  23   5     1.396812194306   118.80685916    60.69594725
 C     29  23   5     1.402891527704   122.81490862   241.13584525
 C     30  29  23     1.389534639785   121.06210800   180.33033997
 H     30  29  23     1.085660253278   119.59351056     0.08749991
 C     31  29  23     1.380846920698   120.99962621   179.57368978
 H     31  29  23     1.085133170892   121.52949046     0.33677924
 C     32  30  29     1.390488465599   120.04385018     0.25614644
 H     32  30  29     1.086320453435   120.47057648   179.58660364
 O     36  32  30     1.358075368376   123.30607811   179.01623053
 H     38  36  32     0.965594811583   110.46516726     0.60152572
 O     34  31  29     1.373940697444   119.88931820   182.50020403
 C     40  34  31     1.433440396607   113.32934111   255.34577107
 H     41  40  34     1.093735906346   110.13789248    61.92307109
 H     41  40  34     1.088277373417   106.48420748   180.81058045
 H     41  40  34     1.091905841362   110.85278921   300.06435042
 C      5   3   1     1.522200637557   119.29518209    16.20112103
 H     45   5   3     1.092823841573   107.49552836   172.45214670
 H     45   5   3     1.093536882496   109.29365707   289.23288103
 O      9   7   1     2.307382482619   127.99476016   332.92157205
 O     48   9   7     2.156840206428    62.06353082    84.35138323
 N     49  48   9     1.215286319754    27.54377935   359.80086117

---------------------------
INTERNAL COORDINATES (A.U.)
---------------------------
 C      0   0   0     0.000000000000     0.00000000     0.00000000
 H      1   0   0     2.053749711587     0.00000000     0.00000000
 C      1   2   0     2.527080894634   120.28925123     0.00000000
 H      3   1   2     2.054131409914   121.92202405   185.42046437
 C      3   1   2     2.795846275977   123.69591564     3.28639820
 O      5   3   1     2.302638340994   119.96596315   195.51005915
 C      1   2   3     2.782957475810   115.01650113   182.05695223
 C      7   1   2     2.635706464381   119.94954202    38.28432353
 C      7   1   2     2.638035047882   123.75228580   217.11049345
 C      8   7   1     2.623518929327   121.55995413   177.70343350
 H      8   7   1     2.049753780713   118.96477596   358.54199774
 C      9   7   1     2.619618260967   123.89002373   181.88362975
 H      4   3   1     6.872230039366   116.90348108    54.33748579
 C     10   8   7     2.628408461877   120.61497284     0.97669555
 H     10   8   7     2.051887536304   120.14457453   180.00933240
 O     14  10   8     2.559049218493   123.88105121   178.18925021
 H     16  14  10     1.825218904100   110.88897781     0.13970695
 O     12   9   7     2.573467679183   119.96419677   184.86588329
 C     18  12   9     2.724157507047   113.91839656   251.90518558
 H     19  18  12     2.062922192221   109.74638745    61.55793492
 H     19  18  12     2.054829090077   105.93704408   180.27445943
 H     19  18  12     2.060832140265   110.49967442   299.40305936
 C      5   3   1     5.919105465607   104.08446540    91.33444676
 H     23   5   3     2.055457399965    51.26476622   147.05350710
 C     23   5   3     2.536871616609    77.76500470   291.47264626
 H     25  23   5     2.052552084474   122.00620593   151.13494917
 C     25  23   5     2.777466560056   123.71465585   330.39644894
 O     27  25  23     2.309117734020   120.45077483   189.73334784
 C     23   5   3     2.768114474199   143.33603284    68.28502093
 C     29  23   5     2.639592507759   118.80685916    60.69594725
 C     29  23   5     2.651080782958   122.81490862   241.13584525
 C     30  29  23     2.625839922791   121.06210800   180.33033997
 H     30  29  23     2.051600553178   119.59351056     0.08749991
 C     31  29  23     2.609422512987   120.99962621   179.57368978
 H     31  29  23     2.050604511820   121.52949046     0.33677924
 C     32  30  29     2.627642392359   120.04385018     0.25614644
 H     32  30  29     2.052848150670   120.47057648   179.58660364
 O     36  32  30     2.566390515454   123.30607811   179.01623053
 H     38  36  32     1.824709750228   110.46516726     0.60152572
 O     34  31  29     2.596371642418   119.88931820   182.50020403
 C     40  34  31     2.708809778887   113.32934111   255.34577107
 H     41  40  34     2.066861325829   110.13789248    61.92307109
 H     41  40  34     2.056546193502   106.48420748   180.81058045
 H     41  40  34     2.063403004203   110.85278921   300.06435042
 C      5   3   1     2.876542325863   119.29518209    16.20112103
 H     45   5   3     2.065137773192   107.49552836   172.45214670
 H     45   5   3     2.066485225260   109.29365707   289.23288103
 O      9   7   1     4.360320978357   127.99476016   332.92157205
 O     48   9   7     4.075837304779    62.06353082    84.35138323
 N     49  48   9     2.296558318636    27.54377935   359.80086117

---------------------
BASIS SET INFORMATION
---------------------
There are 4 groups of distinct atoms

 Group   1 Type C   : 12s6p1d contracted to 5s4p1d pattern {63111/3111/1}
 Group   2 Type H   : 5s contracted to 3s pattern {311}
 Group   3 Type O   : 12s6p1d contracted to 5s4p1d pattern {63111/3111/1}
 Group   4 Type N   : 12s6p1d contracted to 5s4p1d pattern {63111/3111/1}

Atom   0C    basis set group =>   1
Atom   1H    basis set group =>   2
Atom   2C    basis set group =>   1
Atom   3H    basis set group =>   2
Atom   4C    basis set group =>   1
Atom   5O    basis set group =>   3
Atom   6C    basis set group =>   1
Atom   7C    basis set group =>   1
Atom   8C    basis set group =>   1
Atom   9C    basis set group =>   1
Atom  10H    basis set group =>   2
Atom  11C    basis set group =>   1
Atom  12H    basis set group =>   2
Atom  13C    basis set group =>   1
Atom  14H    basis set group =>   2
Atom  15O    basis set group =>   3
Atom  16H    basis set group =>   2
Atom  17O    basis set group =>   3
Atom  18C    basis set group =>   1
Atom  19H    basis set group =>   2
Atom  20H    basis set group =>   2
Atom  21H    basis set group =>   2
Atom  22C    basis set group =>   1
Atom  23H    basis set group =>   2
Atom  24C    basis set group =>   1
Atom  25H    basis set group =>   2
Atom  26C    basis set group =>   1
Atom  27O    basis set group =>   3
Atom  28C    basis set group =>   1
Atom  29C    basis set group =>   1
Atom  30C    basis set group =>   1
Atom  31C    basis set group =>   1
Atom  32H    basis set group =>   2
Atom  33C    basis set group =>   1
Atom  34H    basis set group =>   2
Atom  35C    basis set group =>   1
Atom  36H    basis set group =>   2
Atom  37O    basis set group =>   3
Atom  38H    basis set group =>   2
Atom  39O    basis set group =>   3
Atom  40C    basis set group =>   1
Atom  41H    basis set group =>   2
Atom  42H    basis set group =>   2
Atom  43H    basis set group =>   2
Atom  44C    basis set group =>   1
Atom  45H    basis set group =>   2
Atom  46H    basis set group =>   2
Atom  47O    basis set group =>   3
Atom  48O    basis set group =>   3
Atom  49N    basis set group =>   4
---------------------------------
AUXILIARY/J BASIS SET INFORMATION
---------------------------------
There are 4 groups of distinct atoms

 Group   1 Type C   : 12s5p4d2f1g contracted to 6s4p3d1f1g pattern {711111/2111/211/2/1}
 Group   2 Type H   : 5s2p1d contracted to 3s1p1d pattern {311/2/1}
 Group   3 Type O   : 12s5p4d2f1g contracted to 6s4p3d1f1g pattern {711111/2111/211/2/1}
 Group   4 Type N   : 12s5p4d2f1g contracted to 6s4p3d1f1g pattern {711111/2111/211/2/1}

Atom   0C    basis set group =>   1
Atom   1H    basis set group =>   2
Atom   2C    basis set group =>   1
Atom   3H    basis set group =>   2
Atom   4C    basis set group =>   1
Atom   5O    basis set group =>   3
Atom   6C    basis set group =>   1
Atom   7C    basis set group =>   1
Atom   8C    basis set group =>   1
Atom   9C    basis set group =>   1
Atom  10H    basis set group =>   2
Atom  11C    basis set group =>   1
Atom  12H    basis set group =>   2
Atom  13C    basis set group =>   1
Atom  14H    basis set group =>   2
Atom  15O    basis set group =>   3
Atom  16H    basis set group =>   2
Atom  17O    basis set group =>   3
Atom  18C    basis set group =>   1
Atom  19H    basis set group =>   2
Atom  20H    basis set group =>   2
Atom  21H    basis set group =>   2
Atom  22C    basis set group =>   1
Atom  23H    basis set group =>   2
Atom  24C    basis set group =>   1
Atom  25H    basis set group =>   2
Atom  26C    basis set group =>   1
Atom  27O    basis set group =>   3
Atom  28C    basis set group =>   1
Atom  29C    basis set group =>   1
Atom  30C    basis set group =>   1
Atom  31C    basis set group =>   1
Atom  32H    basis set group =>   2
Atom  33C    basis set group =>   1
Atom  34H    basis set group =>   2
Atom  35C    basis set group =>   1
Atom  36H    basis set group =>   2
Atom  37O    basis set group =>   3
Atom  38H    basis set group =>   2
Atom  39O    basis set group =>   3
Atom  40C    basis set group =>   1
Atom  41H    basis set group =>   2
Atom  42H    basis set group =>   2
Atom  43H    basis set group =>   2
Atom  44C    basis set group =>   1
Atom  45H    basis set group =>   2
Atom  46H    basis set group =>   2
Atom  47O    basis set group =>   3
Atom  48O    basis set group =>   3
Atom  49N    basis set group =>   4
------------------------------------------------------------------------------
                             ORCA STARTUP CALCULATIONS
                           -- RI-GTO INTEGRALS CHOSEN --
------------------------------------------------------------------------------
------------------------------------------------------------------------------
                   ___                                                        
                  /   \      - P O W E R E D   B Y -                         
                 /     \                                                     
                 |  |  |   _    _      __       _____    __    __             
                 |  |  |  | |  | |    /  \     |  _  \  |  |  /  |          
                  \  \/   | |  | |   /    \    | | | |  |  | /  /          
                 / \  \   | |__| |  /  /\  \   | |_| |  |  |/  /          
                |  |  |   |  __  | /  /__\  \  |    /   |      \           
                |  |  |   | |  | | |   __   |  |    \   |  |\   \          
                \     /   | |  | | |  |  |  |  | |\  \  |  | \   \       
                 \___/    |_|  |_| |__|  |__|  |_| \__\ |__|  \__/        
                                                                              
                      - O R C A' S   B I G   F R I E N D -                    
                                      &                                       
                       - I N T E G R A L  F E E D E R -                       
                                                                              
 v1 FN, 2020, v2 2021, v3 2022-2024                                           
------------------------------------------------------------------------------


----------------------
SHARK INTEGRAL PACKAGE
----------------------

Number of atoms                             ...     50
Number of basis functions                   ...    720
Number of shells                            ...    360
Maximum angular momentum                    ...      2
Integral batch strategy                     ... SHARK/LIBINT Hybrid
RI-J (if used) integral strategy            ... SPLIT-RIJ (Revised 2003 algorithm where possible)
Printlevel                                  ...      1
Contraction scheme used                     ... SEGMENTED contraction
Prescreening option                         ... SCHWARTZ
   Thresh                                   ... 2.500e-11
   Tcut                                     ... 2.500e-12
   Tpresel                                  ... 2.500e-12 
Coulomb Range Separation                    ... NOT USED
Exchange Range Separation                   ... Long Range
   Mu parameter                             ... 3.000e-01
   Scaling (regular/separated)              ... 1.500e-01 8.500e-01
Multipole approximations                    ... NOT USED
Finite Nucleus Model                        ... NOT USED
CABS basis                                  ... NOT available
Auxiliary Coulomb fitting basis             ... AVAILABLE
   # of basis functions in Aux-J            ...   1690
   # of shells in Aux-J                     ...    550
   Maximum angular momentum in Aux-J        ...      4
Auxiliary J/K fitting basis                 ... NOT available
Auxiliary Correlation fitting basis         ... NOT available
Auxiliary 'external' fitting basis          ... NOT available

Checking pre-screening integrals            ... done (  0.0 sec) Dimension = 360
Check shell pair data                       ... done (  0.0 sec)
Shell pair information
Shell pair cut-off parameter TPreSel        ...   2.5e-12
Total number of shell pairs                 ...     64980
Shell pairs after pre-screening             ...     43477
Total number of primitive shell pairs       ...    225475
Primitive shell pairs kept                  ...     94763
          la=0 lb=0:  13882 shell pairs
          la=1 lb=0:  17860 shell pairs
          la=1 lb=1:   5652 shell pairs
          la=2 lb=0:   3498 shell pairs
          la=2 lb=1:   2359 shell pairs
          la=2 lb=2:    226 shell pairs

Calculating one electron integrals          ... done (  0.2 sec)
Calculating RI/J V-Matrix + Cholesky decomp.... done (  0.5 sec)
Calculating Nuclear repulsion               ... done (  0.0 sec) ENN=   2842.999524885229 Eh

Diagonalization of the overlap matrix:
Smallest eigenvalue                        ... 2.986e-07
Time for diagonalization                   ...    0.048 sec
Threshold for overlap eigenvalues          ... 1.000e-07
Number of eigenvalues below threshold      ... 0

IMPORTANT:
Smallest eigenvalue of S below the DiffSThresh (1.000e-06) while
Thresh>1e-12 and/or TCut>1e-13! In order to avoid SCF convergence issues,
Thresh will be set to at least 1e-12 and TCut to at least 1e-13.
This can be turned off by adding %SCF DiffSThresh -1 END to the input.

Time for construction of square roots      ...    0.062 sec
Total time needed                          ...    0.119 sec

-------------------
DFT GRID GENERATION
-------------------

General Integration Accuracy     IntAcc      ... 4.388
Radial Grid Type                 RadialGrid  ... OptM3 with GC (2021)
Angular Grid (max. ang.)         AngularGrid ... 4 (Lebedev-302)
Angular grid pruning method      GridPruning ... 4 (adaptive)
[...]
108:   1369.27   0.019383   97.95  0.004417  ( 0.050705 -0.024541 -0.035273)
109:   1377.79   0.014305   72.29  0.003240  ( 0.028319  0.020701  0.044829)
110:   1450.86   0.006896   34.85  0.001483  (-0.001683 -0.023075 -0.030789)
111:   1464.55   0.004555   23.02  0.000971  ( 0.025717  0.016662  0.005622)
112:   1467.94   0.001386    7.01  0.000295  ( 0.009245  0.002769  0.014198)
113:   1474.36   0.035306  178.42  0.007473  (-0.071214 -0.048042 -0.009660)
114:   1483.33   0.003023   15.28  0.000636  (-0.011825 -0.020975  0.007502)
115:   1483.78   0.002012   10.17  0.000423  (-0.015727 -0.005621  0.012007)
116:   1489.95   0.004928   24.90  0.001032  (-0.009947 -0.017597 -0.024971)
117:   1493.38   0.000947    4.78  0.000198  (-0.003067  0.002697  0.013459)
118:   1495.33   0.010748   54.32  0.002243  (-0.025009 -0.008797 -0.039245)
119:   1501.36   0.002605   13.17  0.000542  ( 0.019812 -0.004867 -0.011195)
120:   1559.63   0.041006  207.23  0.008205  ( 0.062176 -0.005669 -0.065626)
121:   1560.82   0.080412  406.37  0.016077  ( 0.061394  0.064350  0.090372)
122:   1614.97   0.143011  722.72  0.027634  (-0.101231  0.125871 -0.039281)
123:   1665.75   0.002892   14.61  0.000542  ( 0.002764 -0.016180  0.016501)
124:   1667.93   0.008302   41.95  0.001553  (-0.023163  0.029400  0.012342)
125:   1680.04   0.096797  489.17  0.017980  (-0.076036 -0.110099 -0.008747)
126:   1691.51   0.033235  167.96  0.006131  (-0.046434 -0.034463  0.052799)
127:   1717.27   0.072926  368.54  0.013252  ( 0.073947  0.084938  0.023867)
128:   1721.44   0.098516  497.86  0.017859  ( 0.034090  0.124497 -0.034605)
129:   1730.80   0.124461  628.97  0.022440  ( 0.091209  0.088529 -0.079270)
130:   1757.00   0.061185  309.20  0.010867  ( 0.042706  0.030147 -0.090191)
131:   3044.37   0.013620   68.83  0.001396  ( 0.027770 -0.021807  0.012224)
132:   3063.32   0.010381   52.46  0.001058  ( 0.013879 -0.029257  0.002989)
133:   3080.25   0.000029    0.15  0.000003  (-0.000752  0.000090 -0.001528)
134:   3122.15   0.008603   43.48  0.000860  (-0.016770 -0.023325 -0.005883)
135:   3135.52   0.001128    5.70  0.000112  (-0.010443  0.000641 -0.001682)
136:   3146.42   0.005223   26.39  0.000518  (-0.017917 -0.004347  0.013345)
137:   3165.49   0.007271   36.75  0.000717  ( 0.002703 -0.000500 -0.026632)
138:   3181.11   0.001140    5.76  0.000112  ( 0.007759  0.007027  0.001507)
139:   3182.81   0.005232   26.44  0.000513  ( 0.006908  0.012160  0.017817)
140:   3182.86   0.002104   10.63  0.000206  (-0.007758 -0.008465 -0.008627)
141:   3184.53   0.000351    1.77  0.000034  (-0.003857  0.004413  0.000116)
142:   3190.00   0.000365    1.84  0.000036  ( 0.002483 -0.003683 -0.003996)
143:   3192.15   0.001199    6.06  0.000117  ( 0.007038  0.000184  0.008223)
144:   3192.51   0.001971    9.96  0.000193  (-0.009532  0.002228  0.009841)
145:   3197.51   0.002563   12.95  0.000250  ( 0.003756  0.007859 -0.013201)
146:   3205.72   0.001108    5.60  0.000108  (-0.000452  0.003477 -0.009778)
147:   3209.64   0.000781    3.95  0.000076  (-0.004871 -0.006863 -0.002266)
148:   3794.31   0.042233  213.43  0.003473  ( 0.052810  0.019180 -0.017797)
149:   3797.05   0.037467  189.35  0.003079  (-0.034657 -0.042710  0.007355)

* The epsilon (eps) is given for a Dirac delta lineshape.
** The dipole moment derivative (T) already includes vibrational overlap.

The first frequency considered to be a vibration is 7
The total number of vibrations considered is 143


--------------------------
THERMOCHEMISTRY AT 363.15K
--------------------------

Temperature         ...   363.15 K
Pressure            ...     1.00 atm
Total Mass          ...   414.39 AMU
Quasi RRHO          ...     True
Cut-Off Frequency   ...     1.00 cm^-1

Throughout the following assumptions are being made:
  (1) The electronic state is orbitally nondegenerate
      but the spin degeneracy is treated
  (2) There are no thermally accessible electronically excited states
  (3) Hindered rotations indicated by low frequency modes are not
      treated as such but are treated as vibrations and this may
      cause some error
  (4) All equations used are the standard statistical mechanics
      equations for an ideal gas
  (5) All vibrations are strictly harmonic

freq.      25.31  E(vib)   ...       0.69 
freq.      30.72  E(vib)   ...       0.68 
freq.      36.43  E(vib)   ...       0.67 
freq.      43.31  E(vib)   ...       0.66 
freq.      54.27  E(vib)   ...       0.65 
freq.      56.77  E(vib)   ...       0.64 
freq.      61.36  E(vib)   ...       0.64 
freq.      65.27  E(vib)   ...       0.63 
freq.      72.43  E(vib)   ...       0.62 
freq.      73.76  E(vib)   ...       0.62 
freq.      78.69  E(vib)   ...       0.62 
freq.     100.14  E(vib)   ...       0.59 
freq.     108.08  E(vib)   ...       0.58 
freq.     113.51  E(vib)   ...       0.57 
freq.     122.80  E(vib)   ...       0.56 
freq.     126.45  E(vib)   ...       0.56 
freq.     137.66  E(vib)   ...       0.54 
freq.     146.19  E(vib)   ...       0.53 
freq.     151.68  E(vib)   ...       0.53 
freq.     158.84  E(vib)   ...       0.52 
freq.     173.63  E(vib)   ...       0.50 
freq.     185.00  E(vib)   ...       0.49 
freq.     199.70  E(vib)   ...       0.47 
freq.     209.33  E(vib)   ...       0.46 
freq.     223.79  E(vib)   ...       0.45 
freq.     229.60  E(vib)   ...       0.44 
freq.     267.02  E(vib)   ...       0.41 
freq.     297.69  E(vib)   ...       0.38 
freq.     308.21  E(vib)   ...       0.37 
freq.     317.88  E(vib)   ...       0.36 
freq.     328.80  E(vib)   ...       0.35 
freq.     338.02  E(vib)   ...       0.34 
freq.     359.81  E(vib)   ...       0.33 
freq.     378.28  E(vib)   ...       0.31 
freq.     379.84  E(vib)   ...       0.31 
freq.     401.47  E(vib)   ...       0.29 
freq.     407.38  E(vib)   ...       0.29 
freq.     432.00  E(vib)   ...       0.27 
freq.     442.23  E(vib)   ...       0.27 
freq.     459.15  E(vib)   ...       0.25 
freq.     467.15  E(vib)   ...       0.25 
freq.     483.23  E(vib)   ...       0.24 
freq.     498.18  E(vib)   ...       0.23 
freq.     523.43  E(vib)   ...       0.22 
freq.     559.78  E(vib)   ...       0.20 
freq.     567.59  E(vib)   ...       0.19 
freq.     580.39  E(vib)   ...       0.19 
freq.     593.86  E(vib)   ...       0.18 
freq.     605.88  E(vib)   ...       0.17 
freq.     617.00  E(vib)   ...       0.17 
freq.     634.23  E(vib)   ...       0.16 
freq.     647.06  E(vib)   ...       0.15 
freq.     679.13  E(vib)   ...       0.14 
freq.     719.13  E(vib)   ...       0.13 
freq.     742.01  E(vib)   ...       0.12 
freq.     754.74  E(vib)   ...       0.11 
freq.     764.96  E(vib)   ...       0.11 
freq.     773.50  E(vib)   ...       0.11 
freq.     811.59  E(vib)   ...       0.10 
freq.     820.29  E(vib)   ...       0.09 
freq.     829.81  E(vib)   ...       0.09 
freq.     837.72  E(vib)   ...       0.09 
freq.     841.36  E(vib)   ...       0.09 
freq.     852.11  E(vib)   ...       0.09 
freq.     880.66  E(vib)   ...       0.08 
freq.     887.88  E(vib)   ...       0.08 
freq.     916.74  E(vib)   ...       0.07 
freq.     923.25  E(vib)   ...       0.07 
freq.     957.28  E(vib)   ...       0.06 
freq.     969.22  E(vib)   ...       0.06 
freq.     971.44  E(vib)   ...       0.06 
freq.     976.24  E(vib)   ...       0.06 
freq.     988.47  E(vib)   ...       0.06 
freq.    1009.68  E(vib)   ...       0.05 
freq.    1014.79  E(vib)   ...       0.05 
freq.    1018.41  E(vib)   ...       0.05 
freq.    1058.42  E(vib)   ...       0.05 
freq.    1099.55  E(vib)   ...       0.04 
freq.    1140.18  E(vib)   ...       0.04 
freq.    1155.96  E(vib)   ...       0.03 
freq.    1174.97  E(vib)   ...       0.03 
freq.    1176.86  E(vib)   ...       0.03 
freq.    1183.17  E(vib)   ...       0.03 
freq.    1187.92  E(vib)   ...       0.03 
freq.    1191.07  E(vib)   ...       0.03 
freq.    1198.70  E(vib)   ...       0.03 
freq.    1210.58  E(vib)   ...       0.03 
freq.    1221.68  E(vib)   ...       0.03 
freq.    1236.37  E(vib)   ...       0.03 
freq.    1248.93  E(vib)   ...       0.03 
freq.    1267.83  E(vib)   ...       0.02 
freq.    1286.52  E(vib)   ...       0.02 
freq.    1296.84  E(vib)   ...       0.02 
freq.    1305.21  E(vib)   ...       0.02 
freq.    1308.35  E(vib)   ...       0.02 
freq.    1314.66  E(vib)   ...       0.02 
freq.    1321.77  E(vib)   ...       0.02 
freq.    1337.74  E(vib)   ...       0.02 
freq.    1343.68  E(vib)   ...       0.02 
freq.    1352.51  E(vib)   ...       0.02 
freq.    1366.25  E(vib)   ...       0.02 
freq.    1369.27  E(vib)   ...       0.02 
freq.    1377.79  E(vib)   ...       0.02 
freq.    1450.86  E(vib)   ...       0.01 
freq.    1464.55  E(vib)   ...       0.01 
freq.    1467.94  E(vib)   ...       0.01 
freq.    1474.36  E(vib)   ...       0.01 
freq.    1483.33  E(vib)   ...       0.01 
freq.    1483.78  E(vib)   ...       0.01 
freq.    1489.95  E(vib)   ...       0.01 
freq.    1493.38  E(vib)   ...       0.01 
freq.    1495.33  E(vib)   ...       0.01 
freq.    1501.36  E(vib)   ...       0.01 
freq.    1559.63  E(vib)   ...       0.01 
freq.    1560.82  E(vib)   ...       0.01 
freq.    1614.97  E(vib)   ...       0.01 
freq.    1665.75  E(vib)   ...       0.01 
freq.    1667.93  E(vib)   ...       0.01 
freq.    1680.04  E(vib)   ...       0.01 
freq.    1691.51  E(vib)   ...       0.01 
freq.    1717.27  E(vib)   ...       0.01 
freq.    1721.44  E(vib)   ...       0.01 
freq.    1730.80  E(vib)   ...       0.01 
freq.    1757.00  E(vib)   ...       0.00 
freq.    3044.37  E(vib)   ...       0.00 
freq.    3063.32  E(vib)   ...       0.00 
freq.    3080.25  E(vib)   ...       0.00 
freq.    3122.15  E(vib)   ...       0.00 
freq.    3135.52  E(vib)   ...       0.00 
freq.    3146.42  E(vib)   ...       0.00 
freq.    3165.49  E(vib)   ...       0.00 
freq.    3181.11  E(vib)   ...       0.00 
freq.    3182.81  E(vib)   ...       0.00 
freq.    3182.86  E(vib)   ...       0.00 
freq.    3184.53  E(vib)   ...       0.00 
freq.    3190.00  E(vib)   ...       0.00 
freq.    3192.15  E(vib)   ...       0.00 
freq.    3192.51  E(vib)   ...       0.00 
freq.    3197.51  E(vib)   ...       0.00 
freq.    3205.72  E(vib)   ...       0.00 
freq.    3209.64  E(vib)   ...       0.00 
freq.    3794.31  E(vib)   ...       0.00 
freq.    3797.05  E(vib)   ...       0.00 

------------
INNER ENERGY
------------

The inner energy is: U= E(el) + E(ZPE) + E(vib) + E(rot) + E(trans)
    E(el)   - is the total energy from the electronic structure calculation
              = E(kin-el) + E(nuc-el) + E(el-el) + E(nuc-nuc)
    E(ZPE)  - the the zero temperature vibrational energy from the frequency calculation
    E(vib)  - the the finite temperature correction to E(ZPE) due to population
              of excited vibrational states
    E(rot)  - is the rotational thermal energy
    E(trans)- is the translational thermal energy

Summary of contributions to the inner energy U:
Electronic energy                ...  -1468.47338142 Eh
Zero point energy                ...      0.37360397 Eh     234.44 kcal/mol
Thermal vibrational correction   ...      0.03937778 Eh      24.71 kcal/mol
Thermal rotational correction    ...      0.00172503 Eh       1.08 kcal/mol
Thermal translational correction ...      0.00172503 Eh       1.08 kcal/mol
-----------------------------------------------------------------------
Total thermal energy                  -1468.05694959 Eh


Summary of corrections to the electronic energy:
(perhaps to be used in another calculation)
Total thermal correction                  0.04282785 Eh      26.87 kcal/mol
Non-thermal (ZPE) correction              0.37360397 Eh     234.44 kcal/mol
-----------------------------------------------------------------------
Total correction                          0.41643183 Eh     261.31 kcal/mol


--------
ENTHALPY
--------

The enthalpy is H = U + kB*T
                kB is Boltzmann's constant
Total thermal energy              ...  -1468.05694959 Eh 
Thermal Enthalpy correction       ...      0.00115006 Eh       0.72 kcal/mol
-----------------------------------------------------------------------
Total Enthalpy                    ...  -1468.05579954 Eh


Note: Only C1 symmetry has been detected, increase convergence thresholds 
      if your molecule has a higher symmetry. Symmetry factor of 1.0 is   
      used for the rotational entropy correction. 
 

Note: Rotational entropy computed according to Herzberg 
Infrared and Raman Spectra, Chapter V,1, Van Nostrand Reinhold, 1945 
Point Group:  C1, Symmetry Number:   1  
Rotational constants in cm-1:     0.007325     0.002631     0.002232 

Vibrational entropy computed according to the QRRHO of S. Grimme
Chem.Eur.J. 2012 18 9955 using a reference frequency of 100.0 cm-1


-------
ENTROPY
-------

The entropy contributions are T*S = T*(S(el)+S(vib)+S(rot)+S(trans))
     S(el)   - electronic entropy
     S(vib)  - vibrational entropy
     S(rot)  - rotational entropy
     S(trans)- translational entropy
The entropies will be listed as multiplied by the temperature to get
units of energy

Electronic entropy                ...      0.00079714 Eh      0.50 kcal/mol
Vibrational entropy               ...      0.07261904 Eh     45.57 kcal/mol
Rotational entropy                ...      0.02167768 Eh     13.60 kcal/mol
Translational entropy             ...      0.02600477 Eh     16.32 kcal/mol
-----------------------------------------------------------------------
Final entropy term                ...      0.12109862 Eh     75.99 kcal/mol

In case the symmetry of your molecule has not been determined correctly
or in case you have a reason to use a different symmetry number we print 
out the resulting rotational entropy values for sn=1,12:

 non-linear molecules -----------------------------------
|  sn= 1 | S(rot)=       0.02167768 Eh     13.60 kcal/mol|
|  sn= 2 | S(rot)=       0.02088054 Eh     13.10 kcal/mol|
|  sn= 3 | S(rot)=       0.02041425 Eh     12.81 kcal/mol|
|  sn= 4 | S(rot)=       0.02008341 Eh     12.60 kcal/mol|
|  sn= 5 | S(rot)=       0.01982679 Eh     12.44 kcal/mol|
|  sn= 6 | S(rot)=       0.01961711 Eh     12.31 kcal/mol|
|  sn= 7 | S(rot)=       0.01943983 Eh     12.20 kcal/mol|
|  sn= 8 | S(rot)=       0.01928627 Eh     12.10 kcal/mol|
|  sn= 9 | S(rot)=       0.01915082 Eh     12.02 kcal/mol|
|  sn=10 | S(rot)=       0.01902965 Eh     11.94 kcal/mol|
|  sn=11 | S(rot)=       0.01892004 Eh     11.87 kcal/mol|
|  sn=12 | S(rot)=       0.01881998 Eh     11.81 kcal/mol|
 linear molecules ---------------------------------------
|  Dinfh | S(rot)=       0.01373447 Eh      8.62 kcal/mol|
|  Cinfv | S(rot)=       0.01453161 Eh      9.12 kcal/mol|
 --------------------------------------------------------


-------------------
GIBBS FREE ENERGY
-------------------

The Gibbs free energy is G = H - T*S

Total enthalpy                    ...  -1468.05579954 Eh 
Total entropy correction          ...     -0.12109862 Eh    -75.99 kcal/mol
-----------------------------------------------------------------------
Final Gibbs free energy         ...  -1468.17689816 Eh

For completeness - the Gibbs free energy minus the electronic energy
G-E(el)                           ...      0.29648326 Eh    186.05 kcal/mol



--------------------------------
SUGGESTED CITATIONS FOR THIS RUN
--------------------------------

Below you find a list of papers that are relevant to this ORCA run
We neither can nor want to force you to cite these papers, but we appreciate if you do
You receive ORCA, which is the product of decades of hard work by many enthusiastic individuals, for free
The only thing we kindly ask in return is that you cite our papers,
We deeply appreciate it, if you show your appreciation for ORCA by not just citing the generic ORCA reference.

Please note that relegating all ORCA citations to the supporting information does *not* help us.
SI sections are not indexed - citations you put there will not count into any citation statistics
But we need these citations in order to attract the funding resources that allow us to do what we are doing

Therefore, if you are a happy ORCA user, please consider citing a few of the papers listed below in the main body of your paper

In addition to the list printed below, the program has created the file CURCUMIN-OPT-FREQ-Prod-1-wB97XM-V-6-311+G-D-363.bibtex that contains the list in bibtex format
You can import this file easily into all common literature databanks and citation aid programs


List of essential papers. We consider these as the minimum necessary citations

  1. Neese,F.
     Software update: the ORCA program system, version 5.0
     WIRES Comput. Molec. Sci., 2022 12(1)e1606
     doi.org/10.1002/wcms.1606

List of papers to cite with high priority. The work reported in these papers was absolutely
necessary for this run to complete.
Our perspective: the developers of density functionals and basis sets usually get cited in chemistry papers
Good! But without the algorithms to do something with them, the functionals or basis sets would not do anything.
Hence, in our opinion, the algorithm design and method developments papers are equally worthy of getting cited

  1. Neese,F.
     An improvement of the resolution of the identity approximation for the formation of the Coulomb matrix
     J. Comp. Chem., 2003 24(14)1740-1747
     doi.org/10.1002/jcc.10318
  2. Bykov,D.; Petrenko,T.; Izsak,R.; Kossmann,S.; Becker,U.; Valeev,E.; Neese,F.
     Efficient implementation of the analytic second derivatives of Hartree-Fock and hybrid DFT energies: a detailed analysis of different approximations
     Molec. Phys., 2015 113 1961-1977
     doi.org/10.1080/00268976.2015.1025114
  3. Garcia-Rates,M.; Neese,F.
     Effect of the Solute Cavity on the Solvation Energy and its Derivatives within the Framework of the Gaussian Charge Scheme
     J. Comput. Chem., 2020 41 922-939
     doi.org/10.1002/jcc.26139
  4. Neese,F.
     The SHARK Integral Generation and Digestion System
     J. Comp. Chem., 2022  1-16
     doi.org/10.1002/jcc.26942
  5. Lehtola,S.; Steigemann,C.; Oliveira,M.; Marques,M.
     Recent developments in Libxc - A comprehensive library of functionals for density functional theory
     Software X, 2018 7 
     doi.org/10.1016/j.softx.2017.11.002

List of suggested additional citations. These are papers that are important in the 'surrounding' of 
of this run, or papers that preceded the highly important papers. If you like your results we are grateful for a citation.

  1. Neese,F.
     The ORCA program system
     WIRES Comput. Molec. Sci., 2012 2(1)73-78
     doi.org/10.1002/wcms.81
  2. Neese,F.
     Software update: the ORCA program system, version 4.0
     WIRES Comput. Molec. Sci., 2018 8(1)1-6
     doi.org/10.1002/wcms.1327
  3. Neese,F.; Wennmohs,F.; Becker,U.; Riplinger,C.
     The ORCA quantum chemistry program package
     J. Chem. Phys., 2020 152 Art. No. L224108
     doi.org/10.1063/5.0004608

List of optional additional citations

  1. Neese,F.
     Approximate second-order SCF convergence for spin unrestricted wavefunctions
     Chem. Phys. Lett., 2000 325(1-3)93-98
     doi.org/10.1016/s0009-2614(00)00662-x

Timings for individual modules:

Sum of individual times          ...   736671.472 sec (=12277.858 min)
Startup calculation              ...       80.847 sec (=   1.347 min)   0.0 %
SCF iterations                   ...    31578.787 sec (= 526.313 min)   4.3 %
Property calculations            ...        0.125 sec (=   0.002 min)   0.0 %
SCF Gradient evaluation          ...     9558.434 sec (= 159.307 min)   1.3 %
Geometry relaxation              ...        1.818 sec (=   0.030 min)   0.0 %
Numerical frequency calculation  ...   695451.461 sec (=11590.858 min)  94.4 %
                             ****ORCA TERMINATED NORMALLY****
TOTAL RUN TIME: 8 days 12 hours 16 minutes 6 seconds 414 msec
