
                                 *****************
                                 * O   R   C   A *
                                 *****************

                                            #,                                       
                                            ###                                      
                                            ####                                     
                                            #####                                    
                                            ######                                   
                                           ########,                                 
                                     ,,################,,,,,                         
                               ,,#################################,,                 
                          ,,##########################################,,             
                       ,#########################################, ''#####,          
                    ,#############################################,,   '####,        
                  ,##################################################,,,,####,       
                ,###########''''           ''''###############################       
              ,#####''   ,,,,##########,,,,          '''####'''          '####       
            ,##' ,,,,###########################,,,                        '##       
           ' ,,###''''                  '''############,,,                           
         ,,##''                                '''############,,,,        ,,,,,,###''
      ,#''                                            '''#######################'''  
     '                                                          ''''####''''         
             ,#######,   #######,   ,#######,      ##                                
            ,#'     '#,  ##    ##  ,#'     '#,    #''#        ,####,   ,####,        
            ##       ##  ##   ,#'  ##            #'  '#       #'       #'  '#        
            ##       ##  #######   ##           ,######,      #####,   #    #        
            '#,     ,#'  ##    ##  '#,     ,#' ,#      #,     #,   #   #,  ,#        
             '#######'   ##     ##  '#######'  #'      '#     '####' # '####'        



                #########################################################
                #                        -***-                          #
                #          Department of theory and spectroscopy        #
                #                                                       #
                #                      Frank Neese                      #
                #                                                       #
                #     Directorship, Architecture, Infrastructure        #
                #                    SHARK, DRIVERS                     #
                #        Core code/Algorithms in most modules           #
                #                                                       #
                #        Max Planck Institute fuer Kohlenforschung      #
                #                Kaiser Wilhelm Platz 1                 #
                #                 D-45470 Muelheim/Ruhr                 #
                #                      Germany                          #
                #                                                       #
                #                  All rights reserved                  #
                #                        -***-                          #
                #########################################################


                         Program Version 6.0.0  -   RELEASE  -


 With contributions from (in alphabetic order):
   Daniel Aravena         : Magnetic Suceptibility
   Michael Atanasov       : Ab Initio Ligand Field Theory (pilot matlab implementation)
   Alexander A. Auer      : GIAO ZORA, VPT2 properties, NMR spectrum
   Ute Becker             : All parallelization in ORCA, NUMFREQ, NUMCALC
   Giovanni Bistoni       : ED, misc. LED, open-shell LED, HFLD
   Martin Brehm           : Molecular dynamics
   Dmytro Bykov           : pre 5.0 version of the SCF Hessian
   Marcos Casanova-Páez   : Triplet and SCS-CIS(D). UHF-(DLPNO)-IP/EA/STEOM-CCSD. UHF-CVS-IP/STEOM-CCSD
   Vijay G. Chilkuri      : MRCI spin determinant printing, contributions to CSF-ICE
   Pauline Colinet        : FMM embedding
   Dipayan Datta          : RHF DLPNO-CCSD density
   Achintya Kumar Dutta   : EOM-CC, STEOM-CC
   Nicolas Foglia         : Exact transition moments, OPA infrastructure, MCD improvements
   Dmitry Ganyushin       : Spin-Orbit,Spin-Spin,Magnetic field MRCI
   Miquel Garcia          : C-PCM and meta-GGA Hessian, CCSD/C-PCM, Gaussian charge scheme
   Tiago L. C. Gouveia    : GS-ROHF, GS-ROCIS
   Yang Guo               : DLPNO-NEVPT2, F12-NEVPT2, CIM, IAO-localization
   Andreas Hansen         : Spin unrestricted coupled pair/coupled cluster methods
   Ingolf Harden          : AUTO-CI MPn and infrastructure 
   Benjamin Helmich-Paris : MC-RPA, TRAH-(SCF,CASSCF), AVAS, COSX integrals, SCF dyn. polar.
   Lee Huntington         : MR-EOM, pCC
   Robert Izsak           : Overlap fitted RIJCOSX, COSX-SCS-MP3, EOM
   Riya Kayal             : Wick's Theorem for AUTO-CI, AUTO-CI UHF-CCSDT
   Emily Kempfer          : AUTO-CI, RHF CISDT and CCSDT
   Christian Kollmar      : KDIIS, OOCD, Brueckner-CCSD(T), CCSD density, CASPT2, CASPT2-K, improved NEVPT2
   Axel Koslowski         : Symmetry handling
   Simone Kossmann        : Meta GGA functionals, TD-DFT gradient, OOMP2, (MP2 Hessian; deprecated post 5.0)
   Lucas Lang             : DCDCAS
   Marvin Lechner         : AUTO-CI (C++ implementation), FIC-MRCC
   Spencer Leger          : CASSCF response
   Dagmar Lenk            : GEPOL surface, SMD, ORCA-2-JSON
   Dimitrios Liakos       : Extrapolation schemes; Compound Job, initial MDCI parallelization
   Dimitrios Manganas     : Further ROCIS development; embedding schemes. LFT, Crystal Embedding
   Dimitrios Pantazis     : SARC Basis sets
   Anastasios Papadopoulos: AUTO-CI, single reference methods and gradients
   Taras Petrenko         : pre 6.0 DFT Hessian and TD-DFT gradient, (ASA, deprecated), ECA, 1-Electron XAS/XES, NRVS
   Peter Pinski           : DLPNO-MP2, DLPNO-MP2 Gradient
   Christoph Reimann      : Effective Core Potentials
   Marius Retegan         : Local ZFS, SOC
   Christoph Riplinger    : Optimizer, TS searches, QM/MM, DLPNO-CCSD(T), (RO)-DLPNO pert. Triples
   Michael Roemelt        : Original ROCIS implementation
   Masaaki Saitow         : Open-shell DLPNO-CCSD energy and density
   Barbara Sandhoefer     : DKH picture change effects
   Kantharuban Sivalingam : CASSCF convergence/infrastructure, NEVPT2 and variants, FIC-MRCI
   Bernardo de Souza      : ESD, SOC TD-DFT
   Georgi Stoychev        : AutoAux, RI-MP2 NMR, DLPNO-MP2 response, X2C
   Van Anh Tran           : RI-MP2 g-tensors
   Willem Van den Heuvel  : Paramagnetic NMR
   Zikuan Wang            : NOTCH, Electric field optimization 
   Frank Wennmohs         : Technical directorship and infrastructure
   Hang Xu                : AUTO-CI-Response properties 


 We gratefully acknowledge several colleagues who have allowed us to
 interface, adapt or use parts of their codes:
   Stefan Grimme, W. Hujo, H. Kruse, P. Pracht,  : VdW corrections, initial TS optimization,
                  C. Bannwarth, S. Ehlert,         DFT functionals, gCP, sTDA/sTD-DF
                  L. Wittmann, M. Mueller
   Ed Valeev, F. Pavosevic, A. Kumar             : LibInt (2-el integral package), F12 methods
   Garnet Chan, S. Sharma, J. Yang, R. Olivares  : DMRG
   Ulf Ekstrom                                   : XCFun DFT Library
   Mihaly Kallay                                 : mrcc  (arbitrary order and MRCC methods)
   Frank Weinhold                                : gennbo (NPA and NBO analysis)
   Simon Mueller                                 : openCOSMO-RS
   Christopher J. Cramer and Donald G. Truhlar   : smd solvation model
   Lars Goerigk                                  : TD-DFT with DH, B97 family of functionals
   V. Asgeirsson, H. Jonsson                     : NEB implementation
   FAccTs GmbH                                   : IRC, NEB, NEB-TS, DLPNO-Multilevel, CI-OPT
                                                   MM, QMMM, 2- and 3-layer-ONIOM, Crystal-QMMM,
                                                   LR-CPCM, SF, NACMEs, symmetry and pop. for TD-DFT,
                                                   nearIR, NL-DFT gradient (VV10), updates on ESD,
                                                   ML-optimized integration grids, MBIS, APM,
                                                   GOAT, DOCKER, SOLVATOR, interface openCOSMO-RS
   S Lehtola, MJT Oliveira, MAL Marques          : LibXC Library
   Liviu Ungur et al                             : ANISO software


 Your calculation uses the libint2 library for the computation of 2-el integrals
 For citations please refer to: http://libint.valeyev.net

 Your ORCA version has been built with support for libXC version: 6.2.2
 For citations please refer to: https://libxc.gitlab.io

 This ORCA versions uses:
   CBLAS   interface :  Fast vector & matrix operations
   LAPACKE interface :  Fast linear algebra routines
   SCALAPACK package :  Parallel linear algebra routines
   Shared memory     :  Shared parallel matrices
   BLAS/LAPACK       :  OpenBLAS 0.3.27  USE64BITINT DYNAMIC_ARCH NO_AFFINITY Cooperlake SINGLE_THREADED
        Core in use  :  Cooperlake
   Copyright (c) 2011-2014, The OpenBLAS Project


NOTE: MaxCore=2000 MB was set to SCF,MP2,MDCI,CIPSI,MRCI and CIS
      => If you want to overwrite this, your respective input block should be placed after the MaxCore statement
Your calculation utilizes the DFT-NL dispersion correction.
Cite in your paper:
Vydrov, O. A.; Van Voorhis, T. J. Chem. Phys. 2010, 133, 244103
Hujo, W.; Grimme, S. J. Chem. Theory Comput. 2011, 7, 3866 
   

Warning: RI is on but no J-basis has been assigned. Assigning Def2/J (nothing to worry about!)
================================================================================

----- Orbital basis set information -----
Your calculation utilizes the basis: 6-311G(d)
   H, Li - Ne  : R. Krishnan, J. S. Binkley, R. Seeger and J. A. Pople, J. Chem. Phys. 72, 650 (1980).
   Na - Ar     : A. D. McLean and G. S. Chandler J. Chem. Phys. 72, 5639, (1980).
   K  - Ca     : J.-P. Blaudeau, M. P. McGrath, L. A. Curtiss and L. Radom, J. Chem. Phys. 107, 5016 (1997).
   Ga - Kr     : L. A. Curtiss, M. P. McGrath, J.-P. Blandeau, N. E. Davis, R. C. Binning and L. Radom, J. Chem. Phys. 103, 6104 (1995).
   Pol./Diff.
   H, Li - Cl  : T. Clark, J. Chandrasekhar and P. v. R. Schleyer, J. Comp. Chem. 4, 294 (1983).
   H - Ne      : M. J. Frisch, J. A. Pople and J. S. Binkley, J. Chem. Phys. 80, 3265 (1984).

----- AuxJ basis set information -----
Your calculation utilizes the auxiliary basis: def2/J
   F. Weigend, Phys. Chem. Chem. Phys. 8, 1057 (2006).

================================================================================
                                        WARNINGS
                       Please study these warnings very carefully!
================================================================================

Using LibXC functional ID 531 : wB97M-V exchange-correlation functional
[ 1]  N. Mardirossian and M. Head-Gordon.,  J. Chem. Phys. 144, 214110 (2016)
Using LibXC functional ID 531 : wB97M-V exchange-correlation functional
[ 1]  N. Mardirossian and M. Head-Gordon.,  J. Chem. Phys. 144, 214110 (2016)

WARNING: B97M-V or wB97M-V functional requested.
  ===> : libXC variant has now been activated.
         Any manually given DFX/HFX/RangeSep scaling parameters are IGNORED!

Your calculation utilizes LibXC
 by S Lehtola, C Steigemann, MJT Oliveira & MAL Marques
Please cite in your paper:
 S Lehtola, C Steigemann, MJT Oliveira & MAL Marques, SoftwareX, 7, (2018), 1.
   


WARNING: your system is open-shell and RHF/RKS was chosen
  ===> : WILL SWITCH to UHF/UKS


WARNING: Geometry Optimization
  ===> : Switching off AutoStart
         For restart on a previous wavefunction, please use MOREAD

WARNING: Analytic gradients for DFT-NL dispersion can only be done using the self-consistent method,
  ===>   Switching to SCNL

WARNING: Self-consistent DFT-NL dispersion not compatible with AutoTRAH.
  ===>   Switching AutoTRAH off


================================================================================
                                       INPUT FILE
================================================================================
NAME = CURCUMIN-OPT-FREQ-TS2-WB97M-V-6-311G-D-363.inp
|  1> ! OptTS NumFreq wb97M-V 6-311G(d) CPCM RIJDX
|  2> %maxcore 2000
|  3> %cpcm
|  4> epsilon 7 # Dielectric constant
|  5> refrac 1.85341 # Refractive index
|  6> end
|  7> %FREQ TEMP 363.15 END
|  8> 
|  9> * xyz 0 2
| 10>   C   -2.48971688470877      0.37768226797686     -0.27085009533357
| 11>   H   -2.06801894493444      0.79462391153286     -1.18311930115652
| 12>   C   -1.80794736360245      0.50377390776978      0.87857793854240
| 13>   H   -2.18455223650640      0.12108847754994      1.82222826568425
| 14>   C   -0.51597619490823      1.18915934693820      0.99088525089131
| 15>   O   0.04739188020689      1.32609668632416      2.06287318713304
| 16>   C   -3.78794073082547     -0.27056143381060     -0.45290088283715
| 17>   C   -4.34952245353979     -0.30379684634216     -1.73085090525175
| 18>   C   -4.49562632542596     -0.86791665976984      0.60202351632114
| 19>   C   -5.58080743309033     -0.90583437917996     -1.95695357585805
| 20>   H   -3.81940301184616      0.15107777026741     -2.56181588163407
| 21>   C   -5.72118404735477     -1.46452409553064      0.38949214805940
| 22>   H   -4.11011686211344     -0.86969163300300      1.61618005326807
| 23>   C   -6.27703248570868     -1.48721423411102     -0.90283449633107
| 24>   H   -6.01176452271251     -0.92043785348161     -2.95381150282886
| 25>   O   -7.48760954321198     -2.07804691912124     -1.04300806487773
| 26>   H   -7.76834006442584     -2.04108231837906     -1.96521645711641
| 27>   O   -6.41316629186696     -1.99879751370243      1.44707949871322
| 28>   C   -6.39507122624847     -3.43095440292974      1.47481881398130
| 29>   H   -5.36703985614664     -3.79731564028833      1.55072568994158
| 30>   H   -6.95453701873593     -3.72800655058509      2.35983850430841
| 31>   H   -6.87104820439172     -3.84593015896764      0.58422708327671
| 32>   C   2.71285002119115      0.32592848023797     -0.02601315525437
| 33>   H   1.77388838176193     -0.21101175890753     -0.14948386114024
| 34>   C   2.68926500957973      1.66388019364753      0.06235871429466
| 35>   H   3.58918405566146      2.25466670181361      0.20627673183842
| 36>   C   1.45544622591502      2.46072941026833      0.01580821274657
| 37>   O   1.46639683031007      3.66475742824313      0.18183601158917
| 38>   C   3.89302856716172     -0.53817973544512      0.03220563692319
| 39>   C   3.71865318676229     -1.92145381797370     -0.03609752527015
| 40>   C   5.19872153648354     -0.03669949846083      0.14673533306492
| 41>   C   4.80601782058433     -2.78466383289386      0.01759369712486
| 42>   H   2.71792903457966     -2.33210520898848     -0.12767001498195
| 43>   C   6.28564621681804     -0.88508047473327      0.20245216637005
| 44>   H   5.39510262316506      1.02883345277787      0.20293797392127
| 45>   C   6.09497185634760     -2.27727107605387      0.13882973713011
| 46>   H   4.65777643827726     -3.85969168135147     -0.02871600074796
| 47>   O   7.20207645240993     -3.05596633083483      0.20879762963437
| 48>   H   6.95593529559124     -3.98665277652591      0.14463503378471
| 49>   O   7.54785332402579     -0.36862452191128      0.35662563657460
| 50>   C   8.32966234901540     -0.41159967545881     -0.84289816908465
| 51>   H   7.84610362557659      0.16948211808710     -1.63372014338107
| 52>   H   9.29187822772294      0.03467714358109     -0.59880557887797
| 53>   H   8.47742861423149     -1.44038339498228     -1.17734438765667
| 54>   C   0.14333595798404      1.74327039604245     -0.25453634412465
| 55>   H   0.15411002450492      1.06693263550979     -1.11065336577586
| 56>   H   -0.60208308588831      2.64426945536665     -0.64378099501687
| 57>   O   -1.45381328588877      3.57804378795185     -0.97766959223090
| 58>   O   -2.75523479192778      4.80543146098326      0.10563120523494
| 59>   N   -1.95010068985829      3.94555939085383      0.22544662641579
| 60> *
| 61> 
| 62>                          ****END OF INPUT****
================================================================================

                       *****************************
                       * Geometry Optimization Run *
                       *****************************

Geometry optimization settings:
Update method            Update   .... Bofill
Choice of coordinates    CoordSys .... (2022) Redundant Internals
Initial Hessian          InHess   .... Almloef's Model
Max. no of cycles        MaxIter  .... 150

Convergence Tolerances:
Energy Change            TolE     ....  5.0000e-06 Eh
Max. Gradient            TolMAXG  ....  3.0000e-04 Eh/bohr
RMS Gradient             TolRMSG  ....  1.0000e-04 Eh/bohr
Max. Displacement        TolMAXD  ....  4.0000e-03 bohr
RMS Displacement         TolRMSD  ....  2.0000e-03 bohr
Strict Convergence                .... False

------------------------------------------------------------------------------
                        ORCA OPTIMIZATION COORDINATE SETUP
------------------------------------------------------------------------------

The optimization will be done in redundant internal coordinates (2022)
Making redundant internal coordinates   ...  (2022 redundants) done
Following TS mode number                ...     0
Evaluating the initial hessian          ...  (Almloef) done
Evaluating the coordinates              ...  done
Calculating the B-matrix                .... done
Calculating the G-matrix                .... done
Diagonalizing the G-matrix              .... done
Small eigenvalue found = 6.048e-04
Small eigenvalue found = 1.341e-03
Small eigenvalue found = 4.768e-03
Small eigenvalue found = 6.341e-03
Small eigenvalue found = 8.059e-03
Small eigenvalue found = 8.590e-03
Small eigenvalue found = 1.398e-02
Small eigenvalue found = 1.569e-02
Small eigenvalue found = 2.600e-02
Small eigenvalue found = 2.773e-02
The first mode is                       ....   89
The number of degrees of freedom        ....  144

    -----------------------------------------------------------------
                    Redundant Internal Coordinates


    -----------------------------------------------------------------
         Definition                    Initial Value    Approx d2E/dq
    -----------------------------------------------------------------
      1. B(H   1,C   0)                  1.0881         0.362657   
      2. B(C   2,C   0)                  1.3423         0.744333   
      3. B(H   3,C   2)                  1.0857         0.365827   
      4. B(C   4,C   2)                  1.4668         0.471173   
      5. B(O   5,C   4)                  1.2187         1.049861   
      6. B(C   6,C   0)                  1.4624         0.478802   
      7. B(C   7,C   6)                  1.3963         0.610517   
      8. B(C   8,C   6)                  1.4038         0.594018   
      9. B(C   9,C   7)                  1.3891         0.626836   
     10. B(H  10,C   7)                  1.0856         0.366022   
     11. B(C  11,C   8)                  1.3795         0.649297   
     12. B(H  12,C   8)                  1.0850         0.366832   
     13. B(C  13,C  11)                  1.4070         0.587015   
     14. B(C  13,C   9)                  1.3906         0.623313   
     15. B(H  14,C   9)                  1.0861         0.365266   
     16. B(O  15,C  13)                  1.3543         0.637931   
     17. B(H  16,O  15)                  0.9647         0.511057   
     18. B(O  17,C  11)                  1.3721         0.597536   
     19. B(C  18,O  17)                  1.4325         0.478637   
     20. B(H  19,C  18)                  1.0940         0.354850   
     21. B(H  20,C  18)                  1.0883         0.362292   
     22. B(H  21,C  18)                  1.0917         0.357796   
     23. B(H  23,C  22)                  1.0887         0.361866   
     24. B(C  24,C  22)                  1.3411         0.747818   
     25. B(H  25,C  24)                  1.0861         0.365307   
     26. B(C  26,C  24)                  1.4695         0.466545   
     27. B(O  27,C  26)                  1.2155         1.062493   
     28. B(C  28,C  22)                  1.4639         0.476316   
     29. B(C  29,C  28)                  1.3959         0.611414   
     30. B(C  30,C  28)                  1.4034         0.594861   
     31. B(C  31,C  29)                  1.3894         0.626222   
     32. B(H  32,C  29)                  1.0856         0.366004   
     33. B(C  33,C  30)                  1.3799         0.648297   
     34. B(H  34,C  30)                  1.0849         0.366863   
     35. B(C  35,C  33)                  1.4066         0.587775   
     36. B(C  35,C  31)                  1.3905         0.623602   
     37. B(H  36,C  31)                  1.0862         0.365178   
     38. B(O  37,C  35)                  1.3553         0.635588   
     39. B(H  38,O  37)                  0.9648         0.510829   
     40. B(O  39,C  33)                  1.3725         0.596829   
     41. B(C  40,O  39)                  1.4325         0.478784   
     42. B(H  41,C  40)                  1.0940         0.354818   
     43. B(H  42,C  40)                  1.0884         0.362230   
     44. B(H  43,C  40)                  1.0918         0.357692   
     45. B(C  44,C  26)                  1.5197         0.387991   
     46. B(C  44,C   4)                  1.5142         0.395898   
     47. B(H  45,C  44)                  1.0911         0.358656   
     48. B(H  46,C  44)                  1.2325         0.213371   
     49. B(O  47,H  46)                  1.3072         0.145204   
     50. B(N  49,O  48)                  1.1841         1.068048   
     51. B(N  49,O  47)                  1.3524         0.575541   
     52. A(H   1,C   0,C   6)          114.1751         0.338314   
     53. A(H   1,C   0,C   2)          119.0186         0.364496   
     54. A(C   2,C   0,C   6)          126.8049         0.428207   
     55. A(C   0,C   2,H   3)          122.3412         0.365039   
     56. A(C   0,C   2,C   4)          123.8351         0.426976   
     57. A(H   3,C   2,C   4)          113.8083         0.337899   
     58. A(C   2,C   4,O   5)          121.8034         0.451330   
     59. A(C   2,C   4,C  44)          119.4413         0.381973   
     60. A(O   5,C   4,C  44)          118.7552         0.437332   
     61. A(C   0,C   6,C   7)          118.7844         0.413328   
     62. A(C   7,C   6,C   8)          118.3541         0.429549   
     63. A(C   0,C   6,C   8)          122.8610         0.411323   
     64. A(C   9,C   7,H  10)          119.3316         0.354543   
     65. A(C   6,C   7,H  10)          119.6179         0.352963   
     66. A(C   6,C   7,C   9)          121.0500         0.433719   
     67. A(C   6,C   8,H  12)          121.6028         0.351462   
     68. A(C   6,C   8,C  11)          121.0729         0.434329   
     69. A(C  11,C   8,H  12)          117.3202         0.356802   
     70. A(C  13,C   9,H  14)          119.4351         0.354081   
     71. A(C   7,C   9,H  14)          120.4589         0.354419   
     72. A(C   7,C   9,C  13)          120.1042         0.435341   
     73. A(C  13,C  11,O  17)          120.1612         0.424206   
     74. A(C   8,C  11,O  17)          119.8459         0.431945   
     75. A(C   8,C  11,C  13)          119.9638         0.433403   
     76. A(C  11,C  13,O  15)          117.0798         0.429206   
     77. A(C   9,C  13,O  15)          123.4654         0.433858   
     78. A(C   9,C  13,C  11)          119.4528         0.430234   
     79. A(C  13,O  15,H  16)          110.0194         0.370833   
     80. A(C  11,O  17,C  18)          113.4421         0.406439   
     81. A(O  17,C  18,H  21)          111.0202         0.335489   
     82. A(H  19,C  18,H  20)          109.5865         0.290446   
     83. A(O  17,C  18,H  20)          106.3867         0.336187   
     84. A(O  17,C  18,H  19)          110.3655         0.335028   
     85. A(H  20,C  18,H  21)          109.6023         0.290823   
     86. A(H  19,C  18,H  21)          109.8159         0.289878   
     87. A(C  24,C  22,C  28)          126.9040         0.428166   
     88. A(H  23,C  22,C  28)          114.1243         0.337897   
     89. A(H  23,C  22,C  24)          118.9709         0.364651   
     90. A(H  25,C  24,C  26)          113.8865         0.337264   
     91. A(C  22,C  24,C  26)          123.6194         0.426579   
     92. A(C  22,C  24,H  25)          122.4694         0.365242   
     93. A(C  24,C  26,O  27)          121.6858         0.451501   
     94. A(O  27,C  26,C  44)          119.9829         0.436685   
     95. A(C  24,C  26,C  44)          118.3307         0.379988   
     96. A(C  29,C  28,C  30)          118.3157         0.429771   
     97. A(C  22,C  28,C  30)          122.8477         0.411047   
     98. A(C  22,C  28,C  29)          118.8357         0.413053   
     99. A(C  31,C  29,H  32)          119.3204         0.354481   
    100. A(C  28,C  29,H  32)          119.6134         0.353047   
    101. A(C  28,C  29,C  31)          121.0655         0.433757   
    102. A(C  33,C  30,H  34)          117.3312         0.356713   
    103. A(C  28,C  30,H  34)          121.5732         0.351551   
    104. A(C  28,C  30,C  33)          121.0938         0.434319   
    105. A(C  35,C  31,H  36)          119.4308         0.354094   
    106. A(C  29,C  31,H  36)          120.4276         0.354346   
    107. A(C  29,C  31,C  35)          120.1407         0.435301   
    108. A(C  35,C  33,O  39)          120.1444         0.424215   
    109. A(C  30,C  33,O  39)          119.8393         0.431734   
    110. A(C  30,C  33,C  35)          119.9924         0.433384   
    111. A(C  33,C  35,O  37)          117.1023         0.429023   
    112. A(C  31,C  35,O  37)          123.5069         0.433607   
    113. A(C  31,C  35,C  33)          119.3896         0.430370   
    114. A(C  35,O  37,H  38)          110.0225         0.370570   
    115. A(C  33,O  39,C  40)          113.3646         0.406376   
    116. A(H  41,C  40,H  42)          109.5779         0.290434   
    117. A(O  39,C  40,H  42)          106.4040         0.336194   
    118. A(O  39,C  40,H  41)          110.3737         0.335040   
    119. A(H  42,C  40,H  43)          109.5972         0.290802   
    120. A(H  41,C  40,H  43)          109.8080         0.289860   
    121. A(O  39,C  40,H  43)          111.0168         0.335490   
    122. A(H  45,C  44,H  46)          102.1999         0.268130   
    123. A(C  26,C  44,H  46)          103.4886         0.299831   
    124. A(C   4,C  44,H  46)          105.3040         0.300796   
    125. A(C  26,C  44,H  45)          115.0686         0.326128   
    126. A(C   4,C  44,H  45)          115.0131         0.327214   
    127. A(C   4,C  44,C  26)          113.7277         0.369372   
    128. L(C  44,H  46,O  47,C   4, 2) 180.0599         0.233276   
    129. L(C  44,H  46,O  47,C   4, 1) 175.5191         0.233276   
    130. A(H  46,O  47,N  49)          101.8880         0.294363   
    131. A(O  47,N  49,O  48)          110.9082         0.460151   
    132. D(H   3,C   2,C   0,C   6)     -0.4369         0.039453   
    133. D(C   4,C   2,C   0,C   6)   -178.9252         0.039453   
    134. D(H   3,C   2,C   0,H   1)    179.1019         0.039453   
    135. D(C   4,C   2,C   0,H   1)      0.6135         0.039453   
    136. D(C  44,C   4,C   2,H   3)    178.5071         0.015117   
    137. D(O   5,C   4,C   2,H   3)     -1.4229         0.015117   
    138. D(O   5,C   4,C   2,C   0)    177.1812         0.015117   
    139. D(C  44,C   4,C   2,C   0)     -2.8888         0.015117   
    140. D(C   8,C   6,C   0,H   1)   -179.9487         0.015608   
    141. D(C   8,C   6,C   0,C   2)     -0.3908         0.015608   
    142. D(C   7,C   6,C   0,C   2)    179.8666         0.015608   
    143. D(C   7,C   6,C   0,H   1)      0.3087         0.015608   
    144. D(H  10,C   7,C   6,C   0)     -0.1884         0.025745   
    145. D(C   9,C   7,C   6,C   8)      0.3196         0.025745   
    146. D(C   9,C   7,C   6,C   0)   -179.9260         0.025745   
    147. D(H  10,C   7,C   6,C   8)   -179.9428         0.025745   
    148. D(H  12,C   8,C   6,C   7)   -179.7882         0.024299   
    149. D(H  12,C   8,C   6,C   0)      0.4681         0.024299   
    150. D(C  11,C   8,C   6,C   0)    179.7154         0.024299   
    151. D(C  11,C   8,C   6,C   7)     -0.5409         0.024299   
    152. D(C  13,C   9,C   7,H  10)   -179.6613         0.027226   
    153. D(H  14,C   9,C   7,C   6)    179.5961         0.027226   
    154. D(H  14,C   9,C   7,H  10)     -0.1422         0.027226   
    155. D(C  13,C   9,C   7,C   6)      0.0770         0.027226   
    156. D(O  17,C  11,C   8,H  12)      1.6008         0.029349   
    157. D(O  17,C  11,C   8,C   6)   -177.6776         0.029349   
    158. D(C  13,C  11,C   8,H  12)    179.6415         0.029349   
    159. D(C  13,C  11,C   8,C   6)      0.3631         0.029349   
    160. D(O  15,C  13,C   9,C   7)    179.2129         0.026902   
    161. D(C  11,C  13,C   9,H  14)   -179.7864         0.026902   
    162. D(C  11,C  13,C   9,C   7)     -0.2624         0.026902   
    163. D(O  15,C  13,C  11,O  17)     -1.4295         0.023702   
    164. D(O  15,C  13,C  11,C   8)   -179.4640         0.023702   
    165. D(C   9,C  13,C  11,O  17)    178.0788         0.023702   
    166. D(C   9,C  13,C  11,C   8)      0.0444         0.023702   
    167. D(O  15,C  13,C   9,H  14)     -0.3111         0.026902   
    168. D(H  16,O  15,C  13,C  11)   -179.6600         0.029986   
    169. D(H  16,O  15,C  13,C   9)      0.8532         0.029986   
    170. D(C  18,O  17,C  11,C  13)     75.9017         0.026063   
    171. D(C  18,O  17,C  11,C   8)   -106.0616         0.026063   
    172. D(H  21,C  18,O  17,C  11)    -61.8853         0.018070   
    173. D(H  20,C  18,O  17,C  11)    178.9302         0.018070   
    174. D(H  19,C  18,O  17,C  11)     60.1219         0.018070   
    175. D(C  26,C  24,C  22,C  28)   -178.9987         0.039860   
    176. D(C  26,C  24,C  22,H  23)      0.6513         0.039860   
    177. D(H  25,C  24,C  22,C  28)     -0.9190         0.039860   
    178. D(H  25,C  24,C  22,H  23)    178.7311         0.039860   
    179. D(C  44,C  26,C  24,H  25)    176.8572         0.014823   
    180. D(C  44,C  26,C  24,C  22)     -4.9146         0.014823   
    181. D(O  27,C  26,C  24,H  25)     -2.8544         0.014823   
    182. D(O  27,C  26,C  24,C  22)    175.3738         0.014823   
    183. D(C  30,C  28,C  22,C  24)     -2.3501         0.015447   
    184. D(C  30,C  28,C  22,H  23)    177.9854         0.015447   
    185. D(C  29,C  28,C  22,C  24)    178.0116         0.015447   
    186. D(C  29,C  28,C  22,H  23)     -1.6530         0.015447   
    187. D(H  32,C  29,C  28,C  30)   -179.8346         0.025825   
    188. D(H  32,C  29,C  28,C  22)     -0.1797         0.025825   
    189. D(C  31,C  29,C  28,C  30)      0.4746         0.025825   
    190. D(C  31,C  29,C  28,C  22)   -179.8705         0.025825   
    191. D(H  34,C  30,C  28,C  29)    179.9447         0.024372   
    192. D(H  34,C  30,C  28,C  22)      0.3046         0.024372   
    193. D(C  33,C  30,C  28,C  29)     -0.5486         0.024372   
    194. D(C  33,C  30,C  28,C  22)    179.8113         0.024372   
    195. D(H  36,C  31,C  29,H  32)     -0.1668         0.027169   
    196. D(H  36,C  31,C  29,C  28)    179.5249         0.027169   
    197. D(C  35,C  31,C  29,H  32)   -179.8081         0.027169   
    198. D(C  35,C  31,C  29,C  28)     -0.1164         0.027169   
    199. D(O  39,C  33,C  30,H  34)      1.5643         0.029253   
    200. D(O  39,C  33,C  30,C  28)   -177.9626         0.029253   
    201. D(C  35,C  33,C  30,H  34)    179.7899         0.029253   
    202. D(C  35,C  33,C  30,C  28)      0.2630         0.029253   
    203. D(O  37,C  35,C  33,C  30)   -179.5159         0.023766   
    204. D(C  31,C  35,C  33,O  39)    178.3275         0.023766   
    205. D(C  31,C  35,C  33,C  30)      0.1073         0.023766   
    206. D(O  37,C  35,C  31,H  36)     -0.2273         0.026928   
    207. D(O  37,C  35,C  31,C  29)    179.4175         0.026928   
    208. D(C  33,C  35,C  31,H  36)   -179.8251         0.026928   
    209. D(O  37,C  35,C  33,O  39)     -1.2958         0.023766   
    210. D(C  33,C  35,C  31,C  29)     -0.1802         0.026928   
    211. D(H  38,O  37,C  35,C  33)   -179.2882         0.029749   
    212. D(H  38,O  37,C  35,C  31)      1.1055         0.029749   
    213. D(C  40,O  39,C  33,C  35)     75.9486         0.025998   
    214. D(C  40,O  39,C  33,C  30)   -105.8285         0.025998   
    215. D(H  43,C  40,O  39,C  33)    -61.6633         0.018082   
    216. D(H  42,C  40,O  39,C  33)    179.1498         0.018082   
    217. D(H  41,C  40,O  39,C  33)     60.3373         0.018082   
    218. D(H  46,C  44,C  26,O  27)     19.8674         0.011206   
    219. D(H  46,C  44,C  26,C  24)   -159.8492         0.011206   
    220. D(H  45,C  44,C  26,O  27)    130.4845         0.011206   
    221. D(H  45,C  44,C  26,C  24)    -49.2322         0.011206   
    222. D(C   4,C  44,C  26,O  27)    -93.8310         0.011206   
    223. D(C   4,C  44,C  26,C  24)     86.4523         0.011206   
    224. D(H  46,C  44,C   4,O   5)   -114.3220         0.011643   
    225. D(H  46,C  44,C   4,C   2)     65.7460         0.011643   
    226. D(H  45,C  44,C   4,O   5)    133.9967         0.011643   
    227. D(H  45,C  44,C   4,C   2)    -45.9354         0.011643   
    228. D(C  26,C  44,C   4,O   5)     -1.7132         0.011643   
    229. D(C  26,C  44,C   4,C   2)    178.3547         0.011643   
    230. D(N  49,O  47,C  44,H  45)    150.0227         0.001504   
    231. D(N  49,O  47,C  44,C  26)    -89.1778         0.001504   
    232. D(N  49,O  47,C  44,C   4)     29.9742         0.001504   
    233. D(O  48,N  49,O  47,H  46)    179.9316         0.025011   
    -----------------------------------------------------------------

Number of atoms                         .... 50
Number of degrees of freedom            .... 233


         *************************************************************
         *                GEOMETRY OPTIMIZATION CYCLE   1            *
         *************************************************************
---------------------------------
CARTESIAN COORDINATES (ANGSTROEM)
---------------------------------
  C     -2.489717    0.377682   -0.270850
  H     -2.068019    0.794624   -1.183119
  C     -1.807947    0.503774    0.878578
  H     -2.184552    0.121088    1.822228
  C     -0.515976    1.189159    0.990885
  O      0.047392    1.326097    2.062873
  C     -3.787941   -0.270561   -0.452901
  C     -4.349522   -0.303797   -1.730851
  C     -4.495626   -0.867917    0.602024
  C     -5.580807   -0.905834   -1.956954
  H     -3.819403    0.151078   -2.561816
  C     -5.721184   -1.464524    0.389492
  H     -4.110117   -0.869692    1.616180
  C     -6.277032   -1.487214   -0.902834
  H     -6.011765   -0.920438   -2.953812
  O     -7.487610   -2.078047   -1.043008
  H     -7.768340   -2.041082   -1.965216
  O     -6.413166   -1.998798    1.447079
  C     -6.395071   -3.430954    1.474819
  H     -5.367040   -3.797316    1.550726
  H     -6.954537   -3.728007    2.359839
  H     -6.871048   -3.845930    0.584227
  C      2.712850    0.325928   -0.026013
  H      1.773888   -0.211012   -0.149484
  C      2.689265    1.663880    0.062359
  H      3.589184    2.254667    0.206277
  C      1.455446    2.460729    0.015808
  O      1.466397    3.664757    0.181836
  C      3.893029   -0.538180    0.032206
  C      3.718653   -1.921454   -0.036098
  C      5.198722   -0.036699    0.146735
  C      4.806018   -2.784664    0.017594
  H      2.717929   -2.332105   -0.127670
  C      6.285646   -0.885080    0.202452
  H      5.395103    1.028833    0.202938
  C      6.094972   -2.277271    0.138830
  H      4.657776   -3.859692   -0.028716
  O      7.202076   -3.055966    0.208798
  H      6.955935   -3.986653    0.144635
  O      7.547853   -0.368625    0.356626
  C      8.329662   -0.411600   -0.842898
  H      7.846104    0.169482   -1.633720
  H      9.291878    0.034677   -0.598806
  H      8.477429   -1.440383   -1.177344
  C      0.143336    1.743270   -0.254536
  H      0.154110    1.066933   -1.110653
  H     -0.602083    2.644269   -0.643781
  O     -1.453813    3.578044   -0.977670
  O     -2.755235    4.805431    0.105631
  N     -1.950101    3.945559    0.225447

----------------------------
CARTESIAN COORDINATES (A.U.)
----------------------------
  NO LB      ZA    FRAG     MASS         X           Y           Z
   0 C     6.0000    0    12.011   -4.704883    0.713716   -0.511833
   1 H     1.0000    0     1.008   -3.907989    1.501622   -2.235771
   2 C     6.0000    0    12.011   -3.416525    0.951995    1.660272
   3 H     1.0000    0     1.008   -4.128205    0.228824    3.443512
   4 C     6.0000    0    12.011   -0.975054    2.247185    1.872502
   5 O     8.0000    0    15.999    0.089558    2.505960    3.898265
   6 C     6.0000    0    12.011   -7.158171   -0.511287   -0.855859
   7 C     6.0000    0    12.011   -8.219406   -0.574093   -3.270834
   8 C     6.0000    0    12.011   -8.495503   -1.640125    1.137660
   9 C     6.0000    0    12.011  -10.546198   -1.711779   -3.698106
  10 H     1.0000    0     1.008   -7.217626    0.285496   -4.841130
  11 C     6.0000    0    12.011  -10.811471   -2.767549    0.736033
  12 H     1.0000    0     1.008   -7.766995   -1.643479    3.054138
  13 C     6.0000    0    12.011  -11.861872   -2.810428   -1.706110
  14 H     1.0000    0     1.008  -11.360589   -1.739375   -5.581895
  15 O     8.0000    0    15.999  -14.149531   -3.926940   -1.971000
  16 H     1.0000    0     1.008  -14.680035   -3.857087   -3.713721
  17 O     8.0000    0    15.999  -12.119128   -3.777180    2.734584
  18 C     6.0000    0    12.011  -12.084933   -6.483564    2.787004
  19 H     1.0000    0     1.008  -10.142235   -7.175887    2.930447
  20 H     1.0000    0     1.008  -13.142170   -7.044911    4.459448
  21 H     1.0000    0     1.008  -12.984399   -7.267755    1.104029
  22 C     6.0000    0    12.011    5.126544    0.615916   -0.049158
  23 H     1.0000    0     1.008    3.352163   -0.398754   -0.282484
  24 C     6.0000    0    12.011    5.081974    3.144278    0.117841
  25 H     1.0000    0     1.008    6.782575    4.260703    0.389807
  26 C     6.0000    0    12.011    2.750395    4.650105    0.029873
  27 O     8.0000    0    15.999    2.771088    6.925388    0.343620
  28 C     6.0000    0    12.011    7.356758   -1.017012    0.060860
  29 C     6.0000    0    12.011    7.027236   -3.631021   -0.068214
  30 C     6.0000    0    12.011    9.824160   -0.069352    0.277290
  31 C     6.0000    0    12.011    9.082057   -5.262252    0.033247
  32 H     1.0000    0     1.008    5.136142   -4.407040   -0.241261
  33 C     6.0000    0    12.011   11.878150   -1.672560    0.382579
  34 H     1.0000    0     1.008   10.195266    1.944213    0.383497
  35 C     6.0000    0    12.011   11.517828   -4.303419    0.262350
  36 H     1.0000    0     1.008    8.801922   -7.293760   -0.054265
  37 O     8.0000    0    15.999   13.609952   -5.774939    0.394570
  38 H     1.0000    0     1.008   13.144813   -7.533682    0.273321
  39 O     8.0000    0    15.999   14.263376   -0.696599    0.673925
  40 C     6.0000    0    12.011   15.740781   -0.777811   -1.592847
  41 H     1.0000    0     1.008   14.826987    0.320275   -3.087284
  42 H     1.0000    0     1.008   17.559105    0.065530   -1.131579
  43 H     1.0000    0     1.008   16.020018   -2.721930   -2.224858
  44 C     6.0000    0    12.011    0.270866    3.294304   -0.481004
  45 H     1.0000    0     1.008    0.291226    2.016210   -2.098831
  46 H     1.0000    0     1.008   -1.137772    4.996945   -1.216570
  47 O     8.0000    0    15.999   -2.747309    6.761523   -1.847528
  48 O     8.0000    0    15.999   -5.206639    9.080949    0.199614
  49 N     7.0000    0    14.007   -3.685156    7.456027    0.426032

--------------------------------
INTERNAL COORDINATES (ANGSTROEM)
--------------------------------
 C      0   0   0     0.000000000000     0.00000000     0.00000000
 H      1   0   0     1.088073798248     0.00000000     0.00000000
 C      1   2   0     1.342346299058   119.01860911     0.00000000
 H      3   1   2     1.085704982356   122.34122313   179.10185369
 C      3   1   2     1.466818200517   123.83514034     0.61350137
 O      5   3   1     1.218726203224   121.80338819   177.18121363
 C      1   2   3     1.462445739426   114.17510162   179.59516276
 C      7   1   2     1.396293265658   118.78439902     0.30869699
 C      7   1   2     1.403751279510   122.86104906   180.05133800
 C      8   7   1     1.389112777807   121.05003940   180.07398854
 H      8   7   1     1.085559916021   119.61787146   359.81159190
 C      9   7   1     1.379529537444   121.07292601   179.71541798
 H      9   7   1     1.084958145859   121.60277256     0.46812046
 C     10   8   7     1.390646933422   120.10424094     0.07700168
 H     10   8   7     1.086122921737   120.45893014   179.59610242
 O     14  10   8     1.354336997630   123.46542284   179.21290061
 H     16  14  10     0.964699085707   110.01943822     0.85317539
 O     12   9   7     1.372143766647   119.84594161   182.32239189
 C     18  12   9     1.432539792248   113.44207921   253.93844634
 H     19  18  12     1.093997672745   110.36545373    60.12194931
 H     19  18  12     1.088348199639   106.38668429   178.93024384
 H     19  18  12     1.091747494900   111.02024223   298.11474538
 C      5   3   1     3.493503775784   132.55687938   287.07199410
 H     23   5   3     1.088668359026    50.03950728     1.34985447
 C     23   5   3     1.341074430267    73.62301047   156.15978454
 H     25  23   5     1.086091793315   122.46943445   156.83670524
 C     25  23   5     1.469504819369   123.61935508   338.75696224
 O     27  25  23     1.215470531849   121.68579512   175.37378578
 C     23   5   3     1.463862642649   151.57133197   296.67605391
 C     29  23   5     1.395893721832   118.83565223    47.73356687
 C     29  23   5     1.403365102003   122.84765829   227.37195049
 C     30  29  23     1.389379762379   121.06552942   180.12952040
 H     30  29  23     1.085573081177   119.61337733   359.82033429
 C     31  29  23     1.379949240782   121.09379999   179.81127346
 H     31  29  23     1.084935361310   121.57322010     0.30455015
 C     32  30  29     1.390520799341   120.14067804   359.88361203
 H     32  30  29     1.086188275809   120.42756876   179.52489077
 O     36  32  30     1.355338478913   123.50693645   179.41753872
 H     38  36  32     0.964821003077   110.02247897     1.10550163
 O     34  31  29     1.372466025665   119.83930098   182.03740010
 C     40  34  31     1.432455784910   113.36456179   254.17152311
 H     41  40  34     1.094022159206   110.37373089    60.33725490
 H     41  40  34     1.088394960041   106.40395015   179.14983044
 H     41  40  34     1.091826489791   111.01680822   298.33672000
 C      5   3   1     1.514201611088   119.44134509   357.11115655
 H     45   5   3     1.091093580584   115.01305569   314.06458159
 H     45   5   3     1.232461055822   105.30397735    65.74596179
 O     47  45   5     1.307233886165   175.51895504   359.44591960
 O     48  47  45     2.091343839277   133.81823891    30.78726314
 N     49  48  47     1.184050942509    37.16149185   359.90718171

---------------------------
INTERNAL COORDINATES (A.U.)
---------------------------
 C      0   0   0     0.000000000000     0.00000000     0.00000000
 H      1   0   0     2.056161492184     0.00000000     0.00000000
 C      1   2   0     2.536666882103   119.01860911     0.00000000
 H      3   1   2     2.051685078886   122.34122313   179.10185369
 C      3   1   2     2.771884687229   123.83514034     0.61350137
 O      5   3   1     2.303058756327   121.80338819   177.18121363
 C      1   2   3     2.763621933234   114.17510162   179.59516276
 C      7   1   2     2.638611874733   118.78439902     0.30869699
 C      7   1   2     2.652705478415   122.86104906   180.05133800
 C      8   7   1     2.625042719186   121.05003940   180.07398854
 H      8   7   1     2.051410943242   119.61787146   359.81159190
 C      9   7   1     2.606933019424   121.07292601   179.71541798
 H      9   7   1     2.050273762440   121.60277256     0.46812046
 C     10   8   7     2.627941853145   120.10424094     0.07700168
 H     10   8   7     2.052474869857   120.45893014   179.59610242
 O     14  10   8     2.559326018557   123.46542284   179.21290061
 H     16  14  10     1.823017073631   110.01943822     0.85317539
 O     12   9   7     2.592975935330   119.84594161   182.32239189
 C     18  12   9     2.707107883292   113.44207921   253.93844634
 H     19  18  12     2.067355992634   110.36545373    60.12194931
 H     19  18  12     2.056680035664   106.38668429   178.93024384
 H     19  18  12     2.063103772756   111.02024223   298.11474538
 C      5   3   1     6.601765384051   132.55687938   287.07199410
 H     23   5   3     2.057285049225    50.03950728     1.34985447
 C     23   5   3     2.534263398409    73.62301047   156.15978454
 H     25  23   5     2.052416045664   122.46943445   156.83670524
 C     25  23   5     2.776961661084   123.61935508   338.75696224
 O     27  25  23     2.296906429046   121.68579512   175.37378578
 C     23   5   3     2.766299492285   151.57133197   296.67605391
 C     29  23   5     2.637856846323   118.83565223    47.73356687
 C     29  23   5     2.651975708689   122.84765829   227.37195049
 C     30  29  23     2.625547246908   121.06552942   180.12952040
 H     30  29  23     2.051435821782   119.61337733   359.82033429
 C     31  29  23     2.607726143791   121.09379999   179.81127346
 H     31  29  23     2.050230705883   121.57322010     0.30455015
 C     32  30  29     2.627703494276   120.14067804   359.88361203
 H     32  30  29     2.052598371155   120.42756876   179.52489077
 O     36  32  30     2.561218543911   123.50693645   179.41753872
 H     38  36  32     1.823247464072   110.02247897     1.10550163
 O     34  31  29     2.593584916619   119.83930098   182.03740010
 C     40  34  31     2.706949132430   113.36456179   254.17152311
 H     41  40  34     2.067402265341   110.37373089    60.33725490
 H     41  40  34     2.056768400018   106.40395015   179.14983044
 H     41  40  34     2.063253051466   111.01680822   298.33672000
 C      5   3   1     2.861426356500   119.44134509   357.11115655
 H     45   5   3     2.061868053784   115.01305569   314.06458159
 H     45   5   3     2.329013866228   105.30397735    65.74596179
 O     47  45   5     2.470314037833   175.51895504   359.44591960
 O     48  47  45     3.952067108096   133.81823891    30.78726314
 N     49  48  47     2.237532009954    37.16149185   359.90718171

---------------------
BASIS SET INFORMATION
---------------------
There are 4 groups of distinct atoms

 Group   1 Type C   : 11s5p1d contracted to 4s3p1d pattern {6311/311/1}
 Group   2 Type H   : 5s contracted to 3s pattern {311}
 Group   3 Type O   : 11s5p1d contracted to 4s3p1d pattern {6311/311/1}
 Group   4 Type N   : 11s5p1d contracted to 4s3p1d pattern {6311/311/1}

Atom   0C    basis set group =>   1
Atom   1H    basis set group =>   2
Atom   2C    basis set group =>   1
Atom   3H    basis set group =>   2
Atom   4C    basis set group =>   1
Atom   5O    basis set group =>   3
Atom   6C    basis set group =>   1
Atom   7C    basis set group =>   1
Atom   8C    basis set group =>   1
Atom   9C    basis set group =>   1
Atom  10H    basis set group =>   2
Atom  11C    basis set group =>   1
Atom  12H    basis set group =>   2
Atom  13C    basis set group =>   1
Atom  14H    basis set group =>   2
Atom  15O    basis set group =>   3
Atom  16H    basis set group =>   2
Atom  17O    basis set group =>   3
Atom  18C    basis set group =>   1
Atom  19H    basis set group =>   2
Atom  20H    basis set group =>   2
Atom  21H    basis set group =>   2
Atom  22C    basis set group =>   1
Atom  23H    basis set group =>   2
Atom  24C    basis set group =>   1
Atom  25H    basis set group =>   2
Atom  26C    basis set group =>   1
Atom  27O    basis set group =>   3
Atom  28C    basis set group =>   1
Atom  29C    basis set group =>   1
Atom  30C    basis set group =>   1
Atom  31C    basis set group =>   1
Atom  32H    basis set group =>   2
Atom  33C    basis set group =>   1
Atom  34H    basis set group =>   2
Atom  35C    basis set group =>   1
Atom  36H    basis set group =>   2
Atom  37O    basis set group =>   3
Atom  38H    basis set group =>   2
Atom  39O    basis set group =>   3
Atom  40C    basis set group =>   1
Atom  41H    basis set group =>   2
Atom  42H    basis set group =>   2
Atom  43H    basis set group =>   2
Atom  44C    basis set group =>   1
Atom  45H    basis set group =>   2
Atom  46H    basis set group =>   2
Atom  47O    basis set group =>   3
Atom  48O    basis set group =>   3
Atom  49N    basis set group =>   4
---------------------------------
AUXILIARY/J BASIS SET INFORMATION
---------------------------------
There are 4 groups of distinct atoms

 Group   1 Type C   : 12s5p4d2f1g contracted to 6s4p3d1f1g pattern {711111/2111/211/2/1}
 Group   2 Type H   : 5s2p1d contracted to 3s1p1d pattern {311/2/1}
 Group   3 Type O   : 12s5p4d2f1g contracted to 6s4p3d1f1g pattern {711111/2111/211/2/1}
 Group   4 Type N   : 12s5p4d2f1g contracted to 6s4p3d1f1g pattern {711111/2111/211/2/1}

Atom   0C    basis set group =>   1
Atom   1H    basis set group =>   2
Atom   2C    basis set group =>   1
Atom   3H    basis set group =>   2
Atom   4C    basis set group =>   1
Atom   5O    basis set group =>   3
Atom   6C    basis set group =>   1
Atom   7C    basis set group =>   1
Atom   8C    basis set group =>   1
Atom   9C    basis set group =>   1
Atom  10H    basis set group =>   2
Atom  11C    basis set group =>   1
Atom  12H    basis set group =>   2
Atom  13C    basis set group =>   1
Atom  14H    basis set group =>   2
Atom  15O    basis set group =>   3
Atom  16H    basis set group =>   2
Atom  17O    basis set group =>   3
Atom  18C    basis set group =>   1
Atom  19H    basis set group =>   2
Atom  20H    basis set group =>   2
Atom  21H    basis set group =>   2
Atom  22C    basis set group =>   1
Atom  23H    basis set group =>   2
Atom  24C    basis set group =>   1
Atom  25H    basis set group =>   2
Atom  26C    basis set group =>   1
Atom  27O    basis set group =>   3
Atom  28C    basis set group =>   1
Atom  29C    basis set group =>   1
Atom  30C    basis set group =>   1
Atom  31C    basis set group =>   1
Atom  32H    basis set group =>   2
Atom  33C    basis set group =>   1
Atom  34H    basis set group =>   2
Atom  35C    basis set group =>   1
Atom  36H    basis set group =>   2
Atom  37O    basis set group =>   3
Atom  38H    basis set group =>   2
Atom  39O    basis set group =>   3
Atom  40C    basis set group =>   1
Atom  41H    basis set group =>   2
Atom  42H    basis set group =>   2
Atom  43H    basis set group =>   2
Atom  44C    basis set group =>   1
Atom  45H    basis set group =>   2
Atom  46H    basis set group =>   2
Atom  47O    basis set group =>   3
Atom  48O    basis set group =>   3
Atom  49N    basis set group =>   4
------------------------------------------------------------------------------
                             ORCA STARTUP CALCULATIONS
                           -- RI-GTO INTEGRALS CHOSEN --
------------------------------------------------------------------------------
------------------------------------------------------------------------------
                   ___                                                        
                  /   \      - P O W E R E D   B Y -                         
                 /     \                                                     
                 |  |  |   _    _      __       _____    __    __             
                 |  |  |  | |  | |    /  \     |  _  \  |  |  /  |          
                  \  \/   | |  | |   /    \    | | | |  |  | /  /          
                 / \  \   | |__| |  /  /\  \   | |_| |  |  |/  /          
                |  |  |   |  __  | /  /__\  \  |    /   |      \           
                |  |  |   | |  | | |   __   |  |    \   |  |\   \          
                \     /   | |  | | |  |  |  |  | |\  \  |  | \   \       
                 \___/    |_|  |_| |__|  |__|  |_| \__\ |__|  \__/        
                                                                              
                      - O R C A' S   B I G   F R I E N D -                    
                                      &                                       
                       - I N T E G R A L  F E E D E R -                       
                                                                              
 v1 FN, 2020, v2 2021, v3 2022-2024                                           
------------------------------------------------------------------------------


----------------------
SHARK INTEGRAL PACKAGE
----------------------

Number of atoms                             ...     50
Number of basis functions                   ...    600
Number of shells                            ...    300
Maximum angular momentum                    ...      2
Integral batch strategy                     ... SHARK/LIBINT Hybrid
RI-J (if used) integral strategy            ... SPLIT-RIJ (Revised 2003 algorithm where possible)
Printlevel                                  ...      1
Contraction scheme used                     ... SEGMENTED contraction
Prescreening option                         ... SCHWARTZ
   Thresh                                   ... 2.500e-11
   Tcut                                     ... 2.500e-12
   Tpresel                                  ... 2.500e-12 
Coulomb Range Separation                    ... NOT USED
Exchange Range Separation                   ... Long Range
   Mu parameter                             ... 3.000e-01
   Scaling (regular/separated)              ... 1.500e-01 8.500e-01
Multipole approximations                    ... NOT USED
Finite Nucleus Model                        ... NOT USED
CABS basis                                  ... NOT available
Auxiliary Coulomb fitting basis             ... AVAILABLE
   # of basis functions in Aux-J            ...   1690
   # of shells in Aux-J                     ...    550
   Maximum angular momentum in Aux-J        ...      4
Auxiliary J/K fitting basis                 ... NOT available
Auxiliary Correlation fitting basis         ... NOT available
Auxiliary 'external' fitting basis          ... NOT available

Checking pre-screening integrals            ... done (  0.0 sec) Dimension = 300
Check shell pair data                       ... done (  0.0 sec)
Shell pair information
Shell pair cut-off parameter TPreSel        ...   2.5e-12
Total number of shell pairs                 ...     45150
Shell pairs after pre-screening             ...     21076
Total number of primitive shell pairs       ...    187045
Primitive shell pairs kept                  ...     51326
          la=0 lb=0:   7302 shell pairs
          la=1 lb=0:   7860 shell pairs
          la=1 lb=1:   2161 shell pairs
          la=2 lb=0:   2299 shell pairs
          la=2 lb=1:   1257 shell pairs
          la=2 lb=2:    197 shell pairs

Calculating one electron integrals          ... done (  0.1 sec)
Calculating RI/J V-Matrix + Cholesky decomp.... done (  0.5 sec)
Calculating Nuclear repulsion               ... done (  0.0 sec) ENN=   2618.289969741184 Eh

Diagonalization of the overlap matrix:
Smallest eigenvalue                        ... 1.702e-04
Time for diagonalization                   ...    0.027 sec
Threshold for overlap eigenvalues          ... 1.000e-07
Number of eigenvalues below threshold      ... 0
Time for construction of square roots      ...    0.055 sec
Total time needed                          ...    0.092 sec

-------------------
DFT GRID GENERATION
-------------------

General Integration Accuracy     IntAcc      ... 4.388
Radial Grid Type                 RadialGrid  ... OptM3 with GC (2021)
Angular Grid (max. ang.)         AngularGrid ... 4 (Lebedev-302)
Angular grid pruning method      GridPruning ... 4 (adaptive)
Weight generation scheme         WeightScheme... mBecke (2022)
Basis function cutoff            BFCut       ... 1.0000e-11
Integration weight cutoff        WCut        ... 1.0000e-14
Partially contracted basis set               ... off
Rotationally invariant grid construction     ... off
Angular grids for H and He will be reduced by one unit

Total number of grid points                  ...   243845
Total number of batches                      ...     3836
Average number of points per batch           ...       63
Average number of grid points per atom       ...     4877

------------------
NL GRID GENERATION
------------------

General Integration Accuracy     IntAcc      ... 4.004
Radial Grid Type                 RadialGrid  ... OptM3 with GC (2021)
Angular Grid (max. ang.)         AngularGrid ... 2 (Lebedev-110)
Angular grid pruning method      GridPruning ... 4 (adaptive)
Weight generation scheme         WeightScheme... mBecke (2022)
Basis function cutoff            BFCut       ... 1.0000e-10
Integration weight cutoff        WCut        ... 1.0000e-14
Partially contracted basis set               ... off
Rotationally invariant grid construction     ... off
Angular grids for H and He will be reduced by one unit

Total number of grid points                  ...    78457
Total number of batches                      ...     1253
Average number of points per batch           ...       62
Average number of grid points per atom       ...     1569
Initializing property integral containers    ... done (  0.0 sec)

SHARK setup successfully completed in   4.3 seconds

Maximum memory used throughout the entire STARTUP-calculation: 111.3 MB
-------------------------------------------------------------------------------
                                 ORCA GUESS
                   Start orbitals & Density for SCF / CASSCF
-------------------------------------------------------------------------------

------------
SCF SETTINGS
------------
Hamiltonian:
 Density Functional     Method          .... DFT(GTOs)
  Functional kind                       .... Exchange-Correlation
  Functional name                       .... wB97M-V exchange-correlation functional
  Functional family                     .... Hybrid MGGA
  Functional refs                              
    [ 0] N. Mardirossian and M. Head-Gordon.,  J. Chem. Phys. 144, 214110 (2016), doi: 10.1063/1.4952647
  Fraction of HF Exchange (short range) .... 0.1500
  Fraction of HF Exchange (long range)  .... 1.0000
  Range separation parameter mu         .... 0.3000
  Functional external parameters        .... 17
    Parameter  0 _cx00      =  8.500000e-01 : u^00 coefficient for exchange
    Parameter  1 _cx01      =  1.007000e+00 : u^01 coefficient for exchange
    Parameter  2 _cx10      =  2.590000e-01 : u^10 coefficient for exchange
    Parameter  3 _css00     =  4.430000e-01 : u^00 coefficient for same-spin correlation
    Parameter  4 _css04     = -1.437000e+00 : u^04 coefficient for same-spin correlation
    Parameter  5 _css10     = -4.535000e+00 : u^10 coefficient for same-spin correlation
    Parameter  6 _css20     = -3.390000e+00 : u^20 coefficient for same-spin correlation
    Parameter  7 _css43     =  4.278000e+00 : u^43 coefficient for same-spin correlation
    Parameter  8 _cos00     =  1.000000e+00 : u^00 coefficient for opposite-spin correlation
    Parameter  9 _cos10     =  1.358000e+00 : u^10 coefficient for opposite-spin correlation
    Parameter 10 _cos20     =  2.924000e+00 : u^20 coefficient for opposite-spin correlation
    Parameter 11 _cos21     = -8.812000e+00 : u^21 coefficient for opposite-spin correlation
    Parameter 12 _cos60     = -1.390000e+00 : u^60 coefficient for opposite-spin correlation
    Parameter 13 _cos61     =  9.142000e+00 : u^61 coefficient for opposite-spin correlation
    Parameter 14 _alpha     =  1.000000e+00 : fraction of HF exchange
    Parameter 15 _beta      = -8.500000e-01 : fraction of short-range exchange
    Parameter 16 _omega     =  3.000000e-01 : range-separation constant
 Long-range corrected/Screened/Range-Separated Hybrid DFT is turned on
   Amount of maximum screened exact exchange              ....  0.850000
   Range separation parameter mu (erf(mu*r12)/r12)        ....  0.300000
   NL short-range parameter             ....  6.000000
   NL long-range parameter              ....  0.010000
 RI-approximation to the Coulomb term is turned on
   Number of AuxJ basis functions       .... 1690
   RIJ-ON(X) (HFX calculated with O(N)) .... on


General Settings:
 Integral files         IntName         .... CURCUMIN-OPT-FREQ-TS2-WB97M-V-6-311G-D-363
 Hartree-Fock type      HFTyp           .... UHF
 Total Charge           Charge          ....    0
 Multiplicity           Mult            ....    2
 Number of Electrons    NEL             ....  217
 Basis Dimension        Dim             ....  600
 Nuclear Repulsion      ENuc            ....   2618.2899697412 Eh

Convergence Acceleration:
 AO-DIIS                CNVDIIS         .... on
   Start iteration      DIISMaxIt       ....    12
   Startup error        DIISStart       ....  0.200000
   # of expansion vecs  DIISMaxEq       ....     5
   Bias factor          DIISBfac        ....   1.050
   Max. coefficient     DIISMaxC        ....  10.000
 MO-DIIS                CNVKDIIS        .... off
 Trust-Rad. Augm. Hess. CNVTRAH         .... off
 SOSCF                  CNVSOSCF        .... on
   Start iteration      SOSCFMaxIt      ....   150
   Startup grad/error   SOSCFStart      ....  0.003300
   Hessian update       SOSCFHessUp     .... L-BFGS
 Level Shifting         CNVShift        .... on
   Level shift para.    LevelShift      ....    0.2500
   Turn off err/grad.   ShiftErr        ....    0.0010
 Zerner damping         CNVZerner       .... off
 Static damping         CNVDamp         .... on
   Fraction old density DampFac         ....    0.7000
   Max. Damping (<1)    DampMax         ....    0.9800
   Min. Damping (>=0)   DampMin         ....    0.0000
   Turn off err/grad.   DampErr         ....    0.1000

SCF Procedure:
 Maximum # iterations   MaxIter         ....   125
 SCF integral mode      SCFMode         .... Direct
   Integral package                     .... SHARK and LIBINT hybrid scheme
 Reset frequency        DirectResetFreq ....    20
 Integral Threshold     Thresh          ....  2.500e-11 Eh
 Primitive CutOff       TCut            ....  2.500e-12 Eh

Convergence Tolerance:
 Convergence Check Mode ConvCheckMode   .... Total+1el-Energy
 Convergence forced     ConvForced      .... 0
 Energy Change          TolE            ....  1.000e-08 Eh
 1-El. energy change                    ....  1.000e-05 Eh
 Orbital Gradient       TolG            ....  1.000e-05
 Orbital Rotation angle TolX            ....  1.000e-05
 DIIS Error             TolErr          ....  5.000e-07

------------------------------
INITIAL GUESS: MODEL POTENTIAL
------------------------------
Loading Hartree-Fock densities                     ... done
Calculating cut-offs                               ... done
Initializing the effective Hamiltonian             ... done
Setting up the integral package (SHARK)            ... done
Starting the Coulomb interaction                   ... done (   1.0 sec)
Making the grid                                    ... done (   0.6 sec)
Mapping shells                                     ... done
Starting the XC term evaluation                    ... done (   0.4 sec)
  promolecular density results
     # of electrons  =    216.994368066
     EX              =   -185.021807000
     EC              =     -7.298349263
     EX+EC           =   -192.320156264
Transforming the Hamiltonian                       ... done (   0.0 sec)
Diagonalizing the Hamiltonian                      ... done (   0.0 sec)
Back transforming the eigenvectors                 ... done (   0.1 sec)
Now organizing SCF variables                       ... done
                      ------------------
                      INITIAL GUESS DONE (   2.4 sec)
                      ------------------
             **** ENERGY FILE WAS UPDATED (CURCUMIN-OPT-FREQ-TS2-WB97M-V-6-311G-D-363.en.tmp) ****
Finished Guess after   2.9 sec
Maximum memory used throughout the entire GUESS-calculation: 63.7 MB

-------------------------------------------------------------------------------------------
                                      ORCA LEAN-SCF
                              memory conserving SCF solver
-------------------------------------------------------------------------------------------

--------------------
CPCM SOLVATION MODEL
--------------------
CPCM parameters:
  Epsilon                                         ...       7.0000
  Refrac                                          ...       1.8534
  Rsolv                                           ...       1.3000
  Surface type                                    ... GAUSSIAN VDW
  Discretization scheme                           ... Constant charge density
    Threshold for H atoms                         ...       5.0000 (charges/Ang^2)
    Threshold for non-H atoms                     ...       5.0000 (charges/Ang^2)
  Epsilon function type                           ...         CPCM
Solvent:                                          ... CUSTOM
Radii:
  Scheme                                          ... Element-dependent radii
  Radius for C  used is    3.8550 Bohr (=   2.0400 Ang.)
  Radius for H  used is    2.4944 Bohr (=   1.3200 Ang.)
  Radius for O  used is    3.4469 Bohr (=   1.8240 Ang.)
  Radius for N  used is    3.5149 Bohr (=   1.8600 Ang.)
Calculating surface                               ...        done! (  0.0s)
Cavity surface points                             ...         4463
Cavity Volume                                     ...    3244.8765
Cavity Surface-area                               ...    1690.8708
Calculating surface distance matrix               ...        done! (  0.1s)
Performing Cholesky decomposition & store         ...        done! (  1.9s)
Overall time for CPCM initialization              ...                 2.0s

----------------------------------------D-I-I-S--------------------------------------------
Iteration    Energy (Eh)           Delta-E    RMSDP     MaxDP     DIISErr   Damp  Time(sec)
-------------------------------------------------------------------------------------------
               ***  Starting incremental Fock matrix formation  ***
    1    -1467.6840880564352574     0.00e+00  7.07e-04  7.40e-02  1.56e-01  0.700  79.3
Warning: op=1 Small HOMO/LUMO gap (   0.079) - skipping pre-diagonalization
         Will do a full diagonalization
    2    -1467.9791769499936436    -2.95e-01  5.37e-04  4.79e-02  7.70e-02  0.700  74.3
                               ***Turning on AO-DIIS***
    3    -1468.1260377363598764    -1.47e-01  2.63e-04  1.02e-02  3.20e-02  0.700  74.8
    4    -1468.2152616284945452    -8.92e-02  5.48e-04  1.75e-02  2.18e-02  0.000  71.1
    5    -1468.4108675596505691    -1.96e-01  6.79e-05  4.41e-03  4.26e-03  0.000  73.6
                              *** Initializing SOSCF ***
---------------------------------------S-O-S-C-F--------------------------------------
Iteration    Energy (Eh)           Delta-E    RMSDP     MaxDP     MaxGrad    Time(sec)
--------------------------------------------------------------------------------------
    6    -1468.4122173210434994    -1.35e-03  4.05e-05  2.28e-03  2.60e-03    69.1
               *** Restarting incremental Fock matrix formation ***
    7    -1468.4129416400655828    -7.24e-04  7.30e-05  4.68e-03  6.41e-03    81.6
               *** Scaled step length from 0.531949 to 0.200000 ***
    8    -1468.4141392653582443    -1.20e-03  2.52e-04  1.52e-02  6.08e-03    66.9
               *** Scaled step length from 0.499626 to 0.200000 ***
    9    -1468.4172765029127277    -3.14e-03  2.53e-04  2.12e-02  7.63e-03    70.2
               *** Scaled step length from 0.816389 to 0.200000 ***
   10    -1468.4199004502734169    -2.62e-03  2.60e-04  2.70e-02  1.01e-02    69.4
               *** Scaled step length from 1.353886 to 0.200000 ***
   11    -1468.4228406874065058    -2.94e-03  2.63e-04  3.30e-02  1.68e-02    69.2
               *** Scaled step length from 0.652499 to 0.200000 ***
   12    -1468.4260145132263915    -3.17e-03  2.64e-04  3.39e-02  2.24e-02    68.9
               *** Scaled step length from 0.310637 to 0.200000 ***
   13    -1468.4294478063384304    -3.43e-03  2.63e-04  2.81e-02  2.58e-02    67.5
               *** Scaled step length from 0.213003 to 0.200000 ***
   14    -1468.4343415199393803    -4.89e-03  2.50e-04  1.39e-02  2.39e-02    67.6
   15    -1468.4422035021582360    -7.86e-03  1.77e-04  8.03e-03  1.15e-02    69.6
   16    -1468.4455588904190790    -3.36e-03  8.88e-05  9.03e-03  3.16e-03    70.0
   17    -1468.4460703461377307    -5.11e-04  3.96e-05  2.12e-03  1.40e-03    67.1
   18    -1468.4462406145989917    -1.70e-04  1.69e-05  9.90e-04  8.22e-04    63.2
   19    -1468.4462867411104980    -4.61e-05  1.13e-05  1.40e-03  4.42e-04    61.1
   20    -1468.4462944786919252    -7.74e-06  3.87e-06  5.17e-04  3.61e-04    58.9
   21    -1468.4462981976605533    -3.72e-06  2.32e-06  1.63e-04  1.59e-04    58.2
   22    -1468.4462989997439308    -8.02e-07  1.76e-06  1.17e-04  1.28e-04    55.5
   23    -1468.4462993063016256    -3.07e-07  7.50e-07  4.45e-05  9.48e-05    52.9
   24    -1468.4462994387906747    -1.32e-07  5.31e-07  3.29e-05  2.52e-05    51.4
   25    -1468.4462994653292753    -2.65e-08  2.12e-07  1.33e-05  8.03e-06    50.1
   26    -1468.4462994678422092    -2.51e-09  1.09e-07  8.11e-06  6.56e-06    49.2
                 **** Energy Check signals convergence ****

               *****************************************************
               *                     SUCCESS                       *
               *           SCF CONVERGED AFTER  26 CYCLES          *
               *****************************************************

             **** ENERGY FILE WAS UPDATED (CURCUMIN-OPT-FREQ-TS2-WB97M-V-6-311G-D-363.en.tmp) ****

----------------
TOTAL SCF ENERGY
----------------

Total Energy       :      -1468.44629946784221 Eh          -39958.45526 eV

Components:
Nuclear Repulsion  :       2618.28996974118445 Eh           71247.29222 eV
Electronic Energy  :      -4087.51125525410362 Eh         -111226.83592 eV
One Electron Energy:      -7206.94459242038647 Eh         -196110.93245 eV
Two Electron Energy:       3119.43333716628285 Eh           84884.09653 eV
CPCM Dielectric    :         -0.04686808653143 Eh              -1.27535 eV

Virial components:
Potential Energy   :      -2933.72371565444791 Eh          -79830.68082 eV
Kinetic Energy     :       1465.27741618660571 Eh           39872.22556 eV
Virial Ratio       :          2.00216265073510

DFT components:
N(Alpha)           :      109.000035048108 electrons
N(Beta)            :      108.000023209851 electrons
N(Total)           :      217.000058257959 electrons
NL Energy, E(C,NL) :        0.821854131609 Eh       
E(XC)              :     -139.475231995028 Eh       

CPCM Solvation Model Properties:
Surface-charge          :         -0.02716131832661
Corrected charge        :         -0.00000000000000
Outlying charge corr.   :          0.00002805501937 Eh               0.00076 eV
Free-energy (cav+disp)  :  This term is not implemented in the current solvation scheme

---------------
SCF CONVERGENCE
---------------

  Last Energy change         ...    2.5129e-09  Tolerance :   1.0000e-08
  Last MAX-Density change    ...    8.1112e-06  Tolerance :   1.0000e-07
  Last RMS-Density change    ...    1.0940e-07  Tolerance :   5.0000e-09
  Last DIIS Error            ...    2.5969e-03  Tolerance :   5.0000e-07
  Last Orbital Gradient      ...    6.5620e-06  Tolerance :   1.0000e-05
  Last Orbital Rotation      ...    3.2932e-05  Tolerance :   1.0000e-05


----------------------
UHF SPIN CONTAMINATION
----------------------

Warning: in a DFT calculation there is little theoretical justification to 
         calculate <S**2> as in Hartree-Fock theory. We will do it anyways
         but you should keep in mind that the values have only limited relevance

Expectation value of <S**2>     :     0.761477
Ideal value S*(S+1) for S=0.5   :     0.750000
Deviation                       :     0.011477

----------------
ORBITAL ENERGIES
----------------
                 SPIN UP ORBITALS
  NO   OCC          E(Eh)            E(eV) 
   0   1.0000     -19.430413      -528.7284 
   1   1.0000     -19.398589      -527.8624 
   2   1.0000     -19.369151      -527.0614 
   3   1.0000     -19.367901      -527.0274 
   4   1.0000     -19.349151      -526.5172 
   5   1.0000     -19.348316      -526.4945 
   6   1.0000     -19.335987      -526.1590 
   7   1.0000     -19.329261      -525.9759 
   8   1.0000     -14.688691      -399.6996 
   9   1.0000     -10.457036      -284.5504 
  10   1.0000     -10.452504      -284.4271 
  11   1.0000     -10.425368      -283.6887 
  12   1.0000     -10.423824      -283.6467 
  13   1.0000     -10.408835      -283.2388 
  14   1.0000     -10.407705      -283.2080 
  15   1.0000     -10.394077      -282.8372 
  16   1.0000     -10.383127      -282.5392 
  17   1.0000     -10.382509      -282.5224 
  18   1.0000     -10.381876      -282.5052 
  19   1.0000     -10.379993      -282.4540 
  20   1.0000     -10.366980      -282.0999 
  21   1.0000     -10.365530      -282.0604 
  22   1.0000     -10.362402      -281.9753 
  23   1.0000     -10.360903      -281.9345 
  24   1.0000     -10.359743      -281.9029 
  25   1.0000     -10.358299      -281.8636 
  26   1.0000     -10.358072      -281.8575 
  27   1.0000     -10.356680      -281.8196 
  28   1.0000     -10.355689      -281.7926 
  29   1.0000     -10.355063      -281.7756 
  30   1.0000      -1.368376       -37.2354 
  31   1.0000      -1.212431       -32.9919 
  32   1.0000      -1.210963       -32.9520 
  33   1.0000      -1.197002       -32.5721 
  34   1.0000      -1.189745       -32.3746 
  35   1.0000      -1.184095       -32.2209 
  36   1.0000      -1.182916       -32.1888 
  37   1.0000      -1.181914       -32.1615 
  38   1.0000      -1.002747       -27.2861 
  39   1.0000      -1.001188       -27.2437 
  40   1.0000      -0.954586       -25.9756 
  41   1.0000      -0.942510       -25.6470 
  42   1.0000      -0.910515       -24.7764 
  43   1.0000      -0.888873       -24.1875 
  44   1.0000      -0.887589       -24.1525 
  45   1.0000      -0.876896       -23.8616 
  46   1.0000      -0.861064       -23.4307 
  47   1.0000      -0.811814       -22.0906 
  48   1.0000      -0.810906       -22.0659 
  49   1.0000      -0.793160       -21.5830 
  50   1.0000      -0.789954       -21.4958 
  51   1.0000      -0.780817       -21.2471 
  52   1.0000      -0.751560       -20.4510 
  53   1.0000      -0.742126       -20.1943 
  54   1.0000      -0.707698       -19.2574 
  55   1.0000      -0.705733       -19.2040 
  56   1.0000      -0.690523       -18.7901 
  57   1.0000      -0.688024       -18.7221 
  58   1.0000      -0.670774       -18.2527 
  59   1.0000      -0.668423       -18.1887 
  60   1.0000      -0.641395       -17.4532 
  61   1.0000      -0.638232       -17.3672 
  62   1.0000      -0.631876       -17.1942 
  63   1.0000      -0.630107       -17.1461 
  64   1.0000      -0.624266       -16.9871 
  65   1.0000      -0.624126       -16.9833 
  66   1.0000      -0.618414       -16.8279 
  67   1.0000      -0.596141       -16.2218 
  68   1.0000      -0.589794       -16.0491 
  69   1.0000      -0.587133       -15.9767 
  70   1.0000      -0.580816       -15.8048 
  71   1.0000      -0.578169       -15.7328 
  72   1.0000      -0.577256       -15.7079 
  73   1.0000      -0.562189       -15.2979 
  74   1.0000      -0.552971       -15.0471 
  75   1.0000      -0.550099       -14.9690 
  76   1.0000      -0.548556       -14.9270 
  77   1.0000      -0.546626       -14.8745 
  78   1.0000      -0.538643       -14.6572 
  79   1.0000      -0.535911       -14.5829 
  80   1.0000      -0.533376       -14.5139 
  81   1.0000      -0.526636       -14.3305 
  82   1.0000      -0.522488       -14.2176 
  83   1.0000      -0.520165       -14.1544 
  84   1.0000      -0.516783       -14.0624 
  85   1.0000      -0.505802       -13.7636 
  86   1.0000      -0.487645       -13.2695 
  87   1.0000      -0.485126       -13.2010 
  88   1.0000      -0.482465       -13.1285 
  89   1.0000      -0.480624       -13.0785 
  90   1.0000      -0.479923       -13.0594 
  91   1.0000      -0.477631       -12.9970 
  92   1.0000      -0.471465       -12.8292 
  93   1.0000      -0.469345       -12.7715 
  94   1.0000      -0.461595       -12.5606 
  95   1.0000      -0.445838       -12.1319 
  96   1.0000      -0.444785       -12.1032 
  97   1.0000      -0.411547       -11.1988 
  98   1.0000      -0.398906       -10.8548 
  99   1.0000      -0.394349       -10.7308 
 100   1.0000      -0.388886       -10.5821 
 101   1.0000      -0.387004       -10.5309 
 102   1.0000      -0.386054       -10.5051 
 103   1.0000      -0.377976       -10.2852 
 104   1.0000      -0.369716       -10.0605 
 105   1.0000      -0.349595        -9.5130 
 106   1.0000      -0.348374        -9.4797 
 107   1.0000      -0.308181        -8.3860 
 108   1.0000      -0.306283        -8.3344 
 109   0.0000      -0.005446        -0.1482 
 110   0.0000      -0.002121        -0.0577 
 111   0.0000       0.022359         0.6084 
 112   0.0000       0.062947         1.7129 
 113   0.0000       0.063905         1.7390 
 114   0.0000       0.087252         2.3743 
 115   0.0000       0.092718         2.5230 
 116   0.0000       0.110233         2.9996 
 117   0.0000       0.110596         3.0095 
 118   0.0000       0.115941         3.1549 
 119   0.0000       0.126995         3.4557 

                 SPIN DOWN ORBITALS
  NO   OCC          E(Eh)            E(eV) 
   0   1.0000     -19.413636      -528.2719 
   1   1.0000     -19.398154      -527.8506 
   2   1.0000     -19.369139      -527.0611 
   3   1.0000     -19.367906      -527.0275 
   4   1.0000     -19.349151      -526.5172 
   5   1.0000     -19.348316      -526.4944 
   6   1.0000     -19.334087      -526.1072 
   7   1.0000     -19.329016      -525.9693 
   8   1.0000     -14.688897      -399.7052 
   9   1.0000     -10.457650      -284.5671 
  10   1.0000     -10.452719      -284.4330 
  11   1.0000     -10.425353      -283.6883 
  12   1.0000     -10.423834      -283.6470 
[...]
107:   1364.48   0.012989   65.64  0.002971  (-0.052845  0.013167  0.002141)
108:   1367.96   0.009537   48.20  0.002176  ( 0.040407  0.019696  0.012452)
109:   1378.82   0.050318  254.29  0.011388  ( 0.102502  0.027263 -0.011760)
110:   1384.01   0.023588  119.21  0.005319  (-0.052513 -0.050486  0.003495)
111:   1386.93   0.045398  229.42  0.010215  ( 0.091280 -0.043266  0.003259)
112:   1468.52   0.000777    3.93  0.000165  (-0.005888 -0.007770  0.008368)
113:   1469.99   0.000627    3.17  0.000133  ( 0.009882  0.005935 -0.000544)
114:   1484.15   0.002950   14.91  0.000620  (-0.007409  0.023561 -0.003203)
115:   1485.21   0.002718   13.73  0.000571  (-0.016941 -0.000742 -0.016837)
116:   1496.06   0.008286   41.87  0.001728  ( 0.041382  0.003064 -0.002552)
117:   1496.65   0.008164   41.26  0.001702  (-0.026912 -0.026862  0.016012)
118:   1500.71   0.000546    2.76  0.000114  (-0.007008 -0.002164 -0.007733)
119:   1501.17   0.000877    4.43  0.000182  (-0.009031 -0.000606  0.010018)
120:   1564.63   0.080373  406.17  0.016030  (-0.111157 -0.060239  0.006764)
121:   1566.27   0.063876  322.80  0.012727  (-0.097775  0.056089 -0.004545)
122:   1664.07   0.002753   13.91  0.000516  (-0.009586  0.001380 -0.020553)
123:   1665.90   0.004925   24.89  0.000922  (-0.001735 -0.029904  0.005026)
124:   1677.15   0.100013  505.43  0.018609  (-0.117029 -0.029717 -0.063485)
125:   1679.74   0.064875  327.85  0.012053  ( 0.044360 -0.100418 -0.001002)
126:   1709.37   0.052857  267.12  0.009650  ( 0.014800 -0.094673 -0.021624)
127:   1713.91   0.054844  277.16  0.009986  (-0.097680 -0.006211 -0.020145)
128:   1715.37   0.087853  443.97  0.015982  ( 0.093590 -0.084251  0.011185)
129:   1734.34   0.087787  443.64  0.015796  ( 0.089381 -0.023885  0.085066)
130:   1756.17   0.131538  664.74  0.023374  (-0.038876 -0.135452 -0.059289)
131:   3042.74   0.013665   69.06  0.001401  (-0.021802 -0.008764  0.029143)
132:   3044.90   0.013634   68.90  0.001397  ( 0.004977 -0.035949  0.008956)
133:   3118.06   0.010180   51.44  0.001019  (-0.018574  0.025314 -0.005744)
134:   3119.99   0.010130   51.19  0.001013  (-0.029082 -0.007520 -0.010531)
135:   3139.83   0.000020    0.10  0.000002  ( 0.001086 -0.000386 -0.000837)
136:   3163.68   0.008421   42.56  0.000831  ( 0.023367  0.012785  0.011008)
137:   3164.78   0.008337   42.13  0.000822  (-0.014149 -0.004015  0.024611)
138:   3166.88   0.003107   15.70  0.000306  ( 0.017298  0.001987  0.001738)
139:   3173.27   0.002031   10.26  0.000200  ( 0.009512  0.007229 -0.007551)
140:   3181.16   0.003188   16.11  0.000313  (-0.013474  0.011411 -0.001004)
141:   3184.01   0.003299   16.67  0.000323  (-0.016072 -0.007485 -0.002994)
142:   3191.39   0.001456    7.36  0.000142  (-0.011821 -0.001049 -0.001231)
143:   3194.23   0.000809    4.09  0.000079  (-0.005904 -0.004830  0.004568)
144:   3197.69   0.003178   16.06  0.000310  ( 0.009642  0.014665  0.001452)
145:   3199.43   0.002923   14.77  0.000285  (-0.001817  0.002653 -0.016577)
146:   3207.42   0.001143    5.78  0.000111  (-0.003104 -0.004336  0.009099)
147:   3208.43   0.001150    5.81  0.000112  ( 0.008319  0.006447  0.001050)
148:   3807.32   0.037765  190.85  0.003095  (-0.040200 -0.011782 -0.036613)
149:   3809.21   0.037348  188.74  0.003060  (-0.016565  0.052773  0.000502)

* The epsilon (eps) is given for a Dirac delta lineshape.
** The dipole moment derivative (T) already includes vibrational overlap.

The first frequency considered to be a vibration is 8
The total number of vibrations considered is 142


--------------------------
THERMOCHEMISTRY AT 363.15K
--------------------------

Temperature         ...   363.15 K
Pressure            ...     1.00 atm
Total Mass          ...   414.39 AMU
Quasi RRHO          ...     True
Cut-Off Frequency   ...     1.00 cm^-1

Throughout the following assumptions are being made:
  (1) The electronic state is orbitally nondegenerate
      but the spin degeneracy is treated
  (2) There are no thermally accessible electronically excited states
  (3) Hindered rotations indicated by low frequency modes are not
      treated as such but are treated as vibrations and this may
      cause some error
  (4) All equations used are the standard statistical mechanics
      equations for an ideal gas
  (5) All vibrations are strictly harmonic

freq.       8.59  E(vib)   ...       0.71 
freq.      10.06  E(vib)   ...       0.71 
freq.      19.55  E(vib)   ...       0.69 
freq.      21.10  E(vib)   ...       0.69 
freq.      51.81  E(vib)   ...       0.65 
freq.      53.54  E(vib)   ...       0.65 
freq.      56.88  E(vib)   ...       0.64 
freq.      63.67  E(vib)   ...       0.63 
freq.      74.20  E(vib)   ...       0.62 
freq.      84.83  E(vib)   ...       0.61 
freq.      91.71  E(vib)   ...       0.60 
freq.     111.99  E(vib)   ...       0.57 
freq.     114.81  E(vib)   ...       0.57 
freq.     127.61  E(vib)   ...       0.55 
freq.     134.91  E(vib)   ...       0.55 
freq.     141.60  E(vib)   ...       0.54 
freq.     151.71  E(vib)   ...       0.53 
freq.     155.44  E(vib)   ...       0.52 
freq.     165.43  E(vib)   ...       0.51 
freq.     169.39  E(vib)   ...       0.51 
freq.     173.48  E(vib)   ...       0.50 
freq.     201.28  E(vib)   ...       0.47 
freq.     209.97  E(vib)   ...       0.46 
freq.     213.99  E(vib)   ...       0.46 
freq.     255.56  E(vib)   ...       0.42 
freq.     300.69  E(vib)   ...       0.38 
freq.     302.08  E(vib)   ...       0.37 
freq.     316.22  E(vib)   ...       0.36 
freq.     318.06  E(vib)   ...       0.36 
freq.     336.51  E(vib)   ...       0.34 
freq.     338.55  E(vib)   ...       0.34 
freq.     385.51  E(vib)   ...       0.31 
freq.     393.01  E(vib)   ...       0.30 
freq.     397.06  E(vib)   ...       0.30 
freq.     400.07  E(vib)   ...       0.29 
freq.     405.34  E(vib)   ...       0.29 
freq.     425.62  E(vib)   ...       0.28 
freq.     467.10  E(vib)   ...       0.25 
freq.     473.17  E(vib)   ...       0.25 
freq.     498.67  E(vib)   ...       0.23 
freq.     500.97  E(vib)   ...       0.23 
freq.     537.91  E(vib)   ...       0.21 
freq.     559.73  E(vib)   ...       0.20 
freq.     567.68  E(vib)   ...       0.19 
freq.     578.56  E(vib)   ...       0.19 
freq.     594.29  E(vib)   ...       0.18 
freq.     594.61  E(vib)   ...       0.18 
freq.     612.99  E(vib)   ...       0.17 
freq.     628.40  E(vib)   ...       0.16 
freq.     644.87  E(vib)   ...       0.16 
freq.     681.15  E(vib)   ...       0.14 
freq.     714.63  E(vib)   ...       0.13 
freq.     726.68  E(vib)   ...       0.12 
freq.     750.61  E(vib)   ...       0.12 
freq.     752.76  E(vib)   ...       0.11 
freq.     769.90  E(vib)   ...       0.11 
freq.     770.99  E(vib)   ...       0.11 
freq.     800.27  E(vib)   ...       0.10 
freq.     819.05  E(vib)   ...       0.09 
freq.     821.90  E(vib)   ...       0.09 
freq.     824.26  E(vib)   ...       0.09 
freq.     827.19  E(vib)   ...       0.09 
freq.     860.70  E(vib)   ...       0.08 
freq.     877.08  E(vib)   ...       0.08 
freq.     902.26  E(vib)   ...       0.07 
freq.     915.53  E(vib)   ...       0.07 
freq.     920.40  E(vib)   ...       0.07 
freq.     930.38  E(vib)   ...       0.07 
freq.     952.52  E(vib)   ...       0.06 
freq.     954.43  E(vib)   ...       0.06 
freq.     967.04  E(vib)   ...       0.06 
freq.     976.00  E(vib)   ...       0.06 
freq.     988.36  E(vib)   ...       0.06 
freq.    1011.03  E(vib)   ...       0.05 
freq.    1014.44  E(vib)   ...       0.05 
freq.    1059.19  E(vib)   ...       0.05 
freq.    1060.15  E(vib)   ...       0.05 
freq.    1109.81  E(vib)   ...       0.04 
freq.    1146.18  E(vib)   ...       0.04 
freq.    1146.81  E(vib)   ...       0.04 
freq.    1172.57  E(vib)   ...       0.03 
freq.    1176.91  E(vib)   ...       0.03 
freq.    1180.43  E(vib)   ...       0.03 
freq.    1188.98  E(vib)   ...       0.03 
freq.    1190.23  E(vib)   ...       0.03 
freq.    1204.62  E(vib)   ...       0.03 
freq.    1206.07  E(vib)   ...       0.03 
freq.    1222.24  E(vib)   ...       0.03 
freq.    1223.61  E(vib)   ...       0.03 
freq.    1249.82  E(vib)   ...       0.03 
freq.    1272.79  E(vib)   ...       0.02 
freq.    1284.98  E(vib)   ...       0.02 
freq.    1291.48  E(vib)   ...       0.02 
freq.    1292.99  E(vib)   ...       0.02 
freq.    1306.37  E(vib)   ...       0.02 
freq.    1312.35  E(vib)   ...       0.02 
freq.    1315.49  E(vib)   ...       0.02 
freq.    1327.14  E(vib)   ...       0.02 
freq.    1335.46  E(vib)   ...       0.02 
freq.    1364.48  E(vib)   ...       0.02 
freq.    1367.96  E(vib)   ...       0.02 
freq.    1378.82  E(vib)   ...       0.02 
freq.    1384.01  E(vib)   ...       0.02 
freq.    1386.93  E(vib)   ...       0.02 
freq.    1468.52  E(vib)   ...       0.01 
freq.    1469.99  E(vib)   ...       0.01 
freq.    1484.15  E(vib)   ...       0.01 
freq.    1485.21  E(vib)   ...       0.01 
freq.    1496.06  E(vib)   ...       0.01 
freq.    1496.65  E(vib)   ...       0.01 
freq.    1500.71  E(vib)   ...       0.01 
freq.    1501.17  E(vib)   ...       0.01 
freq.    1564.63  E(vib)   ...       0.01 
freq.    1566.27  E(vib)   ...       0.01 
freq.    1664.07  E(vib)   ...       0.01 
freq.    1665.90  E(vib)   ...       0.01 
freq.    1677.15  E(vib)   ...       0.01 
freq.    1679.74  E(vib)   ...       0.01 
freq.    1709.37  E(vib)   ...       0.01 
freq.    1713.91  E(vib)   ...       0.01 
freq.    1715.37  E(vib)   ...       0.01 
freq.    1734.34  E(vib)   ...       0.01 
freq.    1756.17  E(vib)   ...       0.00 
freq.    3042.74  E(vib)   ...       0.00 
freq.    3044.90  E(vib)   ...       0.00 
freq.    3118.06  E(vib)   ...       0.00 
freq.    3119.99  E(vib)   ...       0.00 
freq.    3139.83  E(vib)   ...       0.00 
freq.    3163.68  E(vib)   ...       0.00 
freq.    3164.78  E(vib)   ...       0.00 
freq.    3166.88  E(vib)   ...       0.00 
freq.    3173.27  E(vib)   ...       0.00 
freq.    3181.16  E(vib)   ...       0.00 
freq.    3184.01  E(vib)   ...       0.00 
freq.    3191.39  E(vib)   ...       0.00 
freq.    3194.23  E(vib)   ...       0.00 
freq.    3197.69  E(vib)   ...       0.00 
freq.    3199.43  E(vib)   ...       0.00 
freq.    3207.42  E(vib)   ...       0.00 
freq.    3208.43  E(vib)   ...       0.00 
freq.    3807.32  E(vib)   ...       0.00 
freq.    3809.21  E(vib)   ...       0.00 

------------
INNER ENERGY
------------

The inner energy is: U= E(el) + E(ZPE) + E(vib) + E(rot) + E(trans)
    E(el)   - is the total energy from the electronic structure calculation
              = E(kin-el) + E(nuc-el) + E(el-el) + E(nuc-nuc)
    E(ZPE)  - the the zero temperature vibrational energy from the frequency calculation
    E(vib)  - the the finite temperature correction to E(ZPE) due to population
              of excited vibrational states
    E(rot)  - is the rotational thermal energy
    E(trans)- is the translational thermal energy

Summary of contributions to the inner energy U:
Electronic energy                ...  -1468.44633480 Eh
Zero point energy                ...      0.37314789 Eh     234.15 kcal/mol
Thermal vibrational correction   ...      0.03822128 Eh      23.98 kcal/mol
Thermal rotational correction    ...      0.00172503 Eh       1.08 kcal/mol
Thermal translational correction ...      0.00172503 Eh       1.08 kcal/mol
-----------------------------------------------------------------------
Total thermal energy                  -1468.03151557 Eh


Summary of corrections to the electronic energy:
(perhaps to be used in another calculation)
Total thermal correction                  0.04167135 Eh      26.15 kcal/mol
Non-thermal (ZPE) correction              0.37314789 Eh     234.15 kcal/mol
-----------------------------------------------------------------------
Total correction                          0.41481924 Eh     260.30 kcal/mol


--------
ENTHALPY
--------

The enthalpy is H = U + kB*T
                kB is Boltzmann's constant
Total thermal energy              ...  -1468.03151557 Eh 
Thermal Enthalpy correction       ...      0.00115006 Eh       0.72 kcal/mol
-----------------------------------------------------------------------
Total Enthalpy                    ...  -1468.03036551 Eh


Note: Only C1 symmetry has been detected, increase convergence thresholds 
      if your molecule has a higher symmetry. Symmetry factor of 1.0 is   
      used for the rotational entropy correction. 
 

Note: Rotational entropy computed according to Herzberg 
Infrared and Raman Spectra, Chapter V,1, Van Nostrand Reinhold, 1945 
Point Group:  C1, Symmetry Number:   1  
Rotational constants in cm-1:     0.007108     0.001717     0.001462 

Vibrational entropy computed according to the QRRHO of S. Grimme
Chem.Eur.J. 2012 18 9955 using a reference frequency of 100.0 cm-1


-------
ENTROPY
-------

The entropy contributions are T*S = T*(S(el)+S(vib)+S(rot)+S(trans))
     S(el)   - electronic entropy
     S(vib)  - vibrational entropy
     S(rot)  - rotational entropy
     S(trans)- translational entropy
The entropies will be listed as multiplied by the temperature to get
units of energy

Electronic entropy                ...      0.00079714 Eh      0.50 kcal/mol
Vibrational entropy               ...      0.07177297 Eh     45.04 kcal/mol
Rotational entropy                ...      0.02218367 Eh     13.92 kcal/mol
Translational entropy             ...      0.02600477 Eh     16.32 kcal/mol
-----------------------------------------------------------------------
Final entropy term                ...      0.12075855 Eh     75.78 kcal/mol

In case the symmetry of your molecule has not been determined correctly
or in case you have a reason to use a different symmetry number we print 
out the resulting rotational entropy values for sn=1,12:

 non-linear molecules -----------------------------------
|  sn= 1 | S(rot)=       0.02218367 Eh     13.92 kcal/mol|
|  sn= 2 | S(rot)=       0.02138654 Eh     13.42 kcal/mol|
|  sn= 3 | S(rot)=       0.02092024 Eh     13.13 kcal/mol|
|  sn= 4 | S(rot)=       0.02058940 Eh     12.92 kcal/mol|
|  sn= 5 | S(rot)=       0.02033278 Eh     12.76 kcal/mol|
|  sn= 6 | S(rot)=       0.02012311 Eh     12.63 kcal/mol|
|  sn= 7 | S(rot)=       0.01994583 Eh     12.52 kcal/mol|
|  sn= 8 | S(rot)=       0.01979227 Eh     12.42 kcal/mol|
|  sn= 9 | S(rot)=       0.01965681 Eh     12.33 kcal/mol|
|  sn=10 | S(rot)=       0.01953565 Eh     12.26 kcal/mol|
|  sn=11 | S(rot)=       0.01942604 Eh     12.19 kcal/mol|
|  sn=12 | S(rot)=       0.01932597 Eh     12.13 kcal/mol|
 linear molecules ---------------------------------------
|  Dinfh | S(rot)=       0.01422114 Eh      8.92 kcal/mol|
|  Cinfv | S(rot)=       0.01501827 Eh      9.42 kcal/mol|
 --------------------------------------------------------


-------------------
GIBBS FREE ENERGY
-------------------

The Gibbs free energy is G = H - T*S

Total enthalpy                    ...  -1468.03036551 Eh 
Total entropy correction          ...     -0.12075855 Eh    -75.78 kcal/mol
-----------------------------------------------------------------------
Final Gibbs free energy         ...  -1468.15112406 Eh

For completeness - the Gibbs free energy minus the electronic energy
G-E(el)                           ...      0.29521074 Eh    185.25 kcal/mol



--------------------------------
SUGGESTED CITATIONS FOR THIS RUN
--------------------------------

Below you find a list of papers that are relevant to this ORCA run
We neither can nor want to force you to cite these papers, but we appreciate if you do
You receive ORCA, which is the product of decades of hard work by many enthusiastic individuals, for free
The only thing we kindly ask in return is that you cite our papers,
We deeply appreciate it, if you show your appreciation for ORCA by not just citing the generic ORCA reference.

Please note that relegating all ORCA citations to the supporting information does *not* help us.
SI sections are not indexed - citations you put there will not count into any citation statistics
But we need these citations in order to attract the funding resources that allow us to do what we are doing

Therefore, if you are a happy ORCA user, please consider citing a few of the papers listed below in the main body of your paper

In addition to the list printed below, the program has created the file CURCUMIN-OPT-FREQ-TS2-WB97M-V-6-311G-D-363.bibtex that contains the list in bibtex format
You can import this file easily into all common literature databanks and citation aid programs


List of essential papers. We consider these as the minimum necessary citations

  1. Neese,F.
     Software update: the ORCA program system, version 5.0
     WIRES Comput. Molec. Sci., 2022 12(1)e1606
     doi.org/10.1002/wcms.1606

List of papers to cite with high priority. The work reported in these papers was absolutely
necessary for this run to complete.
Our perspective: the developers of density functionals and basis sets usually get cited in chemistry papers
Good! But without the algorithms to do something with them, the functionals or basis sets would not do anything.
Hence, in our opinion, the algorithm design and method developments papers are equally worthy of getting cited

  1. Neese,F.
     An improvement of the resolution of the identity approximation for the formation of the Coulomb matrix
     J. Comp. Chem., 2003 24(14)1740-1747
     doi.org/10.1002/jcc.10318
  2. Bykov,D.; Petrenko,T.; Izsak,R.; Kossmann,S.; Becker,U.; Valeev,E.; Neese,F.
     Efficient implementation of the analytic second derivatives of Hartree-Fock and hybrid DFT energies: a detailed analysis of different approximations
     Molec. Phys., 2015 113 1961-1977
     doi.org/10.1080/00268976.2015.1025114
  3. Garcia-Rates,M.; Neese,F.
     Effect of the Solute Cavity on the Solvation Energy and its Derivatives within the Framework of the Gaussian Charge Scheme
     J. Comput. Chem., 2020 41 922-939
     doi.org/10.1002/jcc.26139
  4. Neese,F.
     The SHARK Integral Generation and Digestion System
     J. Comp. Chem., 2022  1-16
     doi.org/10.1002/jcc.26942
  5. Lehtola,S.; Steigemann,C.; Oliveira,M.; Marques,M.
     Recent developments in Libxc - A comprehensive library of functionals for density functional theory
     Software X, 2018 7 
     doi.org/10.1016/j.softx.2017.11.002

List of suggested additional citations. These are papers that are important in the 'surrounding' of 
of this run, or papers that preceded the highly important papers. If you like your results we are grateful for a citation.

  1. Neese,F.
     The ORCA program system
     WIRES Comput. Molec. Sci., 2012 2(1)73-78
     doi.org/10.1002/wcms.81
  2. Neese,F.
     Software update: the ORCA program system, version 4.0
     WIRES Comput. Molec. Sci., 2018 8(1)1-6
     doi.org/10.1002/wcms.1327
  3. Neese,F.; Wennmohs,F.; Becker,U.; Riplinger,C.
     The ORCA quantum chemistry program package
     J. Chem. Phys., 2020 152 Art. No. L224108
     doi.org/10.1063/5.0004608

List of optional additional citations

  1. Neese,F.
     Approximate second-order SCF convergence for spin unrestricted wavefunctions
     Chem. Phys. Lett., 2000 325(1-3)93-98
     doi.org/10.1016/s0009-2614(00)00662-x

Timings for individual modules:

Sum of individual times          ...   166879.826 sec (=2781.330 min)
Startup calculation              ...       81.982 sec (=   1.366 min)   0.0 %
SCF iterations                   ...    16252.610 sec (= 270.877 min)   9.7 %
Property calculations            ...        0.166 sec (=   0.003 min)   0.0 %
SCF Gradient evaluation          ...     2579.909 sec (=  42.998 min)   1.5 %
Geometry relaxation              ...        0.637 sec (=   0.011 min)   0.0 %
Numerical frequency calculation  ...   147964.522 sec (=2466.075 min)  88.7 %
                             ****ORCA TERMINATED NORMALLY****
TOTAL RUN TIME: 1 days 22 hours 14 minutes 40 seconds 384 msec
