
                                 *****************
                                 * O   R   C   A *
                                 *****************

                                            #,                                       
                                            ###                                      
                                            ####                                     
                                            #####                                    
                                            ######                                   
                                           ########,                                 
                                     ,,################,,,,,                         
                               ,,#################################,,                 
                          ,,##########################################,,             
                       ,#########################################, ''#####,          
                    ,#############################################,,   '####,        
                  ,##################################################,,,,####,       
                ,###########''''           ''''###############################       
              ,#####''   ,,,,##########,,,,          '''####'''          '####       
            ,##' ,,,,###########################,,,                        '##       
           ' ,,###''''                  '''############,,,                           
         ,,##''                                '''############,,,,        ,,,,,,###''
      ,#''                                            '''#######################'''  
     '                                                          ''''####''''         
             ,#######,   #######,   ,#######,      ##                                
            ,#'     '#,  ##    ##  ,#'     '#,    #''#        ######   ,####,        
            ##       ##  ##   ,#'  ##            #'  '#       #        #'  '#        
            ##       ##  #######   ##           ,######,      #####,   #    #        
            '#,     ,#'  ##    ##  '#,     ,#' ,#      #,         ##   #,  ,#        
             '#######'   ##     ##  '#######'  #'      '#     #####' # '####'        



                  #######################################################
                  #                        -***-                        #
                  #          Department of theory and spectroscopy      #
                  #    Directorship and core code : Frank Neese         #
                  #        Max Planck Institute fuer Kohlenforschung    #
                  #                Kaiser Wilhelm Platz 1               #
                  #                 D-45470 Muelheim/Ruhr               #
                  #                      Germany                        #
                  #                                                     #
                  #                  All rights reserved                #
                  #                        -***-                        #
                  #######################################################


                         Program Version 5.0.4 -  RELEASE  -


 With contributions from (in alphabetic order):
   Daniel Aravena         : Magnetic Suceptibility
   Michael Atanasov       : Ab Initio Ligand Field Theory (pilot matlab implementation)
   Alexander A. Auer      : GIAO ZORA, VPT2 properties, NMR spectrum
   Ute Becker             : Parallelization
   Giovanni Bistoni       : ED, misc. LED, open-shell LED, HFLD
   Martin Brehm           : Molecular dynamics
   Dmytro Bykov           : SCF Hessian
   Vijay G. Chilkuri      : MRCI spin determinant printing, contributions to CSF-ICE
   Dipayan Datta          : RHF DLPNO-CCSD density
   Achintya Kumar Dutta   : EOM-CC, STEOM-CC
   Dmitry Ganyushin       : Spin-Orbit,Spin-Spin,Magnetic field MRCI
   Miquel Garcia          : C-PCM and meta-GGA Hessian, CC/C-PCM, Gaussian charge scheme
   Yang Guo               : DLPNO-NEVPT2, F12-NEVPT2, CIM, IAO-localization
   Andreas Hansen         : Spin unrestricted coupled pair/coupled cluster methods
   Benjamin Helmich-Paris : MC-RPA, TRAH-SCF, COSX integrals
   Lee Huntington         : MR-EOM, pCC
   Robert Izsak           : Overlap fitted RIJCOSX, COSX-SCS-MP3, EOM
   Marcus Kettner         : VPT2
   Christian Kollmar      : KDIIS, OOCD, Brueckner-CCSD(T), CCSD density, CASPT2, CASPT2-K
   Simone Kossmann        : Meta GGA functionals, TD-DFT gradient, OOMP2, MP2 Hessian
   Martin Krupicka        : Initial AUTO-CI
   Lucas Lang             : DCDCAS
   Marvin Lechner         : AUTO-CI (C++ implementation), FIC-MRCC
   Dagmar Lenk            : GEPOL surface, SMD
   Dimitrios Liakos       : Extrapolation schemes; Compound Job, initial MDCI parallelization
   Dimitrios Manganas     : Further ROCIS development; embedding schemes
   Dimitrios Pantazis     : SARC Basis sets
   Anastasios Papadopoulos: AUTO-CI, single reference methods and gradients
   Taras Petrenko         : DFT Hessian,TD-DFT gradient, ASA, ECA, R-Raman, ABS, FL, XAS/XES, NRVS
   Peter Pinski           : DLPNO-MP2, DLPNO-MP2 Gradient
   Christoph Reimann      : Effective Core Potentials
   Marius Retegan         : Local ZFS, SOC
   Christoph Riplinger    : Optimizer, TS searches, QM/MM, DLPNO-CCSD(T), (RO)-DLPNO pert. Triples
   Tobias Risthaus        : Range-separated hybrids, TD-DFT gradient, RPA, STAB
   Michael Roemelt        : Original ROCIS implementation
   Masaaki Saitow         : Open-shell DLPNO-CCSD energy and density
   Barbara Sandhoefer     : DKH picture change effects
   Avijit Sen             : IP-ROCIS
   Kantharuban Sivalingam : CASSCF convergence, NEVPT2, FIC-MRCI
   Bernardo de Souza      : ESD, SOC TD-DFT
   Georgi Stoychev        : AutoAux, RI-MP2 NMR, DLPNO-MP2 response
   Willem Van den Heuvel  : Paramagnetic NMR
   Boris Wezisla          : Elementary symmetry handling
   Frank Wennmohs         : Technical directorship


 We gratefully acknowledge several colleagues who have allowed us to
 interface, adapt or use parts of their codes:
   Stefan Grimme, W. Hujo, H. Kruse, P. Pracht,  : VdW corrections, initial TS optimization,
                  C. Bannwarth, S. Ehlert          DFT functionals, gCP, sTDA/sTD-DF
   Ed Valeev, F. Pavosevic, A. Kumar             : LibInt (2-el integral package), F12 methods
   Garnet Chan, S. Sharma, J. Yang, R. Olivares  : DMRG
   Ulf Ekstrom                                   : XCFun DFT Library
   Mihaly Kallay                                 : mrcc  (arbitrary order and MRCC methods)
   Jiri Pittner, Ondrej Demel                    : Mk-CCSD
   Frank Weinhold                                : gennbo (NPA and NBO analysis)
   Christopher J. Cramer and Donald G. Truhlar   : smd solvation model
   Lars Goerigk                                  : TD-DFT with DH, B97 family of functionals
   V. Asgeirsson, H. Jonsson                     : NEB implementation
   FAccTs GmbH                                   : IRC, NEB, NEB-TS, DLPNO-Multilevel, CI-OPT
                                                   MM, QMMM, 2- and 3-layer-ONIOM, Crystal-QMMM,
                                                   LR-CPCM, SF, NACMEs, symmetry and pop. for TD-DFT,
                                                   nearIR, NL-DFT gradient (VV10), updates on ESD,
                                                   ML-optimized integration grids
   S Lehtola, MJT Oliveira, MAL Marques          : LibXC Library
   Liviu Ungur et al                             : ANISO software


 Your calculation uses the libint2 library for the computation of 2-el integrals
 For citations please refer to: http://libint.valeyev.net

 Your ORCA version has been built with support for libXC version: 5.1.0
 For citations please refer to: https://tddft.org/programs/libxc/

 This ORCA versions uses:
   CBLAS   interface :  Fast vector & matrix operations
   LAPACKE interface :  Fast linear algebra routines
   SCALAPACK package :  Parallel linear algebra routines
   Shared memory     :  Shared parallel matrices
   BLAS/LAPACK       :  OpenBLAS 0.3.15  USE64BITINT DYNAMIC_ARCH NO_AFFINITY Zen SINGLE_THREADED
        Core in use  :  Zen
   Copyright (c) 2011-2014, The OpenBLAS Project


Your calculation utilizes the DFT-NL dispersion correction.
Cite in your paper:
Vydrov, O. A.; Van Voorhis, T. J. Chem. Phys. 2010, 133, 244103
Hujo, W.; Grimme, S. J. Chem. Theory Comput. 2011, 7, 3866 
   

================================================================================

----- Orbital basis set information -----
Your calculation utilizes the basis: 6-311G(d)
   H, Li - Ne  : R. Krishnan, J. S. Binkley, R. Seeger and J. A. Pople, J. Chem. Phys. 72, 650 (1980).
   Na - Ar     : A. D. McLean and G. S. Chandler J. Chem. Phys. 72, 5639, (1980).
   K  - Ca     : J.-P. Blaudeau, M. P. McGrath, L. A. Curtiss and L. Radom, J. Chem. Phys. 107, 5016 (1997).
   Ga - Kr     : L. A. Curtiss, M. P. McGrath, J.-P. Blandeau, N. E. Davis, R. C. Binning and L. Radom, J. Chem. Phys. 103, 6104 (1995).
   Pol./Diff.
   H, Li - Cl  : T. Clark, J. Chandrasekhar and P. v. R. Schleyer, J. Comp. Chem. 4, 294 (1983).
   H - Ne      : M. J. Frisch, J. A. Pople and J. S. Binkley, J. Chem. Phys. 80, 3265 (1984).

----- AuxJ basis set information -----
Your calculation utilizes the auxiliary basis: def2/J
   F. Weigend, Phys. Chem. Chem. Phys. 8, 1057 (2006).

================================================================================
                                        WARNINGS
                       Please study these warnings very carefully!
================================================================================

Using LibXC functional ID 531 : wB97M-V exchange-correlation functional
[ 1]  N. Mardirossian and M. Head-Gordon, J. Chem. Phys. 144, 214110 (2016)
Using LibXC functional ID 531 : wB97M-V exchange-correlation functional
[ 1]  N. Mardirossian and M. Head-Gordon, J. Chem. Phys. 144, 214110 (2016)

WARNING: B97M-V or wB97M-V functional requested.
  ===> : libXC variant has now been activated.
         Any manually given DFX/HFX/RangeSep scaling parameters are IGNORED!

Your calculation utilizes LibXC
 by S Lehtola, C Steigemann, MJT Oliveira & MAL Marques
Please cite in your paper:
 S Lehtola, C Steigemann, MJT Oliveira & MAL Marques, SoftwareX, 7, (2018), 1.
   


WARNING: your system is open-shell and RHF/RKS was chosen
  ===> : WILL SWITCH to UHF/UKS


WARNING: Geometry Optimization
  ===> : Switching off AutoStart
         For restart on a previous wavefunction, please use MOREAD

WARNING: Analytic gradients for DFT-NL dispersion can only be done using the self-consistent method,
  ===>   Switching to SCNL

WARNING: Self-consistent DFT-NL dispersion not compatible with AutoTRAH.
  ===>   Switching AutoTRAH off


INFO   : the flag for use of the SHARK integral package has been found!

================================================================================
                                       INPUT FILE
================================================================================
NAME = CURCUMIN-OPT-FREQ-Prod-1-wB97XM-V-6-311G-D-363.inp
|  1> #
|  2> ! Opt NumFreq wb97M-V 6-311G(d) CPCM RIJDX
|  3> %maxcore 2000
|  4> %cpcm
|  5> epsilon 7 # Dielectric constant
|  6> refrac 1.85341 # Refractive index
|  7> end
|  8> %FREQ temp 363.15 #temperature is 363.15K
|  9> end
| 10> 
| 11> * xyz 0 2
| 12>   C   2.13328456888435      1.03376516149699      0.97442491852595
| 13>   H   1.73202186852674      2.04347611856952      0.99493445312485
| 14>   C   1.44474216344021      0.04689872471734      1.56041304954381
| 15>   H   1.80191210798552     -0.97733806173994      1.60877847852471
| 16>   C   0.13395577420058      0.23982717797115      2.21569526171852
| 17>   O   -0.44745229427806     -0.71401541714883      2.69876469575197
| 18>   C   3.43697330579189      0.92797007017432      0.30306975484210
| 19>   C   4.26734689078332      2.05007374149701      0.27969545638239
| 20>   C   3.94939770416863     -0.22337799984605     -0.30231676303095
| 21>   C   5.53115379355278      2.01644749341497     -0.29367475722635
| 22>   H   3.91391718916383      2.97043850362382      0.73196497211597
| 23>   C   5.19648884955774     -0.29354679819251     -0.89731070583704
| 24>   H   4.91492221157434     -0.88105396639306      3.40654324548051
| 25>   C   6.00673587143807      0.85210937397192     -0.88656648150719
| 26>   H   6.15353756562519      2.90602704130964     -0.29547221844256
| 27>   O   7.20990413436430      0.74696383899968     -1.49182104354147
| 28>   H   7.68624667751268      1.58450107762807     -1.43816390509286
| 29>   O   5.57632400489217     -1.43348509616187     -1.53824201384640
| 30>   C   6.57163045881753     -2.19346557114354     -0.82707530341980
| 31>   H   6.18712560632003     -2.48558755440537      0.15193449930951
| 32>   H   6.75839361746936     -3.07852062832369     -1.43081776538254
| 33>   H   7.49037431297766     -1.61568230061224     -0.71928156128938
| 34>   C   -2.97905653440652      0.59437669971459      1.02511118362740
| 35>   H   -2.62157181379759      0.20177906247640      1.97410514164790
| 36>   C   -2.26723724776600      1.54946132327251      0.40689211363671
| 37>   H   -2.56783132565268      1.96540205429572     -0.55055712023953
| 38>   C   -1.01532789392426      2.11396273681078      0.93128743698124
| 39>   O   -0.40350970506820      2.95621060639211      0.29616945496649
| 40>   C   -4.21769006655883     -0.01916018182665      0.54135383561727
| 41>   C   -4.81437350013277     -1.02441698745892      1.30462498050889
| 42>   C   -4.83756392294296      0.36024614100223     -0.65918477801595
| 43>   C   -5.98601587512471     -1.64319454744125      0.88575704599798
| 44>   H   -4.35318230998840     -1.33355149585662      2.23740705191117
| 45>   C   -5.99943360439329     -0.24944725728762     -1.08612743281443
| 46>   H   -4.41990649587059      1.13492399900355     -1.29361381098894
| 47>   C   -6.58534701084210     -1.26628074782264     -0.31098893541579
| 48>   H   -6.43756438442003     -2.42935923862843      1.48415178354748
| 49>   O   -7.71797245648622     -1.83475506356064     -0.79252811613541
| 50>   H   -8.03123589584197     -2.51461205564681     -0.18396381229722
| 51>   O   -6.55863818778111      0.11211556719747     -2.28667411217719
| 52>   C   -7.74198673430669      0.90664678412457     -2.14622706678487
| 53>   H   -7.51813655064713      1.83150756039032     -1.60633452540310
| 54>   H   -8.07422486797041      1.14446388088087     -3.15505058699285
| 55>   H   -8.52515431303093      0.35395967712244     -1.62346384114374
| 56>   C   -0.47838608862814      1.63535954007311      2.28080943823946
| 57>   H   -1.27584791550299      1.60210542546570      3.02359982511088
| 58>   H   0.26683751979475      2.36308289044573      2.60426431375487
| 59>   O   3.49010910980333     -2.41133221666301      0.25394393805420
| 60>   O   2.17165032718523     -1.41987523095179     -1.13682539444256
| 61>   N   3.13793736153235     -1.45048385493104     -0.40482527745408
| 62> *
| 63> 
| 64> 
| 65> 
| 66>                          ****END OF INPUT****
================================================================================

                       *****************************
                       * Geometry Optimization Run *
                       *****************************

Geometry optimization settings:
Update method            Update   .... BFGS
Choice of coordinates    CoordSys .... Z-matrix Internals
Initial Hessian          InHess   .... Almoef's Model

Convergence Tolerances:
Energy Change            TolE     ....  5.0000e-06 Eh
Max. Gradient            TolMAXG  ....  3.0000e-04 Eh/bohr
RMS Gradient             TolRMSG  ....  1.0000e-04 Eh/bohr
Max. Displacement        TolMAXD  ....  4.0000e-03 bohr
RMS Displacement         TolRMSD  ....  2.0000e-03 bohr
Strict Convergence                ....  False
------------------------------------------------------------------------------
                        ORCA OPTIMIZATION COORDINATE SETUP
------------------------------------------------------------------------------

The optimization will be done in new redundant internal coordinates
Making redundant internal coordinates   ...  (new redundants) done
Evaluating the initial hessian          ...  (Almloef) done
Evaluating the coordinates              ...  done
Calculating the B-matrix                .... done
Calculating the G-matrix                .... done
Diagonalizing the G-matrix              .... done
Small eigenvalue found = 1.281e-03
Small eigenvalue found = 1.756e-03
Small eigenvalue found = 3.415e-03
Small eigenvalue found = 9.989e-03
Small eigenvalue found = 1.114e-02
Small eigenvalue found = 2.365e-02
The first mode is                       ....  404
The number of degrees of freedom        ....  144

    -----------------------------------------------------------------
                    Redundant Internal Coordinates


    -----------------------------------------------------------------
         Definition                    Initial Value    Approx d2E/dq
    -----------------------------------------------------------------
      1. B(H   1,C   0)                  1.0867         0.364473   
      2. B(C   2,C   0)                  1.3384         0.755136   
      3. B(H   3,C   2)                  1.0858         0.365694   
      4. B(C   4,C   2)                  1.4781         0.452045   
      5. B(O   5,C   4)                  1.2170         1.056352   
      6. B(C   6,C   0)                  1.4702         0.465340   
      7. B(C   7,C   6)                  1.3961         0.610880   
      8. B(C   8,C   6)                  1.3981         0.606486   
      9. B(C   9,C   7)                  1.3882         0.628948   
     10. B(H  10,C   7)                  1.0847         0.367206   
     11. B(C  11,C   8)                  1.3835         0.639806   
     12. B(H  12,H   3)                  3.5961         0.000007   
     13. B(H  12,C   7)                  4.3345         0.000002   
     14. B(H  12,C  11)                  4.3529         0.000002   
     15. B(H  12,C   0)                  4.1616         0.000005   
     16. B(H  12,C   8)                  3.8885         0.000012   
     17. B(H  12,C   2)                  4.0387         0.000007   
     18. B(H  12,C   6)                  3.8844         0.000013   
     19. B(C  13,C  11)                  1.4033         0.595087   
     20. B(C  13,C   9)                  1.3905         0.623739   
     21. B(H  14,C   9)                  1.0857         0.365851   
     22. B(O  15,C  13)                  1.3509         0.645973   
     23. B(H  16,O  15)                  0.9650         0.510469   
     24. B(O  17,C  11)                  1.3618         0.620655   
     25. B(C  18,O  17)                  1.4401         0.465481   
     26. B(H  19,H  12)                  3.8452         0.000003   
     27. B(H  19,C  18)                  1.0916         0.357960   
     28. B(H  20,C  18)                  1.0875         0.363391   
     29. B(H  21,C  18)                  1.0907         0.359226   
     30. B(H  23,C  22)                  1.0874         0.363507   
     31. B(C  24,C  22)                  1.3420         0.745174   
     32. B(H  25,C  24)                  1.0863         0.365013   
     33. B(C  26,C  24)                  1.4700         0.465680   
     34. B(O  27,C  26)                  1.2195         1.047043   
     35. B(C  28,C  22)                  1.4645         0.475261   
     36. B(C  29,C  28)                  1.3961         0.610903   
     37. B(C  30,C  28)                  1.4034         0.594820   
     38. B(C  31,C  29)                  1.3896         0.625638   
     39. B(H  32,C  29)                  1.0855         0.366082   
     40. B(C  33,C  30)                  1.3798         0.648567   
     41. B(H  34,C  30)                  1.0849         0.366876   
     42. B(C  35,C  33)                  1.4064         0.588171   
     43. B(C  35,C  31)                  1.3905         0.623673   
     44. B(H  36,C  31)                  1.0863         0.365041   
     45. B(O  37,C  35)                  1.3557         0.634778   
     46. B(H  38,O  37)                  0.9647         0.511013   
     47. B(O  39,C  33)                  1.3729         0.595962   
     48. B(C  40,O  39)                  1.4322         0.479159   
     49. B(H  41,C  40)                  1.0941         0.354773   
     50. B(H  42,C  40)                  1.0884         0.362193   
     51. B(H  43,C  40)                  1.0918         0.357685   
     52. B(C  44,C  26)                  1.5292         0.374618   
     53. B(C  44,C   4)                  1.5254         0.380002   
     54. B(H  45,C  44)                  1.0903         0.359682   
     55. B(H  46,C  44)                  1.0907         0.359214   
     56. B(O  47,H  12)                  3.7830         0.000016   
     57. B(N  49,H  12)                  4.2436         0.000003   
     58. B(N  49,O  48)                  1.2126         0.961601   
     59. B(N  49,O  47)                  1.2171         0.946084   
     60. B(N  49,C   8)                  1.4747         0.409948   
     61. A(C   6,C   0,H  12)           68.9650         0.108233   
     62. A(H   1,C   0,C   2)          119.1351         0.365709   
     63. A(H   1,C   0,H  12)          131.5506         0.104740   
     64. A(C   2,C   0,C   6)          127.0881         0.427125   
     65. A(C   2,C   0,H  12)           75.4473         0.110461   
     66. A(H   1,C   0,C   6)          113.7596         0.336990   
     67. A(C   4,C   2,H  12)          126.1078         0.110163   
     68. A(C   0,C   2,H   3)          123.0797         0.365918   
     69. A(C   0,C   2,C   4)          123.6465         0.424914   
     70. A(H   3,C   2,H  12)           58.6857         0.106447   
     71. A(C   0,C   2,H  12)           85.8436         0.112770   
     72. A(H   3,C   2,C   4)          113.2714         0.335555   
     73. A(C   2,H   3,H  12)          106.3656         0.102865   
     74. A(C   2,C   4,C  44)          119.6263         0.376558   
     75. A(C   2,C   4,O   5)          119.8224         0.448448   
     76. A(O   5,C   4,C  44)          120.5513         0.434598   
     77. A(C   0,C   6,H  12)           90.3475         0.113220   
     78. A(C   0,C   6,C   7)          118.5035         0.411284   
     79. A(C   8,C   6,H  12)           79.8037         0.114717   
     80. A(C   0,C   6,C   8)          125.5907         0.410758   
     81. A(C   7,C   6,C   8)          115.8893         0.431199   
     82. A(C   7,C   6,H  12)           99.2872         0.114759   
     83. A(C   9,C   7,H  12)           98.3698         0.106834   
     84. A(H  10,C   7,H  12)          108.7646         0.102656   
     85. A(C   6,C   7,C   9)          121.9325         0.434028   
     86. A(C   6,C   7,H  12)           62.1783         0.106717   
     87. A(C   6,C   7,H  10)          118.7632         0.353191   
     88. A(C   9,C   7,H  10)          119.3020         0.354940   
     89. A(C  11,C   8,H  12)          100.2412         0.114941   
     90. A(H  12,C   8,N  49)           93.5657         0.112262   
     91. A(C  11,C   8,N  49)          115.0804         0.402863   
     92. A(C   6,C   8,N  49)          120.9084         0.399087   
     93. A(C   6,C   8,C  11)          123.9419         0.434802   
     94. A(C   6,C   8,H  12)           79.4721         0.114629   
     95. A(C  13,C   9,H  14)          119.2972         0.354218   
     96. A(C   7,C   9,H  14)          120.1809         0.354717   
     97. A(C   7,C   9,C  13)          120.5164         0.435658   
     98. A(C  13,C  11,O  17)          121.7331         0.428146   
     99. A(H  12,C  11,C  13)           98.0462         0.106345   
    100. A(H  12,C  11,O  17)          111.7407         0.106367   
    101. A(C   8,C  11,C  13)          118.4088         0.433320   
    102. A(C   8,C  11,O  17)          119.7534         0.433753   
    103. A(C   8,C  11,H  12)           61.5319         0.106632   
    104. A(C   8,H  12,O  47)           34.9178         0.091023   
    105. A(C   0,H  12,H  19)           85.3245         0.089874   
    106. A(C   6,H  12,H  19)           69.1436         0.090100   
    107. A(H   3,H  12,C  11)           64.2352         0.089917   
    108. A(C   0,H  12,C  11)           53.3663         0.090041   
    109. A(H   3,H  12,O  47)           41.1064         0.090419   
    110. A(C   7,H  12,H  19)           73.8008         0.089757   
    111. A(C   7,H  12,C   8)           32.9098         0.090327   
    112. A(C   6,H  12,C   8)           20.7241         0.090929   
    113. A(H   3,H  12,C   8)           46.5880         0.090348   
    114. A(C   2,H  12,C   8)           46.5125         0.090697   
    115. A(C   0,H  12,C   8)           36.7551         0.090532   
    116. A(H   3,H  12,C   7)           61.8452         0.089931   
    117. A(C   6,H  12,C  11)           34.0849         0.090311   
    118. A(C   7,H  12,C  11)           37.3576         0.089902   
    119. A(C   6,H  12,C   7)           18.5344         0.090331   
    120. A(C   2,H  12,H  19)           89.6136         0.089968   
    121. A(C   8,H  12,H  19)           49.1123         0.090096   
    122. A(C  11,H  12,O  47)           41.8390         0.090375   
    123. A(H   3,H  12,H  19)           81.4947         0.089769   
    124. A(C   0,H  12,C   7)           33.6347         0.090057   
    125. A(C  11,H  12,H  19)           36.6826         0.089745   
    126. A(C   2,H  12,C   7)           52.1579         0.090171   
    127. A(H   3,H  12,C   6)           44.2489         0.090353   
    128. A(C   2,H  12,C   6)           36.9524         0.090703   
    129. A(C   0,H  12,C   6)           20.6875         0.090537   
    130. A(H  19,H  12,O  47)           41.4479         0.090154   
    131. A(C   8,H  12,C  11)           18.2269         0.090307   
    132. A(C   2,H  12,H   3)           14.9487         0.090190   
    133. A(C   0,H  12,H   3)           30.8575         0.090075   
    134. A(C   0,H  12,C   2)           18.7091         0.090352   
    135. A(C   2,H  12,C  11)           64.6981         0.090153   
    136. A(O  47,H  12,N  49)           16.1626         0.090452   
    137. A(H  19,H  12,N  49)           47.3403         0.089787   
    138. A(C   2,H  12,N  49)           42.3108         0.090218   
    139. A(C  11,H  12,N  49)           32.5605         0.089938   
    140. A(C   7,H  12,N  49)           51.7042         0.089952   
    141. A(C   8,H  12,N  49)           20.2940         0.090380   
    142. A(C   0,H  12,N  49)           42.0098         0.090099   
    143. A(C   6,H  12,N  49)           35.4710         0.090384   
    144. A(H   3,H  12,N  49)           35.4053         0.089968   
    145. A(C   7,H  12,O  47)           67.4245         0.090396   
    146. A(C   6,H  12,O  47)           51.6295         0.091030   
    147. A(C   2,H  12,O  47)           52.2938         0.090786   
    148. A(C   0,H  12,O  47)           56.4507         0.090612   
    149. A(C  11,C  13,O  15)          116.5690         0.431229   
    150. A(C   9,C  13,O  15)          124.1136         0.434891   
    151. A(C   9,C  13,C  11)          119.3030         0.431343   
    152. A(C  13,O  15,H  16)          110.3138         0.371559   
    153. A(C  11,O  17,C  18)          113.7090         0.407165   
    154. A(H  20,C  18,H  21)          109.9581         0.291144   
    155. A(H  19,C  18,H  21)          110.4774         0.290456   
    156. A(O  17,C  18,H  21)          110.5748         0.334160   
    157. A(H  19,C  18,H  20)          109.9128         0.290983   
    158. A(O  17,C  18,H  20)          105.9031         0.334801   
    159. A(O  17,C  18,H  19)          109.9172         0.333965   
    160. A(H  12,H  19,C  18)          139.8150         0.100217   
    161. A(C  24,C  22,C  28)          126.4836         0.427724   
    162. A(H  23,C  22,C  28)          114.5236         0.338027   
    163. A(H  23,C  22,C  24)          118.9849         0.364713   
    164. A(H  25,C  24,C  26)          113.7679         0.337114   
    165. A(C  22,C  24,C  26)          124.1019         0.426166   
    166. A(C  22,C  24,H  25)          122.1228         0.364971   
    167. A(C  24,C  26,O  27)          120.4450         0.450150   
    168. A(O  27,C  26,C  44)          119.9743         0.432794   
    169. A(C  24,C  26,C  44)          119.5804         0.377565   
    170. A(C  29,C  28,C  30)          118.2665         0.429701   
    171. A(C  22,C  28,C  30)          122.8817         0.410880   
    172. A(C  22,C  28,C  29)          118.8517         0.412829   
    173. A(C  31,C  29,H  32)          119.3680         0.354438   
    174. A(C  28,C  29,H  32)          119.5550         0.353010   
    175. A(C  28,C  29,C  31)          121.0757         0.433619   
    176. A(C  33,C  30,H  34)          117.3046         0.356741   
    177. A(C  28,C  30,H  34)          121.5503         0.351549   
    178. A(C  28,C  30,C  33)          121.1421         0.434346   
    179. A(C  35,C  31,H  36)          119.4138         0.354078   
    180. A(C  29,C  31,H  36)          120.4433         0.354267   
    181. A(C  29,C  31,C  35)          120.1411         0.435236   
    182. A(C  35,C  33,O  39)          120.1772         0.424155   
    183. A(C  30,C  33,O  39)          119.8145         0.431653   
    184. A(C  30,C  33,C  35)          119.9809         0.433469   
    185. A(C  33,C  35,O  37)          117.0939         0.428976   
    186. A(C  31,C  35,O  37)          123.5143         0.433516   
    187. A(C  31,C  35,C  33)          119.3903         0.430430   
    188. A(C  35,O  37,H  38)          110.0433         0.370511   
    189. A(C  33,O  39,C  40)          113.3839         0.406328   
    190. A(H  41,C  40,H  43)          109.7798         0.289854   
    191. A(O  39,C  40,H  43)          111.0255         0.335533   
    192. A(H  41,C  40,H  42)          109.5809         0.290424   
    193. A(O  39,C  40,H  42)          106.4108         0.336232   
    194. A(O  39,C  40,H  41)          110.3831         0.335077   
    195. A(H  42,C  40,H  43)          109.5987         0.290797   
    196. A(H  45,C  44,H  46)          108.5456         0.290674   
    197. A(C  26,C  44,H  46)          107.0257         0.324336   
    198. A(C   4,C  44,H  46)          110.4142         0.325097   
    199. A(C  26,C  44,H  45)          110.7282         0.324406   
    200. A(C   4,C  44,H  45)          107.1452         0.325167   
    201. A(C   4,C  44,C  26)          112.9304         0.364587   
    202. A(H  12,O  47,N  49)          103.9285         0.118335   
    203. A(O  47,N  49,O  48)          125.2573         0.494590   
    204. A(C   8,N  49,O  48)          117.3501         0.427486   
    205. A(C   8,N  49,O  47)          117.3925         0.426242   
    206. A(H  12,N  49,O  48)          150.7441         0.109073   
    207. A(H  12,N  49,O  47)           59.9090         0.109000   
    208. A(C   8,N  49,H  12)           66.1403         0.105691   
    209. D(H   3,C   2,C   0,H  12)    -47.9913         0.047709   
    210. D(C   4,C   2,C   0,H   1)      1.6274         0.047709   
    211. D(H   3,C   2,C   0,C   6)      0.6230         0.047709   
    212. D(C   4,C   2,C   0,H  12)    131.4066         0.047709   
    213. D(C   4,C   2,C   0,C   6)   -179.9791         0.047709   
    214. D(H  12,C   2,C   0,C   6)     48.6143         0.047709   
    215. D(H   3,C   2,C   0,H   1)   -177.7705         0.047709   
    216. D(H  12,C   2,C   0,H   1)   -129.7792         0.047709   
    217. D(H  12,H   3,C   2,C   0)     60.1638         0.126119   
    218. D(H  12,H   3,C   2,C   4)   -119.2906         0.126119   
    219. D(O   5,C   4,C   2,H   3)     -2.3599         0.015068   
    220. D(O   5,C   4,C   2,C   0)    178.1893         0.015068   
    221. D(C  44,C   4,C   2,H  12)    110.3570         0.015068   
    222. D(C  44,C   4,C   2,H   3)    177.6157         0.015068   
    223. D(C  44,C   4,C   2,C   0)     -1.8352         0.015068   
    224. D(O   5,C   4,C   2,H  12)    -69.6185         0.015068   
    225. D(C   7,C   6,C   0,H   1)     26.6098         0.017108   
    226. D(H  12,C   6,C   0,H   1)    127.3842         0.017108   
    227. D(C   8,C   6,C   0,H   1)   -154.9345         0.017108   
    228. D(H  12,C   6,C   0,C   2)    -51.0827         0.017108   
    229. D(C   7,C   6,C   0,H  12)   -100.7743         0.017108   
    230. D(C   8,C   6,C   0,H  12)     77.6814         0.017108   
    231. D(C   7,C   6,C   0,C   2)   -151.8570         0.017108   
    232. D(C   8,C   6,C   0,C   2)     26.5987         0.017108   
    233. D(H  12,C   7,C   6,C   8)    -83.1071         0.030103   
    234. D(H  10,C   7,C   6,H  12)    -97.1948         0.030103   
    235. D(C   9,C   7,C   6,H  12)     82.2438         0.030103   
    236. D(H  10,C   7,C   6,C   0)     -1.6977         0.030103   
    237. D(H  12,C   7,C   6,C   0)     95.4971         0.030103   
    238. D(H  10,C   7,C   6,C   8)    179.6982         0.030103   
    239. D(C   9,C   7,C   6,C   8)     -0.8633         0.030103   
    240. D(C   9,C   7,C   6,C   0)    177.7408         0.030103   
    241. D(C  11,C   8,C   6,C   7)      0.1191         0.029643   
    242. D(H  12,C   8,C   6,C   7)     95.4497         0.029643   
    243. D(H  12,C   8,C   6,C   0)    -83.0418         0.029643   
    244. D(N  49,C   8,C   6,H  12)     87.8490         0.029643   
    245. D(N  49,C   8,C   6,C   0)      4.8072         0.029643   
    246. D(N  49,C   8,C   6,C   7)   -176.7013         0.029643   
    247. D(C  11,C   8,C   6,C   0)   -178.3724         0.029643   
    248. D(C  11,C   8,C   6,H  12)    -95.3306         0.029643   
    249. D(H  14,C   9,C   7,H  10)     -0.5251         0.029802   
    250. D(C  13,C   9,C   7,H  12)     63.2462         0.029802   
    251. D(H  14,C   9,C   7,C   6)   -179.9607         0.029802   
    252. D(C  13,C   9,C   7,H  10)   -179.6619         0.029802   
    253. D(C  13,C   9,C   7,C   6)      0.9025         0.029802   
    254. D(H  14,C   9,C   7,H  12)   -117.6170         0.029802   
    255. D(H  12,C  11,C   8,N  49)    -98.8783         0.033240   
    256. D(O  17,C  11,C   8,H  12)    100.1010         0.033240   
    257. D(C  13,C  11,C   8,N  49)    177.5678         0.033240   
    258. D(C  13,C  11,C   8,C   6)      0.5796         0.033240   
    259. D(O  17,C  11,C   8,C   6)   -175.7654         0.033240   
    260. D(O  17,C  11,C   8,N  49)      1.2227         0.033240   
    261. D(C  13,C  11,C   8,H  12)    -83.5539         0.033240   
    262. D(H  12,C  11,C   8,C   6)     84.1336         0.033240   
    263. D(C  11,H  12,C   6,C   0)    154.1102         0.001500   
    264. D(C   6,H  12,C   0,H   1)   -103.6487         0.001500   
    265. D(C   8,H  12,C   6,C   0)    126.1747         0.001500   
    266. D(H   3,H  12,C   6,C   0)     40.1861         0.001500   
    267. D(C   7,H  12,C   6,C   0)   -118.9831         0.001500   
    268. D(C   7,H  12,C   6,C   8)    114.8422         0.001500   
    269. D(C  11,H  12,C   6,C   8)     27.9355         0.001500   
    270. D(C  11,H  12,C   6,C   7)    -86.9067         0.001500   
    271. D(H   3,H  12,C   6,C   7)    159.1692         0.001500   
    272. D(H   3,H  12,C   0,C   2)     21.5009         0.001500   
    273. D(C   0,H  12,C   6,C   7)    118.9831         0.001500   
    274. D(C   2,H  12,C   6,C   0)     20.0079         0.001500   
    275. D(N  49,H  12,H   3,C   2)   -108.7287         0.001500   
    276. D(C   2,H  12,C   0,C   6)   -140.1162         0.001500   
    277. D(C  11,H  12,H   3,C   2)    -88.1694         0.001500   
    278. D(C   2,H  12,C   0,H   1)    116.2351         0.001500   
    279. D(C   8,H  12,H   3,C   2)    -82.5755         0.001500   
    280. D(N  49,H  12,C  11,O  17)    -77.7529         0.001500   
    281. D(O  47,H  12,C  11,O  17)    -55.6255         0.001500   
    282. D(O  47,H  12,C  11,C  13)    175.4540         0.001500   
    283. D(N  49,H  12,C   2,C   4)    151.9884         0.001500   
    284. D(N  49,H  12,C   2,C   0)    -78.6209         0.001500   
    285. D(C   7,H  12,C  11,C  13)     54.4824         0.001500   
    286. D(O  47,H  12,C   2,H   3)     37.1915         0.001500   
    287. D(H  19,H  12,C   2,C   4)    154.1546         0.001500   
    288. D(H   3,H  12,C  11,C  13)    131.1144         0.001500   
    289. D(H  19,H  12,C   2,H   3)     56.7623         0.001500   
    290. D(H   3,H  12,C  11,C   8)     13.0847         0.001500   
    291. D(C   2,H  12,C  11,O  17)   -116.5348         0.001500   
    292. D(H  19,H  12,C   2,C   0)    -76.4547         0.001500   
    293. D(C  11,H  12,C   2,H   3)     84.6476         0.001500   
    294. D(O  47,H  12,C   8,N  49)     15.4003         0.001500   
    295. D(C   8,H  12,C   2,C   4)   -179.4617         0.001500   
    296. D(C   8,H  12,C   2,H   3)     83.1460         0.001500   
    297. D(H  19,H  12,C   8,C  11)    -40.3447         0.001500   
    298. D(C   8,H  12,C   2,C   0)    -50.0710         0.001500   
    299. D(N  49,H  12,C   8,C   6)    120.7902         0.001500   
    300. D(C  11,H  12,C   2,C   0)    -48.5694         0.001500   
    301. D(C   0,H  12,C  11,C  13)     97.1054         0.001500   
    302. D(C  11,H  12,C   2,C   4)   -177.9601         0.001500   
    303. D(C   7,H  12,C   2,C   4)   -136.2127         0.001500   
    304. D(H   3,H  12,C  11,O  17)    -99.9651         0.001500   
    305. D(C   6,H  12,C  11,C   8)    -32.0067         0.001500   
    306. D(O  47,H  12,C   2,C   0)    -96.0256         0.001500   
    307. D(C   7,H  12,C  11,O  17)   -176.5970         0.001500   
    308. D(O  47,H  12,C   2,C   4)    134.5837         0.001500   
    309. D(H  19,H  12,C  11,C   8)    124.9879         0.001500   
    310. D(N  49,H  12,C   2,H   3)     54.5962         0.001500   
    311. D(C  11,H  12,C   8,C   6)   -122.9242         0.001500   
    312. D(C   0,H  12,H   3,C   2)    -27.1139         0.001500   
    313. D(C   6,H  12,H   3,C   2)    -53.5014         0.001500   
    314. D(C   7,H  12,H   3,C   2)    -46.1353         0.001500   
    315. D(C   7,H  12,C   8,N  49)   -152.8580         0.001500   
    316. D(C   7,H  12,C   2,H   3)    126.3950         0.001500   
    317. D(H  19,H  12,H   3,C   2)   -122.2545         0.001500   
    318. D(O  47,H  12,H   3,C   2)   -133.3307         0.001500   
    319. D(C   7,H  12,C   2,C   0)     -6.8220         0.001500   
    320. D(C   6,H  12,C   8,C  11)    122.9242         0.001500   
    321. D(C   0,H  12,C   6,C   8)   -126.1747         0.001500   
    322. D(H   3,H  12,C   0,H   1)    137.7360         0.001500   
    323. D(C   2,H  12,C   6,C   7)    138.9910         0.001500   
    324. D(C   2,H  12,C   6,C   8)   -106.1668         0.001500   
    325. D(H   3,H  12,C   0,C   6)   -118.6153         0.001500   
    326. D(H   3,H  12,C   6,C   8)    -85.9886         0.001500   
    327. D(C   6,H  12,C   2,C   4)   -151.5278         0.001500   
    328. D(C   6,H  12,C   2,H   3)    111.0800         0.001500   
    329. D(O  47,H  12,C   7,C   6)     28.9839         0.001500   
    330. D(C   6,H  12,C   0,C   2)    140.1162         0.001500   
    331. D(C   8,H  12,C   6,C   7)   -114.8422         0.001500   
    332. D(C   7,H  12,C   0,H   1)    -73.5153         0.001500   
    333. D(C   2,H  12,C   8,N  49)    -68.0584         0.001500   
    334. D(C   7,H  12,C   0,C   2)    170.2497         0.001500   
    335. D(N  49,H  12,C   0,C   2)     80.4174         0.001500   
    336. D(N  49,H  12,C   0,C   6)    -59.6989         0.001500   
    337. D(C   0,H  12,C   8,C  11)    151.3847         0.001500   
    338. D(N  49,H  12,C   7,H  10)    137.8872         0.001500   
    339. D(C   0,H  12,C   2,C   4)   -129.3907         0.001500   
    340. D(N  49,H  12,C   7,C   9)    -97.1926         0.001500   
    341. D(C   0,H  12,C   2,H   3)    133.2170         0.001500   
    342. D(N  49,H  12,C   7,C   6)     24.6000         0.001500   
    343. D(C   2,H  12,C   8,C   6)     52.7318         0.001500   
    344. D(C   6,H  12,C   2,C   0)    -22.1371         0.001500   
    345. D(C   0,H  12,C   8,N  49)    -92.3297         0.001500   
    346. D(H  19,H  12,C   7,C   6)     72.5534         0.001500   
    347. D(H   3,H  12,C   2,C   0)   -133.2170         0.001500   
    348. D(C   0,H  12,C   8,C   6)     28.4605         0.001500   
    349. D(C  11,H  12,C   7,C   6)     67.2560         0.001500   
    350. D(C   8,H  12,C   7,H  10)    149.5182         0.001500   
    351. D(C   8,H  12,C   7,C   9)    -85.5616         0.001500   
    352. D(C   8,H  12,C   7,C   6)     36.2310         0.001500   
    353. D(C  11,H  12,C   7,C   9)    -54.5366         0.001500   
    354. D(C   6,H  12,C   7,H  10)    113.2871         0.001500   
    355. D(H  19,H  12,C   0,C   6)    -37.3835         0.001500   
    356. D(C   6,H  12,C   7,C   9)   -121.7926         0.001500   
    357. D(O  47,H  12,C   0,C   2)     70.7444         0.001500   
    358. D(O  47,H  12,C   0,C   6)    -69.3718         0.001500   
    359. D(H   3,H  12,C   8,C  11)   -163.7000         0.001500   
    360. D(C  11,H  12,C   7,H  10)   -179.4569         0.001500   
    361. D(N  49,H  12,C   0,H   1)   -163.3476         0.001500   
    362. D(H  19,H  12,C   7,C   9)    -49.2392         0.001500   
    363. D(H  19,H  12,C   7,H  10)   -174.1594         0.001500   
    364. D(H   3,H  12,C   8,C   6)     73.3758         0.001500   
    365. D(O  47,H  12,C   7,C   9)    -92.8087         0.001500   
    366. D(H   3,H  12,C   2,C   4)     97.3923         0.001500   
    367. D(H   3,H  12,C   7,H  10)     96.9412         0.001500   
    368. D(H  19,H  12,C   0,C   2)    102.7327         0.001500   
    369. D(H   3,H  12,C   7,C   9)   -138.1386         0.001500   
    370. D(H   3,H  12,C   7,C   6)    -16.3459         0.001500   
    371. D(C   2,H  12,C   7,H  10)     83.3198         0.001500   
    372. D(O  47,H  12,C   0,H   1)   -173.0205         0.001500   
    373. D(C   2,H  12,C   8,C  11)    175.6560         0.001500   
    374. D(O  47,H  12,C   7,H  10)    142.2710         0.001500   
    375. D(C  11,H  12,C   0,C   6)    -17.7545         0.001500   
    376. D(C   2,H  12,C   7,C   6)    -29.9673         0.001500   
    377. D(H  19,H  12,C   0,H   1)   -141.0322         0.001500   
    378. D(H   3,H  12,C   8,N  49)    -47.4144         0.001500   
    379. D(C  11,H  12,C   0,C   2)    122.3617         0.001500   
    380. D(C   6,H  12,C   8,N  49)   -120.7902         0.001500   
    381. D(C   7,H  12,C   8,C   6)    -32.0679         0.001500   
    382. D(C   7,H  12,C   8,C  11)     90.8564         0.001500   
    383. D(C   0,H  12,C   7,C   9)   -155.7044         0.001500   
    384. D(C   0,H  12,C   7,H  10)     79.3753         0.001500   
    385. D(C  11,H  12,C   8,N  49)    116.2856         0.001500   
    386. D(H  19,H  12,C   8,C   6)   -163.2690         0.001500   
    387. D(C   0,H  12,C   7,C   6)    -33.9118         0.001500   
    388. D(H  19,H  12,C   8,N  49)     75.9409         0.001500   
    389. D(O  47,H  12,C   8,C   6)    136.1905         0.001500   
    390. D(O  47,H  12,C   8,C  11)   -100.8853         0.001500   
    391. D(C  11,H  12,C   0,H   1)   -121.4032         0.001500   
    392. D(N  49,H  12,C   6,C   8)    -30.8939         0.001500   
    393. D(N  49,H  12,C   8,C  11)   -116.2856         0.001500   
    394. D(C   0,H  12,C  11,C   8)    -20.9242         0.001500   
    395. D(C   2,H  12,C   7,C   9)   -151.7600         0.001500   
    396. D(C   0,H  12,C  11,O  17)   -133.9740         0.001500   
    397. D(C   2,H  12,C  11,C   8)     -3.4849         0.001500   
    398. D(C   2,H  12,C  11,C  13)    114.5447         0.001500   
    399. D(C   8,H  12,C   0,C   6)    -28.5131         0.001500   
    400. D(N  49,H  12,C   6,C   0)     95.2808         0.001500   
    401. D(O  47,H  12,C   6,C   8)    -30.3589         0.001500   
    402. D(C   8,H  12,C   0,C   2)    111.6031         0.001500   
    403. D(O  47,H  12,C   6,C   7)   -145.2012         0.001500   
    404. D(C   6,H  12,C  11,C  13)     86.0229         0.001500   
    405. D(C   6,H  12,C  11,O  17)   -145.0566         0.001500   
    406. D(C   7,H  12,C  11,C   8)    -63.5472         0.001500   
    407. D(C   8,H  12,C   0,H   1)   -132.1618         0.001500   
    408. D(H  19,H  12,C   6,C   8)     13.4676         0.001500   
    409. D(C   8,H  12,C  11,C  13)    118.0296         0.001500   
    410. D(C   8,H  12,C  11,O  17)   -113.0499         0.001500   
    411. D(C   7,H  12,C   0,C   6)     30.1334         0.001500   
    412. D(H  19,H  12,C  11,C  13)   -116.9824         0.001500   
    413. D(H  19,H  12,C  11,O  17)     11.9381         0.001500   
    414. D(O  47,H  12,C  11,C   8)     57.4244         0.001500   
    415. D(O  47,H  12,C   6,C   0)     95.8157         0.001500   
    416. D(N  49,H  12,C   6,C   7)   -145.7361         0.001500   
    417. D(N  49,H  12,C  11,C   8)     35.2970         0.001500   
    418. D(N  49,H  12,C  11,C  13)    153.3266         0.001500   
    419. D(H  19,H  12,C   6,C   0)    139.6423         0.001500   
    420. D(H  19,H  12,C   6,C   7)   -101.3746         0.001500   
    421. D(O  15,C  13,C  11,H  12)    118.8624         0.026494   
    422. D(O  15,C  13,C  11,O  17)     -2.9584         0.026494   
    423. D(O  15,C  13,C  11,C   8)   -179.2275         0.026494   
    424. D(C   9,C  13,C  11,H  12)    -62.4622         0.026494   
    425. D(C   9,C  13,C  11,O  17)    175.7170         0.026494   
    426. D(C   9,C  13,C  11,C   8)     -0.5520         0.026494   
    427. D(O  15,C  13,C   9,H  14)     -0.7340         0.026941   
    428. D(O  15,C  13,C   9,C   7)    178.4104         0.026941   
    429. D(C  11,C  13,C   9,H  14)   -179.3030         0.026941   
    430. D(C  11,C  13,C   9,C   7)     -0.1587         0.026941   
    431. D(H  16,O  15,C  13,C  11)    179.5048         0.030808   
    432. D(H  16,O  15,C  13,C   9)      0.9000         0.030808   
    433. D(C  18,O  17,C  11,H  12)    -38.7017         0.031198   
    434. D(C  18,O  17,C  11,C  13)     76.3719         0.031198   
    435. D(C  18,O  17,C  11,C   8)   -107.4081         0.031198   
    436. D(H  21,C  18,O  17,C  11)    -62.4620         0.017074   
    437. D(H  20,C  18,O  17,C  11)    178.4568         0.017074   
    438. D(H  19,C  18,O  17,C  11)     59.7772         0.017074   
    439. D(H  12,H  19,C  18,H  21)     60.9771         0.119721   
    440. D(H  12,H  19,C  18,H  20)   -177.5025         0.119721   
    441. D(H  12,H  19,C  18,O  17)    -61.3200         0.119721   
    442. D(C  18,H  19,H  12,N  49)     77.2918         0.001500   
    443. D(C  18,H  19,H  12,O  47)     98.9099         0.001500   
    444. D(C  18,H  19,H  12,C  11)     30.2517         0.001500   
    445. D(C  18,H  19,H  12,C   8)     50.0653         0.001500   
    446. D(C  18,H  19,H  12,C   7)     24.8706         0.001500   
    447. D(C  18,H  19,H  12,C   6)     43.8068         0.001500   
    448. D(C  18,H  19,H  12,H   3)     87.9096         0.001500   
    449. D(C  18,H  19,H  12,C   2)     75.3090         0.001500   
    450. D(C  18,H  19,H  12,C   0)     57.0760         0.001500   
    451. D(C  26,C  24,C  22,C  28)   -178.9491         0.039551   
    452. D(C  26,C  24,C  22,H  23)     -0.0308         0.039551   
    453. D(H  25,C  24,C  22,C  28)      0.0045         0.039551   
    454. D(H  25,C  24,C  22,H  23)    178.9229         0.039551   
    455. D(C  44,C  26,C  24,H  25)    179.2287         0.014769   
    456. D(C  44,C  26,C  24,C  22)     -1.7396         0.014769   
    457. D(O  27,C  26,C  24,H  25)     -0.9631         0.014769   
    458. D(O  27,C  26,C  24,C  22)    178.0686         0.014769   
    459. D(C  30,C  28,C  22,C  24)     -1.4389         0.015379   
    460. D(C  30,C  28,C  22,H  23)    179.6011         0.015379   
    461. D(C  29,C  28,C  22,C  24)    178.6859         0.015379   
    462. D(C  29,C  28,C  22,H  23)     -0.2741         0.015379   
    463. D(C  31,C  29,C  28,C  22)   -179.6404         0.025779   
    464. D(H  32,C  29,C  28,C  30)   -179.9411         0.025779   
    465. D(H  32,C  29,C  28,C  22)     -0.0601         0.025779   
    466. D(C  31,C  29,C  28,C  30)      0.4786         0.025779   
    467. D(H  34,C  30,C  28,C  29)   -179.9784         0.024369   
    468. D(H  34,C  30,C  28,C  22)      0.1457         0.024369   
    469. D(C  33,C  30,C  28,C  29)     -0.6234         0.024369   
    470. D(C  33,C  30,C  28,C  22)    179.5007         0.024369   
    471. D(H  36,C  31,C  29,H  32)     -0.0335         0.027116   
    472. D(H  36,C  31,C  29,C  28)    179.5476         0.027116   
    473. D(C  35,C  31,C  29,H  32)   -179.5530         0.027116   
    474. D(C  35,C  31,C  29,C  28)      0.0282         0.027116   
    475. D(O  39,C  33,C  30,H  34)      1.5415         0.029279   
    476. D(O  39,C  33,C  30,C  28)   -177.8400         0.029279   
    477. D(C  35,C  33,C  30,H  34)    179.6419         0.029279   
    478. D(C  35,C  33,C  30,C  28)      0.2604         0.029279   
    479. D(O  37,C  35,C  33,O  39)     -1.2265         0.023800   
    480. D(O  37,C  35,C  33,C  30)   -179.3199         0.023800   
    481. D(C  31,C  35,C  33,O  39)    178.3520         0.023800   
    482. D(C  31,C  35,C  33,C  30)      0.2586         0.023800   
    483. D(O  37,C  35,C  31,H  36)     -0.3758         0.026935   
    484. D(O  37,C  35,C  31,C  29)    179.1486         0.026935   
    485. D(C  33,C  35,C  31,H  36)   -179.9257         0.026935   
    486. D(C  33,C  35,C  31,C  29)     -0.4013         0.026935   
    487. D(H  38,O  37,C  35,C  33)   -179.9659         0.029667   
    488. D(H  38,O  37,C  35,C  31)      0.4746         0.029667   
    489. D(C  40,O  39,C  33,C  35)     75.6485         0.025917   
    490. D(C  40,O  39,C  33,C  30)   -106.2548         0.025917   
    491. D(H  43,C  40,O  39,C  33)    -61.9989         0.018110   
    492. D(H  42,C  40,O  39,C  33)    178.8035         0.018110   
    493. D(H  41,C  40,O  39,C  33)     59.9782         0.018110   
    494. D(H  46,C  44,C  26,O  27)     16.1818         0.010491   
    495. D(H  46,C  44,C  26,C  24)   -164.0091         0.010491   
    496. D(H  45,C  44,C  26,O  27)    134.3163         0.010491   
    497. D(H  45,C  44,C  26,C  24)    -45.8746         0.010491   
    498. D(C   4,C  44,C  26,O  27)   -105.5292         0.010491   
    499. D(C   4,C  44,C  26,C  24)     74.2799         0.010491   
    500. D(H  46,C  44,C   4,O   5)    133.3791         0.010775   
    501. D(H  46,C  44,C   4,C   2)    -46.5962         0.010775   
    502. D(H  45,C  44,C   4,O   5)     15.3465         0.010775   
    503. D(H  45,C  44,C   4,C   2)   -164.6289         0.010775   
    504. D(C  26,C  44,C   4,O   5)   -106.8407         0.010775   
    505. D(C  26,C  44,C   4,C   2)     73.1840         0.010775   
    506. D(N  49,O  47,H  12,H  19)   -103.2685         0.001500   
    507. D(N  49,O  47,H  12,C  11)    -46.7401         0.001500   
    508. D(N  49,O  47,H  12,C   8)    -19.3226         0.001500   
    509. D(N  49,O  47,H  12,C   7)    -12.4455         0.001500   
    510. D(N  49,O  47,H  12,C   6)     -1.1153         0.001500   
    511. D(N  49,O  47,H  12,H   3)     60.0508         0.001500   
    512. D(N  49,O  47,H  12,C   2)     46.3313         0.001500   
    513. D(N  49,O  47,H  12,C   0)     23.8269         0.001500   
    514. D(O  48,N  49,O  47,H  12)   -145.6098         0.095085   
    515. D(C   8,N  49,O  47,H  12)     34.2272         0.095085   
    516. D(O  48,N  49,H  12,O  47)    109.3099         0.001500   
    517. D(O  48,N  49,H  12,H  19)    170.4840         0.001500   
    518. D(O  48,N  49,H  12,C  11)   -135.1928         0.001500   
    519. D(O  48,N  49,H  12,C   7)    -85.3782         0.001500   
    520. D(O  48,N  49,H  12,C   6)    -72.1969         0.001500   
    521. D(O  48,N  49,H  12,H   3)      8.8171         0.001500   
    522. D(O  48,N  49,H  12,C   0)    -40.4874         0.001500   
    523. D(O  47,N  49,H  12,H  19)     61.1740         0.001500   
    524. D(O  47,N  49,H  12,C  11)    115.4973         0.001500   
    525. D(O  47,N  49,H  12,C   7)    165.3119         0.001500   
    526. D(O  47,N  49,H  12,C   6)    178.4931         0.001500   
    527. D(O  47,N  49,H  12,H   3)   -100.4929         0.001500   
    528. D(O  47,N  49,H  12,C   2)   -121.7721         0.001500   
    529. D(O  47,N  49,H  12,C   0)   -149.7974         0.001500   
    530. D(C   8,N  49,H  12,O  47)   -146.9017         0.001500   
    531. D(C   8,N  49,H  12,H  19)    -85.7277         0.001500   
    532. D(C   8,N  49,H  12,C  11)    -31.4045         0.001500   
    533. D(C   8,N  49,H  12,C   7)     18.4102         0.001500   
    534. D(O  47,N  49,H  12,C   8)    146.9017         0.001500   
    535. D(C   8,N  49,H  12,C   6)     31.5914         0.001500   
    536. D(C   8,N  49,H  12,H   3)    112.6054         0.001500   
    537. D(C   8,N  49,H  12,C   2)     91.3262         0.001500   
    538. D(O  48,N  49,H  12,C   2)    -12.4621         0.001500   
    539. D(C   8,N  49,H  12,C   0)     63.3009         0.001500   
    540. D(H  12,N  49,C   8,C  11)    103.0526         0.015352   
    541. D(H  12,N  49,C   8,C   6)    -79.8595         0.015352   
    542. D(O  48,N  49,H  12,C   8)   -103.7883         0.001500   
    543. D(O  48,N  49,C   8,H  12)    147.6994         0.015352   
    544. D(O  48,N  49,C   8,C  11)   -109.2480         0.015352   
    545. D(O  48,N  49,C   8,C   6)     67.8399         0.015352   
    546. D(O  47,N  49,C   8,H  12)    -32.1507         0.015352   
    547. D(O  47,N  49,C   8,C  11)     70.9019         0.015352   
    548. D(O  47,N  49,C   8,C   6)   -112.0102         0.015352   
    -----------------------------------------------------------------

Number of atoms                         .... 50
Number of degrees of freedom            .... 548

         *************************************************************
         *                GEOMETRY OPTIMIZATION CYCLE   1            *
         *************************************************************
---------------------------------
CARTESIAN COORDINATES (ANGSTROEM)
---------------------------------
  C      2.133285    1.033765    0.974425
  H      1.732022    2.043476    0.994934
  C      1.444742    0.046899    1.560413
  H      1.801912   -0.977338    1.608778
  C      0.133956    0.239827    2.215695
  O     -0.447452   -0.714015    2.698765
  C      3.436973    0.927970    0.303070
  C      4.267347    2.050074    0.279695
  C      3.949398   -0.223378   -0.302317
  C      5.531154    2.016447   -0.293675
  H      3.913917    2.970439    0.731965
  C      5.196489   -0.293547   -0.897311
  H      4.914922   -0.881054    3.406543
  C      6.006736    0.852109   -0.886566
  H      6.153538    2.906027   -0.295472
  O      7.209904    0.746964   -1.491821
  H      7.686247    1.584501   -1.438164
  O      5.576324   -1.433485   -1.538242
  C      6.571630   -2.193466   -0.827075
  H      6.187126   -2.485588    0.151934
  H      6.758394   -3.078521   -1.430818
  H      7.490374   -1.615682   -0.719282
  C     -2.979057    0.594377    1.025111
  H     -2.621572    0.201779    1.974105
  C     -2.267237    1.549461    0.406892
  H     -2.567831    1.965402   -0.550557
  C     -1.015328    2.113963    0.931287
  O     -0.403510    2.956211    0.296169
  C     -4.217690   -0.019160    0.541354
  C     -4.814374   -1.024417    1.304625
  C     -4.837564    0.360246   -0.659185
  C     -5.986016   -1.643195    0.885757
  H     -4.353182   -1.333551    2.237407
  C     -5.999434   -0.249447   -1.086127
  H     -4.419906    1.134924   -1.293614
  C     -6.585347   -1.266281   -0.310989
  H     -6.437564   -2.429359    1.484152
  O     -7.717972   -1.834755   -0.792528
  H     -8.031236   -2.514612   -0.183964
  O     -6.558638    0.112116   -2.286674
  C     -7.741987    0.906647   -2.146227
  H     -7.518137    1.831508   -1.606335
  H     -8.074225    1.144464   -3.155051
  H     -8.525154    0.353960   -1.623464
  C     -0.478386    1.635360    2.280809
  H     -1.275848    1.602105    3.023600
  H      0.266838    2.363083    2.604264
  O      3.490109   -2.411332    0.253944
  O      2.171650   -1.419875   -1.136825
  N      3.137937   -1.450484   -0.404825

----------------------------
CARTESIAN COORDINATES (A.U.)
----------------------------
  NO LB      ZA    FRAG     MASS         X           Y           Z
   0 C     6.0000    0    12.011    4.031324    1.953533    1.841396
   1 H     1.0000    0     1.008    3.273047    3.861610    1.880154
   2 C     6.0000    0    12.011    2.730167    0.088626    2.948753
   3 H     1.0000    0     1.008    3.405120   -1.846901    3.040151
   4 C     6.0000    0    12.011    0.253140    0.453208    4.187057
   5 O     8.0000    0    15.999   -0.845562   -1.349294    5.099926
   6 C     6.0000    0    12.011    6.494938    1.753609    0.572719
   7 C     6.0000    0    12.011    8.064117    3.874078    0.528548
   8 C     6.0000    0    12.011    7.463280   -0.422123   -0.571296
   9 C     6.0000    0    12.011   10.452366    3.810534   -0.554965
  10 H     1.0000    0     1.008    7.396232    5.613315    1.383213
  11 C     6.0000    0    12.011    9.819941   -0.554723   -1.695671
  12 H     1.0000    0     1.008    9.287857   -1.664951    6.437434
  13 C     6.0000    0    12.011   11.351086    1.610253   -1.675368
  14 H     1.0000    0     1.008   11.628501    5.491595   -0.558362
  15 O     8.0000    0    15.999   13.624744    1.411557   -2.819133
  16 H     1.0000    0     1.008   14.524901    2.994273   -2.717736
  17 O     8.0000    0    15.999   10.537725   -2.708894   -2.906856
  18 C     6.0000    0    12.011   12.418582   -4.145049   -1.562946
  19 H     1.0000    0     1.008   11.691973   -4.697080    0.287115
  20 H     1.0000    0     1.008   12.771513   -5.817561   -2.703854
  21 H     1.0000    0     1.008   14.154756   -3.053197   -1.359245
  22 C     6.0000    0    12.011   -5.629601    1.123209    1.937179
  23 H     1.0000    0     1.008   -4.954053    0.381307    3.730518
  24 C     6.0000    0    12.011   -4.284457    2.928058    0.768915
  25 H     1.0000    0     1.008   -4.852498    3.714072   -1.040402
  26 C     6.0000    0    12.011   -1.918692    3.994811    1.759878
  27 O     8.0000    0    15.999   -0.762523    5.586428    0.559679
  28 C     6.0000    0    12.011   -7.970279   -0.036207    1.023010
  29 C     6.0000    0    12.011   -9.097847   -1.935868    2.465384
  30 C     6.0000    0    12.011   -9.141671    0.680767   -1.245679
  31 C     6.0000    0    12.011  -11.311931   -3.105188    1.673838
  32 H     1.0000    0     1.008   -8.226322   -2.520047    4.228087
  33 C     6.0000    0    12.011  -11.337286   -0.471387   -2.052483
  34 H     1.0000    0     1.008   -8.352413    2.144696   -2.444576
  35 C     6.0000    0    12.011  -12.444502   -2.392924   -0.587684
  36 H     1.0000    0     1.008  -12.165234   -4.590824    2.804640
  37 O     8.0000    0    15.999  -14.584854   -3.467185   -1.497661
  38 H     1.0000    0     1.008  -15.176836   -4.751928   -0.347641
  39 O     8.0000    0    15.999  -12.394030    0.211868   -4.321188
  40 C     6.0000    0    12.011  -14.630235    1.713314   -4.055781
  41 H     1.0000    0     1.008  -14.207219    3.461048   -3.035532
  42 H     1.0000    0     1.008  -15.258074    2.162723   -5.962182
  43 H     1.0000    0     1.008  -16.110207    0.668887   -3.067902
  44 C     6.0000    0    12.011   -0.904019    3.090382    4.310105
  45 H     1.0000    0     1.008   -2.411003    3.027540    5.713776
  46 H     1.0000    0     1.008    0.504250    4.465579    4.921346
  47 O     8.0000    0    15.999    6.595350   -4.556758    0.479884
  48 O     8.0000    0    15.999    4.103824   -2.683175   -2.148289
  49 N     7.0000    0    14.007    5.929842   -2.741017   -0.765009

--------------------------------
INTERNAL COORDINATES (ANGSTROEM)
--------------------------------
 C      0   0   0     0.000000000000     0.00000000     0.00000000
 H      1   0   0     1.086714595715     0.00000000     0.00000000
 C      1   2   0     1.338423736277   119.13507172     0.00000000
 H      3   1   2     1.085804116192   123.07969039   182.22951089
 C      3   1   2     1.478099159016   123.64652854     1.62743071
 O      5   3   1     1.217048526746   119.82237735   178.18929999
 C      1   2   3     1.470209059927   113.75963344   181.40016540
 C      7   1   2     1.396131547411   118.50347838    26.60984469
 C      7   1   2     1.398096555469   125.59067091   205.06554646
 C      8   7   1     1.388197397311   121.93246861   177.74081908
 H      8   7   1     1.084680397266   118.76320747   358.30229901
 C      9   7   1     1.383538137221   123.94185276   181.62763386
 H      4   3   1     3.596117446548   106.36563004    60.16383442
 C     10   8   7     1.390461134270   120.51635206     0.90252285
 H     10   8   7     1.085687138470   120.18085732   180.03932242
 O     14  10   8     1.350926547707   124.11364000   178.41037292
 H     16  14  10     0.965012918571   110.31377875     0.89995559
 O     12   9   7     1.361810196023   119.75342501   184.23455919
 C     18  12   9     1.440126157529   113.70902612   252.59187069
 H     19  18  12     1.091622383674   109.91721831    59.77724183
 H     19  18  12     1.087523743211   105.90313856   178.45680741
 H     19  18  12     1.090661848652   110.57477357   297.53796751
 C      6   5   3     3.304848867763    81.64281698   227.60286473
 H     23   6   5     1.087436325765    33.20598771   229.66823135
 C     23   6   5     1.342038804763    96.24239461     5.97032771
 H     25  23   6     1.086311431789   122.12283536   153.29513503
 C     25  23   6     1.470009976588   124.10190089   334.34148811
 O     27  25  23     1.219458003011   120.44500465   178.06859891
 C     23   6   5     1.464466354594   130.49066956   157.59907402
 C     29  23   6     1.396121486761   118.85168059    34.66564527
 C     29  23   6     1.403383667589   122.88172614   214.54083059
 C     30  29  23     1.389633717990   121.07569214   180.35955357
 H     30  29  23     1.085515477033   119.55502904   359.93991067
 C     31  29  23     1.379835942088   121.14205756   179.50073119
 H     31  29  23     1.084925669318   121.55033842     0.14568728
 C     32  30  29     1.390490117409   120.14111451     0.02817558
 H     32  30  29     1.086290587202   120.44334706   179.54759530
 O     36  32  30     1.355685594208   123.51434509   179.14858622
 H     38  36  32     0.964722770557   110.04332088     0.47463255
 O     34  31  29     1.372861890891   119.81447214   182.16004114
 C     40  34  31     1.432242650460   113.38390745   253.74515941
 H     41  40  34     1.094056815910   110.38313325    59.97818585
 H     41  40  34     1.088422732166   106.41081785   178.80347074
 H     41  40  34     1.091831436026   111.02549015   298.00109725
 C      5   3   1     1.525356675217   119.62630960   358.16482898
 H     45   5   3     1.090315899311   107.14519476   195.37114027
 H     45   5   3     1.090670691695   110.41416052   313.40376523
 O      9   7   1     2.303804600085   127.19140716   331.72200873
 O     48   9   7     2.157674640021    61.95218471    86.81742971
 N     49  48   9     1.212630072149    27.42541771     0.10498638

---------------------------
INTERNAL COORDINATES (A.U.)
---------------------------
 C      0   0   0     0.000000000000     0.00000000     0.00000000
 H      1   0   0     2.053592971636     0.00000000     0.00000000
 C      1   2   0     2.529254312704   119.13507172     0.00000000
 H      3   1   2     2.051872414687   123.07969039   182.22951089
 C      3   1   2     2.793202609319   123.64652854     1.62743071
 O      5   3   1     2.299888407242   119.82237735   178.18929999
 C      1   2   3     2.778292482873   113.75963344   181.40016540
 C      7   1   2     2.638306271534   118.50347838    26.60984469
 C      7   1   2     2.642019598615   125.59067091   205.06554646
 C      8   7   1     2.623312900740   121.93246861   177.74081908
 H      8   7   1     2.049748893666   118.76320747   358.30229901
 C      9   7   1     2.614508175183   123.94185276   181.62763386
 H      4   3   1     6.795677119393   106.36563004    60.16383442
 C     10   8   7     2.627590743631   120.51635206     0.90252285
 H     10   8   7     2.051651358828   120.18085732   180.03932242
 O     14  10   8     2.552881202211   124.11364000   178.41037292
 H     16  14  10     1.823610131795   110.31377875     0.89995559
 O     12   9   7     2.573448316865   119.75342501   184.23455919
 C     18  12   9     2.721444036025   113.70902612   252.59187069
 H     19  18  12     2.062867346803   109.91721831    59.77724183
 H     19  18  12     2.055122038805   105.90313856   178.45680741
 H     19  18  12     2.061052198669   110.57477357   297.53796751
 C      6   5   3     6.245259274072    81.64281698   227.60286473
 H     23   6   5     2.054956843773    33.20598771   229.66823135
 C     23   6   5     2.536085802098    96.24239461     5.97032771
 H     25  23   6     2.052831102229   122.12283536   153.29513503
 C     25  23   6     2.777916269884   124.10190089   334.34148811
 O     27  25  23     2.304441657510   120.44500465   178.06859891
 C     23   6   5     2.767440342524   130.49066956   157.59907402
 C     29  23   6     2.638287259661   118.85168059    34.66564527
 C     29  23   6     2.652010792561   122.88172614   214.54083059
 C     30  29  23     2.626027153465   121.07569214   180.35955357
 H     30  29  23     2.051326965726   119.55502904   359.93991067
 C     31  29  23     2.607512040288   121.14205756   179.50073119
 H     31  29  23     2.050212390672   121.55033842     0.14568728
 C     32  30  29     2.627645513828   120.14111451     0.02817558
 H     32  30  29     2.052791711668   120.44334706   179.54759530
 O     36  32  30     2.561874496755   123.51434509   179.14858622
 H     38  36  32     1.823061831511   110.04332088     0.47463255
 O     34  31  29     2.594332993481   119.81447214   182.16004114
 C     40  34  31     2.706546366690   113.38390745   253.74515941
 H     41  40  34     2.067467757020   110.38313325    59.97818585
 H     41  40  34     2.056820881727   106.41081785   178.80347074
 H     41  40  34     2.063262398494   111.02549015   298.00109725
 C      5   3   1     2.882506372710   119.62630960   358.16482898
 H     45   5   3     2.060398449157   107.14519476   195.37114027
 H     45   5   3     2.061068909599   110.41416052   313.40376523
 O      9   7   1     4.353559760229   127.19140716   331.72200873
 O     48   9   7     4.077414155748    61.95218471    86.81742971
 N     49  48   9     2.291538738119    27.42541771     0.10498638

---------------------
BASIS SET INFORMATION
---------------------
There are 4 groups of distinct atoms

 Group   1 Type C   : 11s5p1d contracted to 4s3p1d pattern {6311/311/1}
 Group   2 Type H   : 5s contracted to 3s pattern {311}
 Group   3 Type O   : 11s5p1d contracted to 4s3p1d pattern {6311/311/1}
 Group   4 Type N   : 11s5p1d contracted to 4s3p1d pattern {6311/311/1}

Atom   0C    basis set group =>   1
Atom   1H    basis set group =>   2
Atom   2C    basis set group =>   1
Atom   3H    basis set group =>   2
Atom   4C    basis set group =>   1
Atom   5O    basis set group =>   3
Atom   6C    basis set group =>   1
Atom   7C    basis set group =>   1
Atom   8C    basis set group =>   1
Atom   9C    basis set group =>   1
Atom  10H    basis set group =>   2
Atom  11C    basis set group =>   1
Atom  12H    basis set group =>   2
Atom  13C    basis set group =>   1
Atom  14H    basis set group =>   2
Atom  15O    basis set group =>   3
Atom  16H    basis set group =>   2
Atom  17O    basis set group =>   3
Atom  18C    basis set group =>   1
Atom  19H    basis set group =>   2
Atom  20H    basis set group =>   2
Atom  21H    basis set group =>   2
Atom  22C    basis set group =>   1
Atom  23H    basis set group =>   2
Atom  24C    basis set group =>   1
Atom  25H    basis set group =>   2
Atom  26C    basis set group =>   1
Atom  27O    basis set group =>   3
Atom  28C    basis set group =>   1
Atom  29C    basis set group =>   1
Atom  30C    basis set group =>   1
Atom  31C    basis set group =>   1
Atom  32H    basis set group =>   2
Atom  33C    basis set group =>   1
Atom  34H    basis set group =>   2
Atom  35C    basis set group =>   1
Atom  36H    basis set group =>   2
Atom  37O    basis set group =>   3
Atom  38H    basis set group =>   2
Atom  39O    basis set group =>   3
Atom  40C    basis set group =>   1
Atom  41H    basis set group =>   2
Atom  42H    basis set group =>   2
Atom  43H    basis set group =>   2
Atom  44C    basis set group =>   1
Atom  45H    basis set group =>   2
Atom  46H    basis set group =>   2
Atom  47O    basis set group =>   3
Atom  48O    basis set group =>   3
Atom  49N    basis set group =>   4
---------------------------------
AUXILIARY/J BASIS SET INFORMATION
---------------------------------
There are 4 groups of distinct atoms

 Group   1 Type C   : 12s5p4d2f1g contracted to 6s4p3d1f1g pattern {711111/2111/211/2/1}
 Group   2 Type H   : 5s2p1d contracted to 3s1p1d pattern {311/2/1}
 Group   3 Type O   : 12s5p4d2f1g contracted to 6s4p3d1f1g pattern {711111/2111/211/2/1}
 Group   4 Type N   : 12s5p4d2f1g contracted to 6s4p3d1f1g pattern {711111/2111/211/2/1}

Atom   0C    basis set group =>   1
Atom   1H    basis set group =>   2
Atom   2C    basis set group =>   1
Atom   3H    basis set group =>   2
Atom   4C    basis set group =>   1
Atom   5O    basis set group =>   3
Atom   6C    basis set group =>   1
Atom   7C    basis set group =>   1
Atom   8C    basis set group =>   1
Atom   9C    basis set group =>   1
Atom  10H    basis set group =>   2
Atom  11C    basis set group =>   1
Atom  12H    basis set group =>   2
Atom  13C    basis set group =>   1
Atom  14H    basis set group =>   2
Atom  15O    basis set group =>   3
Atom  16H    basis set group =>   2
Atom  17O    basis set group =>   3
Atom  18C    basis set group =>   1
Atom  19H    basis set group =>   2
Atom  20H    basis set group =>   2
Atom  21H    basis set group =>   2
Atom  22C    basis set group =>   1
Atom  23H    basis set group =>   2
Atom  24C    basis set group =>   1
Atom  25H    basis set group =>   2
Atom  26C    basis set group =>   1
Atom  27O    basis set group =>   3
Atom  28C    basis set group =>   1
Atom  29C    basis set group =>   1
Atom  30C    basis set group =>   1
Atom  31C    basis set group =>   1
Atom  32H    basis set group =>   2
Atom  33C    basis set group =>   1
Atom  34H    basis set group =>   2
Atom  35C    basis set group =>   1
Atom  36H    basis set group =>   2
Atom  37O    basis set group =>   3
Atom  38H    basis set group =>   2
Atom  39O    basis set group =>   3
Atom  40C    basis set group =>   1
Atom  41H    basis set group =>   2
Atom  42H    basis set group =>   2
Atom  43H    basis set group =>   2
Atom  44C    basis set group =>   1
Atom  45H    basis set group =>   2
Atom  46H    basis set group =>   2
Atom  47O    basis set group =>   3
Atom  48O    basis set group =>   3
Atom  49N    basis set group =>   4
------------------------------------------------------------------------------
                           ORCA GTO INTEGRAL CALCULATION
                           -- RI-GTO INTEGRALS CHOSEN --
------------------------------------------------------------------------------
------------------------------------------------------------------------------
                   ___                                                        
                  /   \      - P O W E R E D   B Y -                         
                 /     \                                                     
                 |  |  |   _    _      __       _____    __    __             
                 |  |  |  | |  | |    /  \     |  _  \  |  |  /  |          
                  \  \/   | |  | |   /    \    | | | |  |  | /  /          
                 / \  \   | |__| |  /  /\  \   | |_| |  |  |/  /          
                |  |  |   |  __  | /  /__\  \  |    /   |      \           
                |  |  |   | |  | | |   __   |  |    \   |  |\   \          
                \     /   | |  | | |  |  |  |  | |\  \  |  | \   \       
                 \___/    |_|  |_| |__|  |__|  |_| \__\ |__|  \__/        
                                                                              
                      - O R C A' S   B I G   F R I E N D -                    
                                      &                                       
                       - I N T E G R A L  F E E D E R -                       
                                                                              
 v1 FN, 2020, v2 2021                                                         
------------------------------------------------------------------------------


Reading SHARK input file CURCUMIN-OPT-FREQ-Prod-1-wB97XM-V-6-311G-D-363.SHARKINP.tmp ... ok
----------------------
SHARK INTEGRAL PACKAGE
----------------------

Number of atoms                             ...     50
Number of basis functions                   ...    600
Number of shells                            ...    300
Maximum angular momentum                    ...      2
Integral batch strategy                     ... SHARK/LIBINT Hybrid
RI-J (if used) integral strategy            ... SPLIT-RIJ (Revised 2003 algorithm where possible)
Printlevel                                  ...      1
Contraction scheme used                     ... SEGMENTED contraction
Coulomb Range Separation                    ... NOT USED
Exchange Range Separation                   ... Long Range
   Mu parameter                             ...  0.300000
   Scaling (regular/separated)              ...  0.150000  0.850000
Finite Nucleus Model                        ... NOT USED
Auxiliary Coulomb fitting basis             ... AVAILABLE
   # of basis functions in Aux-J            ...   1690
   # of shells in Aux-J                     ...    550
   Maximum angular momentum in Aux-J        ...      4
Auxiliary J/K fitting basis                 ... NOT available
Auxiliary Correlation fitting basis         ... NOT available
Auxiliary 'external' fitting basis          ... NOT available
Integral threshold                          ...     2.500000e-11
Primitive cut-off                           ...     2.500000e-12
Primitive pair pre-selection threshold      ...     2.500000e-12

Calculating pre-screening integrals         ... done (  0.1 sec) Dimension = 300
Organizing shell pair data                  ... done (  1.7 sec)
Shell pair information
Total number of shell pairs                 ...     45150
Shell pairs after pre-screening             ...     21976
Total number of primitive shell pairs       ...    187045
Primitive shell pairs kept                  ...     53668
          la=0 lb=0:   7521 shell pairs
          la=1 lb=0:   8209 shell pairs
          la=1 lb=1:   2291 shell pairs
          la=2 lb=0:   2405 shell pairs
          la=2 lb=1:   1338 shell pairs
          la=2 lb=2:    212 shell pairs

Calculating one electron integrals          ... done (  0.1 sec)
Calculating RI/J V-Matrix + Cholesky decomp.... done (  4.0 sec)
Calculating Nuclear repulsion               ... done (  0.0 sec) ENN=   2718.631989429840 Eh

SHARK setup successfully completed in   8.8 seconds

Maximum memory used throughout the entire GTOINT-calculation: 121.8 MB
-------------------------------------------------------------------------------
                                 ORCA SCF
-------------------------------------------------------------------------------

------------
SCF SETTINGS
------------
Hamiltonian:
 Density Functional     Method          .... DFT(GTOs)
  Functional kind                       .... Exchange-Correlation
  Functional name                       .... wB97M-V exchange-correlation functional
  Functional family                     .... Hybrid MGGA
  Functional refs                              
    [ 0] N. Mardirossian and M. Head-Gordon, J. Chem. Phys. 144, 214110 (2016)
  Fraction of HF Exchange (short range) .... 0.1500
  Fraction of HF Exchange (long range)  .... 1.0000
  Range separation parameter mu         .... 0.3000
  Functional external parameters         .... 0
   Density functional embedding theory  .... OFF
 Long-range corrected/Screened/Range-Separated Hybrid DFT is turned on
   Amount of maximum screened exact exchange              ....  0.850000
   Range separation parameter mu (erf(mu*r12)/r12)        ....  0.300000
   NL short-range parameter             ....  6.000000
   NL long-range parameter              ....  0.010000
 RI-approximation to the Coulomb term is turned on
   Number of AuxJ basis functions       .... 1690
   RIJ-ON(X) (HFX calculated with O(N)) .... on


General Settings:
 Integral files         IntName         .... CURCUMIN-OPT-FREQ-Prod-1-wB97XM-V-6-311G-D-363
 Hartree-Fock type      HFTyp           .... UHF
 Total Charge           Charge          ....    0
 Multiplicity           Mult            ....    2
 Number of Electrons    NEL             ....  217
 Basis Dimension        Dim             ....  600
 Nuclear Repulsion      ENuc            ....   2718.6319894298 Eh

Convergence Acceleration:
 DIIS                   CNVDIIS         .... on
   Start iteration      DIISMaxIt       ....    12
   Startup error        DIISStart       ....  0.200000
   # of expansion vecs  DIISMaxEq       ....     5
   Bias factor          DIISBfac        ....   1.050
   Max. coefficient     DIISMaxC        ....  10.000
 Trust-Rad. Augm. Hess. CNVTRAH         .... off
 SOSCF                  CNVSOSCF        .... off
 Level Shifting         CNVShift        .... on
   Level shift para.    LevelShift      ....    0.2500
   Turn off err/grad.   ShiftErr        ....    0.0010
 Zerner damping         CNVZerner       .... off
 Static damping         CNVDamp         .... on
   Fraction old density DampFac         ....    0.7000
   Max. Damping (<1)    DampMax         ....    0.9800
   Min. Damping (>=0)   DampMin         ....    0.0000
   Turn off err/grad.   DampErr         ....    0.1000
 Fernandez-Rico         CNVRico         .... off

SCF Procedure:
 Maximum # iterations   MaxIter         ....   125
 SCF integral mode      SCFMode         .... Direct
   Integral package                     .... SHARK and LIBINT hybrid scheme
 Reset frequency        DirectResetFreq ....    20
 Integral Threshold     Thresh          ....  2.500e-11 Eh
 Primitive CutOff       TCut            ....  2.500e-12 Eh

Convergence Tolerance:
 Convergence Check Mode ConvCheckMode   .... Total+1el-Energy
 Convergence forced     ConvForced      .... 0
 Energy Change          TolE            ....  1.000e-08 Eh
 1-El. energy change                    ....  1.000e-05 Eh
 DIIS Error             TolErr          ....  5.000e-07


Diagonalization of the overlap matrix:
Smallest eigenvalue                        ... 1.301e-04
[...]
 52:    574.72   0.009992   50.50  0.005426  (-0.070435  0.004516  0.021073)
 53:    576.72   0.009007   45.52  0.004873  ( 0.058708  0.036148  0.010958)
 54:    595.17   0.000738    3.73  0.000387  ( 0.018373 -0.007010 -0.000627)
 55:    610.40   0.005821   29.42  0.002976  ( 0.054387 -0.002936 -0.003091)
 56:    619.23   0.001688    8.53  0.000851  (-0.021449 -0.017874  0.008425)
 57:    632.23   0.001866    9.43  0.000921  (-0.009264 -0.028389 -0.005406)
 58:    659.07   0.001040    5.26  0.000493  (-0.005999  0.018575  0.010564)
 59:    683.23   0.003278   16.56  0.001497  ( 0.038048  0.003929  0.005831)
 60:    725.15   0.002715   13.72  0.001168  ( 0.002060 -0.014441 -0.030915)
 61:    735.56   0.000607    3.07  0.000258  (-0.010424 -0.010472  0.006279)
 62:    750.43   0.000548    2.77  0.000228  ( 0.002700  0.005004  0.013991)
 63:    764.78   0.001001    5.06  0.000409  ( 0.016687 -0.003116 -0.010976)
 64:    769.56   0.001868    9.44  0.000757  ( 0.010767 -0.000275  0.025328)
 65:    786.84   0.003565   18.01  0.001414  (-0.029046  0.001702  0.023817)
 66:    820.03   0.005710   28.86  0.002173  ( 0.042090  0.016467  0.011417)
 67:    825.41   0.012314   62.23  0.004655  ( 0.029304 -0.040494 -0.046443)
 68:    833.54   0.011648   58.87  0.004361  (-0.016535  0.047409 -0.042895)
 69:    838.90   0.015017   75.89  0.005586  (-0.053431 -0.047152 -0.022541)
 70:    859.20   0.000851    4.30  0.000309  (-0.007496 -0.011023  0.011461)
 71:    879.81   0.003221   16.28  0.001143  (-0.006299 -0.025291  0.021525)
 72:    898.60   0.001453    7.34  0.000505  (-0.007141  0.009083  0.019263)
 73:    922.90   0.001682    8.50  0.000569  (-0.008576  0.016258  0.015192)
 74:    942.92   0.000358    1.81  0.000118  (-0.006236  0.008894 -0.000695)
 75:    956.11   0.000410    2.07  0.000134  ( 0.003550 -0.005397 -0.009590)
 76:    958.41   0.000907    4.59  0.000295  (-0.000701  0.011433 -0.012816)
 77:    963.59   0.000343    1.74  0.000111  ( 0.009270  0.002911 -0.004097)
 78:    972.56   0.008053   40.70  0.002584  (-0.022745  0.010802  0.044159)
 79:    993.19   0.008883   44.89  0.002791  ( 0.050849  0.012526 -0.006969)
 80:   1019.17   0.034838  176.06  0.010667  ( 0.101473 -0.018744  0.004361)
 81:   1032.21   0.016244   82.09  0.004911  ( 0.065237 -0.025323 -0.003723)
 82:   1033.32   0.014157   71.54  0.004275  (-0.018620 -0.037221 -0.050431)
 83:   1059.68   0.023043  116.45  0.006786  ( 0.073995 -0.032830  0.015262)
 84:   1099.00   0.025401  128.37  0.007213  (-0.023709  0.081197 -0.007590)
 85:   1138.20   0.008956   45.26  0.002455  (-0.002973 -0.003797  0.049318)
 86:   1145.42   0.039263  198.42  0.010697  (-0.054285 -0.087903  0.004821)
 87:   1177.68   0.000271    1.37  0.000072  (-0.001787 -0.007606 -0.003293)
 88:   1179.05   0.002762   13.96  0.000731  (-0.022905 -0.010624 -0.009665)
 89:   1186.04   0.023121  116.85  0.006084  (-0.068700 -0.016264  0.033157)
 90:   1188.66   0.006809   34.41  0.001788  ( 0.020253  0.036164  0.008338)
 91:   1192.48   0.005415   27.37  0.001417  ( 0.029241  0.010285 -0.021362)
 92:   1205.15   0.006771   34.22  0.001753  (-0.024532  0.001442 -0.033902)
 93:   1217.50   0.018261   92.28  0.004681  (-0.059780  0.005610  0.032794)
 94:   1221.56   0.066586  336.50  0.017010  ( 0.121860  0.046300  0.004100)
 95:   1233.84   0.084282  425.92  0.021317  (-0.144578 -0.018045 -0.009393)
 96:   1253.03   0.043327  218.96  0.010791  (-0.102579  0.015498 -0.005284)
 97:   1273.10   0.008919   45.07  0.002186  (-0.025547  0.016970 -0.035294)
 98:   1290.99   0.019290   97.48  0.004663  ( 0.044597  0.003011  0.051622)
 99:   1294.98   0.086277  436.01  0.020791  (-0.130421  0.059542  0.015366)
100:   1302.71   0.064157  324.22  0.015369  ( 0.114331  0.014286  0.045749)
101:   1311.93   0.016117   81.45  0.003834  ( 0.053940 -0.021530 -0.021465)
102:   1322.46   0.032443  163.95  0.007656  (-0.060145 -0.048638 -0.040895)
103:   1325.72   0.039490  199.57  0.009296  ( 0.017533  0.043649  0.084161)
104:   1338.23   0.043798  221.34  0.010213  (-0.095916  0.015555  0.027776)
105:   1346.70   0.000201    1.01  0.000047  (-0.001272  0.000503 -0.006681)
106:   1364.99   0.034152  172.59  0.007808  ( 0.074971 -0.009496 -0.045793)
107:   1370.27   0.011665   58.95  0.002657  ( 0.044071  0.026651 -0.002019)
108:   1379.73   0.005869   29.66  0.001328  ( 0.028448 -0.020718 -0.009432)
109:   1385.59   0.038309  193.60  0.008628  (-0.079995 -0.021475 -0.042043)
110:   1467.74   0.006031   30.48  0.001282  (-0.014579 -0.029641 -0.013827)
111:   1468.70   0.000782    3.95  0.000166  (-0.005520  0.005460 -0.010292)
112:   1480.33   0.033539  169.49  0.007070  (-0.027069 -0.079319 -0.006788)
113:   1484.22   0.002965   14.98  0.000623  (-0.014128 -0.019833  0.005515)
114:   1485.89   0.003058   15.45  0.000642  (-0.020175 -0.013124  0.007937)
115:   1487.29   0.005021   25.37  0.001053  ( 0.008153  0.001623 -0.031375)
116:   1495.88   0.003780   19.10  0.000789  ( 0.007496 -0.019172 -0.019101)
117:   1497.07   0.007448   37.64  0.001552  (-0.033159  0.003492 -0.020994)
118:   1501.60   0.001004    5.07  0.000209  ( 0.001679  0.001784  0.014233)
119:   1511.31   0.005394   27.26  0.001114  (-0.031864 -0.007948  0.005933)
120:   1558.41   0.054251  274.16  0.010863  (-0.084661  0.025172  0.055338)
121:   1563.50   0.068382  345.58  0.013649  (-0.097916 -0.032916 -0.054568)
122:   1653.03   0.107382  542.67  0.020272  ( 0.104961 -0.049852  0.082279)
123:   1664.54   0.003424   17.30  0.000642  ( 0.006909  0.022017 -0.010458)
124:   1666.01   0.017529   88.59  0.003283  ( 0.039482 -0.034405  0.023258)
125:   1678.86   0.065333  330.17  0.012144  ( 0.084178  0.071099 -0.001744)
126:   1684.75   0.040138  202.84  0.007435  (-0.054812 -0.034771  0.056758)
127:   1713.68   0.036799  185.97  0.006701  ( 0.071431  0.036893  0.015419)
128:   1725.59   0.009774   49.39  0.001768  ( 0.024872 -0.032641 -0.009136)
129:   1743.70   0.269849  1363.71  0.048294  (-0.148773 -0.139078  0.082571)
130:   1770.36   0.015082   76.22  0.002659  ( 0.029882  0.028165 -0.031184)
131:   3043.84   0.013815   69.82  0.001416  (-0.026103  0.027065 -0.001584)
132:   3064.22   0.010577   53.45  0.001077  (-0.022208  0.021704 -0.010623)
133:   3102.56   0.000218    1.10  0.000022  ( 0.000304  0.002788  0.003754)
134:   3118.54   0.010059   50.83  0.001007  ( 0.022894  0.021075  0.006183)
135:   3144.28   0.006588   33.30  0.000654  (-0.020455 -0.008131  0.013014)
136:   3159.13   0.002134   10.78  0.000211  (-0.013730 -0.004536  0.001310)
137:   3163.26   0.008001   40.43  0.000789  (-0.004392  0.004866 -0.027319)
138:   3177.86   0.005958   30.11  0.000585  (-0.001202  0.018437  0.015610)
139:   3180.60   0.001246    6.30  0.000122  (-0.010712 -0.002549 -0.001019)
140:   3181.53   0.002395   12.10  0.000235  ( 0.010826  0.010625  0.002195)
141:   3185.44   0.000555    2.80  0.000054  ( 0.004854 -0.002788  0.004796)
142:   3188.39   0.001382    6.98  0.000135  ( 0.007185 -0.000243  0.009143)
143:   3192.73   0.001912    9.66  0.000187  ( 0.012067  0.002020 -0.006099)
144:   3197.70   0.000771    3.90  0.000075  (-0.006042  0.006146 -0.001005)
145:   3199.64   0.002740   13.85  0.000267  ( 0.000666  0.009622 -0.013200)
146:   3206.18   0.001051    5.31  0.000102  ( 0.002739 -0.004755  0.008494)
147:   3209.84   0.000803    4.06  0.000078  ( 0.002257  0.008485  0.001002)
148:   3802.79   0.044464  224.70  0.003649  ( 0.049093  0.032407 -0.013728)
149:   3805.29   0.039187  198.03  0.003214  (-0.039020 -0.039403  0.011767)

* The epsilon (eps) is given for a Dirac delta lineshape.
** The dipole moment derivative (T) already includes vibrational overlap.

The first frequency considered to be a vibration is 7
The total number of vibrations considered is 143


--------------------------
THERMOCHEMISTRY AT 363.15K
--------------------------

Temperature         ... 363.15 K
Pressure            ... 1.00 atm
Total Mass          ... 414.39 AMU

Throughout the following assumptions are being made:
  (1) The electronic state is orbitally nondegenerate
      but the spin degeneracy is treated
  (2) There are no thermally accessible electronically excited states
  (3) Hindered rotations indicated by low frequency modes are not
      treated as such but are treated as vibrations and this may
      cause some error
  (4) All equations used are the standard statistical mechanics
      equations for an ideal gas
  (5) All vibrations are strictly harmonic

freq.      12.79  E(vib)   ...       0.70 
freq.      22.24  E(vib)   ...       0.69 
freq.      26.79  E(vib)   ...       0.68 
freq.      40.58  E(vib)   ...       0.67 
freq.      43.80  E(vib)   ...       0.66 
freq.      53.86  E(vib)   ...       0.65 
freq.      61.65  E(vib)   ...       0.64 
freq.      72.03  E(vib)   ...       0.62 
freq.      80.75  E(vib)   ...       0.61 
freq.      84.47  E(vib)   ...       0.61 
freq.      90.25  E(vib)   ...       0.60 
freq.      91.31  E(vib)   ...       0.60 
freq.     109.74  E(vib)   ...       0.58 
freq.     119.77  E(vib)   ...       0.56 
freq.     132.58  E(vib)   ...       0.55 
freq.     139.60  E(vib)   ...       0.54 
freq.     149.11  E(vib)   ...       0.53 
freq.     160.69  E(vib)   ...       0.52 
freq.     161.47  E(vib)   ...       0.52 
freq.     173.44  E(vib)   ...       0.50 
freq.     185.08  E(vib)   ...       0.49 
freq.     187.58  E(vib)   ...       0.49 
freq.     198.65  E(vib)   ...       0.47 
freq.     225.58  E(vib)   ...       0.45 
freq.     232.94  E(vib)   ...       0.44 
freq.     251.75  E(vib)   ...       0.42 
freq.     272.87  E(vib)   ...       0.40 
freq.     298.14  E(vib)   ...       0.38 
freq.     304.85  E(vib)   ...       0.37 
freq.     316.31  E(vib)   ...       0.36 
freq.     324.16  E(vib)   ...       0.35 
freq.     340.65  E(vib)   ...       0.34 
freq.     388.94  E(vib)   ...       0.30 
freq.     398.36  E(vib)   ...       0.30 
freq.     399.57  E(vib)   ...       0.30 
freq.     408.43  E(vib)   ...       0.29 
freq.     411.21  E(vib)   ...       0.29 
freq.     431.65  E(vib)   ...       0.27 
freq.     458.93  E(vib)   ...       0.25 
freq.     466.45  E(vib)   ...       0.25 
freq.     469.55  E(vib)   ...       0.25 
freq.     484.24  E(vib)   ...       0.24 
freq.     503.10  E(vib)   ...       0.23 
freq.     536.24  E(vib)   ...       0.21 
freq.     563.70  E(vib)   ...       0.19 
freq.     574.72  E(vib)   ...       0.19 
freq.     576.72  E(vib)   ...       0.19 
freq.     595.17  E(vib)   ...       0.18 
freq.     610.40  E(vib)   ...       0.17 
freq.     619.23  E(vib)   ...       0.17 
freq.     632.23  E(vib)   ...       0.16 
freq.     659.07  E(vib)   ...       0.15 
freq.     683.23  E(vib)   ...       0.14 
freq.     725.15  E(vib)   ...       0.12 
freq.     735.56  E(vib)   ...       0.12 
freq.     750.43  E(vib)   ...       0.12 
freq.     764.78  E(vib)   ...       0.11 
freq.     769.56  E(vib)   ...       0.11 
freq.     786.84  E(vib)   ...       0.10 
freq.     820.03  E(vib)   ...       0.09 
freq.     825.41  E(vib)   ...       0.09 
freq.     833.54  E(vib)   ...       0.09 
freq.     838.90  E(vib)   ...       0.09 
freq.     859.20  E(vib)   ...       0.08 
freq.     879.81  E(vib)   ...       0.08 
freq.     898.60  E(vib)   ...       0.08 
freq.     922.90  E(vib)   ...       0.07 
freq.     942.92  E(vib)   ...       0.07 
freq.     956.11  E(vib)   ...       0.06 
freq.     958.41  E(vib)   ...       0.06 
freq.     963.59  E(vib)   ...       0.06 
freq.     972.56  E(vib)   ...       0.06 
freq.     993.19  E(vib)   ...       0.06 
freq.    1019.17  E(vib)   ...       0.05 
freq.    1032.21  E(vib)   ...       0.05 
freq.    1033.32  E(vib)   ...       0.05 
freq.    1059.68  E(vib)   ...       0.05 
freq.    1099.00  E(vib)   ...       0.04 
freq.    1138.20  E(vib)   ...       0.04 
freq.    1145.42  E(vib)   ...       0.04 
freq.    1177.68  E(vib)   ...       0.03 
freq.    1179.05  E(vib)   ...       0.03 
freq.    1186.04  E(vib)   ...       0.03 
freq.    1188.66  E(vib)   ...       0.03 
freq.    1192.48  E(vib)   ...       0.03 
freq.    1205.15  E(vib)   ...       0.03 
freq.    1217.50  E(vib)   ...       0.03 
freq.    1221.56  E(vib)   ...       0.03 
freq.    1233.84  E(vib)   ...       0.03 
freq.    1253.03  E(vib)   ...       0.03 
freq.    1273.10  E(vib)   ...       0.02 
freq.    1290.99  E(vib)   ...       0.02 
freq.    1294.98  E(vib)   ...       0.02 
freq.    1302.71  E(vib)   ...       0.02 
freq.    1311.93  E(vib)   ...       0.02 
freq.    1322.46  E(vib)   ...       0.02 
freq.    1325.72  E(vib)   ...       0.02 
freq.    1338.23  E(vib)   ...       0.02 
freq.    1346.70  E(vib)   ...       0.02 
freq.    1364.99  E(vib)   ...       0.02 
freq.    1370.27  E(vib)   ...       0.02 
freq.    1379.73  E(vib)   ...       0.02 
freq.    1385.59  E(vib)   ...       0.02 
freq.    1467.74  E(vib)   ...       0.01 
freq.    1468.70  E(vib)   ...       0.01 
freq.    1480.33  E(vib)   ...       0.01 
freq.    1484.22  E(vib)   ...       0.01 
freq.    1485.89  E(vib)   ...       0.01 
freq.    1487.29  E(vib)   ...       0.01 
freq.    1495.88  E(vib)   ...       0.01 
freq.    1497.07  E(vib)   ...       0.01 
freq.    1501.60  E(vib)   ...       0.01 
freq.    1511.31  E(vib)   ...       0.01 
freq.    1558.41  E(vib)   ...       0.01 
freq.    1563.50  E(vib)   ...       0.01 
freq.    1653.03  E(vib)   ...       0.01 
freq.    1664.54  E(vib)   ...       0.01 
freq.    1666.01  E(vib)   ...       0.01 
freq.    1678.86  E(vib)   ...       0.01 
freq.    1684.75  E(vib)   ...       0.01 
freq.    1713.68  E(vib)   ...       0.01 
freq.    1725.59  E(vib)   ...       0.01 
freq.    1743.70  E(vib)   ...       0.00 
freq.    1770.36  E(vib)   ...       0.00 
freq.    3043.84  E(vib)   ...       0.00 
freq.    3064.22  E(vib)   ...       0.00 
freq.    3102.56  E(vib)   ...       0.00 
freq.    3118.54  E(vib)   ...       0.00 
freq.    3144.28  E(vib)   ...       0.00 
freq.    3159.13  E(vib)   ...       0.00 
freq.    3163.26  E(vib)   ...       0.00 
freq.    3177.86  E(vib)   ...       0.00 
freq.    3180.60  E(vib)   ...       0.00 
freq.    3181.53  E(vib)   ...       0.00 
freq.    3185.44  E(vib)   ...       0.00 
freq.    3188.39  E(vib)   ...       0.00 
freq.    3192.73  E(vib)   ...       0.00 
freq.    3197.70  E(vib)   ...       0.00 
freq.    3199.64  E(vib)   ...       0.00 
freq.    3206.18  E(vib)   ...       0.00 
freq.    3209.84  E(vib)   ...       0.00 
freq.    3802.79  E(vib)   ...       0.00 
freq.    3805.29  E(vib)   ...       0.00 

------------
INNER ENERGY
------------

The inner energy is: U= E(el) + E(ZPE) + E(vib) + E(rot) + E(trans)
    E(el)   - is the total energy from the electronic structure calculation
              = E(kin-el) + E(nuc-el) + E(el-el) + E(nuc-nuc)
    E(ZPE)  - the the zero temperature vibrational energy from the frequency calculation
    E(vib)  - the the finite temperature correction to E(ZPE) due to population
              of excited vibrational states
    E(rot)  - is the rotational thermal energy
    E(trans)- is the translational thermal energy

Summary of contributions to the inner energy U:
Electronic energy                ...  -1468.43280954 Eh
Zero point energy                ...      0.37487193 Eh     235.24 kcal/mol
Thermal vibrational correction   ...      0.03899738 Eh      24.47 kcal/mol
Thermal rotational correction    ...      0.00172503 Eh       1.08 kcal/mol
Thermal translational correction ...      0.00172503 Eh       1.08 kcal/mol
-----------------------------------------------------------------------
Total thermal energy                  -1468.01549016 Eh


Summary of corrections to the electronic energy:
(perhaps to be used in another calculation)
Total thermal correction                  0.04244745 Eh      26.64 kcal/mol
Non-thermal (ZPE) correction              0.37487193 Eh     235.24 kcal/mol
-----------------------------------------------------------------------
Total correction                          0.41731938 Eh     261.87 kcal/mol


--------
ENTHALPY
--------

The enthalpy is H = U + kB*T
                kB is Boltzmann's constant
Total free energy                 ...  -1468.01549016 Eh 
Thermal Enthalpy correction       ...      0.00115006 Eh       0.72 kcal/mol
-----------------------------------------------------------------------
Total Enthalpy                    ...  -1468.01434011 Eh


Note: Only C1 symmetry has been detected, increase convergence thresholds 
      if your molecule has a higher symmetry. Symmetry factor of 1.0 is   
      used for the rotational entropy correction. 
 

Note: Rotational entropy computed according to Herzberg 
Infrared and Raman Spectra, Chapter V,1, Van Nostrand Reinhold, 1945 
Point Group:  C1, Symmetry Number:   1  
Rotational constants in cm-1:     0.010806     0.001685     0.001640 

Vibrational entropy computed according to the QRRHO of S. Grimme
Chem.Eur.J. 2012 18 9955


-------
ENTROPY
-------

The entropy contributions are T*S = T*(S(el)+S(vib)+S(rot)+S(trans))
     S(el)   - electronic entropy
     S(vib)  - vibrational entropy
     S(rot)  - rotational entropy
     S(trans)- translational entropy
The entropies will be listed as multiplied by the temperature to get
units of energy

Electronic entropy                ...      0.00079714 Eh      0.50 kcal/mol
Vibrational entropy               ...      0.07230872 Eh     45.37 kcal/mol
Rotational entropy                ...      0.02188783 Eh     13.73 kcal/mol
Translational entropy             ...      0.02600477 Eh     16.32 kcal/mol
-----------------------------------------------------------------------
Final entropy term                ...      0.12099846 Eh     75.93 kcal/mol

In case the symmetry of your molecule has not been determined correctly
or in case you have a reason to use a different symmetry number we print 
out the resulting rotational entropy values for sn=1,12 :
 --------------------------------------------------------
|  sn= 1 | S(rot)=       0.02188783 Eh     13.73 kcal/mol|
|  sn= 2 | S(rot)=       0.02109069 Eh     13.23 kcal/mol|
|  sn= 3 | S(rot)=       0.02062440 Eh     12.94 kcal/mol|
|  sn= 4 | S(rot)=       0.02029356 Eh     12.73 kcal/mol|
|  sn= 5 | S(rot)=       0.02003694 Eh     12.57 kcal/mol|
|  sn= 6 | S(rot)=       0.01982726 Eh     12.44 kcal/mol|
|  sn= 7 | S(rot)=       0.01964999 Eh     12.33 kcal/mol|
|  sn= 8 | S(rot)=       0.01949642 Eh     12.23 kcal/mol|
|  sn= 9 | S(rot)=       0.01936097 Eh     12.15 kcal/mol|
|  sn=10 | S(rot)=       0.01923980 Eh     12.07 kcal/mol|
|  sn=11 | S(rot)=       0.01913019 Eh     12.00 kcal/mol|
|  sn=12 | S(rot)=       0.01903013 Eh     11.94 kcal/mol|
 --------------------------------------------------------


-------------------
GIBBS FREE ENERGY
-------------------

The Gibbs free energy is G = H - T*S

Total enthalpy                    ...  -1468.01434011 Eh 
Total entropy correction          ...     -0.12099846 Eh    -75.93 kcal/mol
-----------------------------------------------------------------------
Final Gibbs free energy         ...  -1468.13533856 Eh

For completeness - the Gibbs free energy minus the electronic energy
G-E(el)                           ...      0.29747098 Eh    186.67 kcal/mol



Timings for individual modules:

Sum of individual times         ...   227956.259 sec (=3799.271 min)
GTO integral calculation        ...       27.070 sec (=   0.451 min)   0.0 %
SCF iterations                  ...     2176.989 sec (=  36.283 min)   1.0 %
SCF Gradient evaluation         ...      357.604 sec (=   5.960 min)   0.2 %
Geometry relaxation             ...        0.824 sec (=   0.014 min)   0.0 %
Numerical frequency calculation ...   225393.771 sec (=3756.563 min)  98.9 %
                             ****ORCA TERMINATED NORMALLY****
TOTAL RUN TIME: 2 days 15 hours 13 minutes 32 seconds 236 msec
