 Entering Gaussian System, Link 0=g16
 Initial command:
 /sw/cluster/pub/apps//g16/l1.exe "/data/mmaximo/25497/Gau-1781555.inp" -scrdir="/data/mmaximo/25497/"
 Entering Link 1 = /sw/cluster/pub/apps//g16/l1.exe PID=   1781556.
  
 Copyright (c) 1988,1990,1992,1993,1995,1998,2003,2009,2016,
            Gaussian, Inc.  All Rights Reserved.
  
 This is part of the Gaussian(R) 16 program.  It is based on
 the Gaussian(R) 09 system (copyright 2009, Gaussian, Inc.),
 the Gaussian(R) 03 system (copyright 2003, Gaussian, Inc.),
 the Gaussian(R) 98 system (copyright 1998, Gaussian, Inc.),
 the Gaussian(R) 94 system (copyright 1995, Gaussian, Inc.),
 the Gaussian 92(TM) system (copyright 1992, Gaussian, Inc.),
 the Gaussian 90(TM) system (copyright 1990, Gaussian, Inc.),
 the Gaussian 88(TM) system (copyright 1988, Gaussian, Inc.),
 the Gaussian 86(TM) system (copyright 1986, Carnegie Mellon
 University), and the Gaussian 82(TM) system (copyright 1983,
 Carnegie Mellon University). Gaussian is a federally registered
 trademark of Gaussian, Inc.
  
 This software contains proprietary and confidential information,
 including trade secrets, belonging to Gaussian, Inc.
  
 This software is provided under written license and may be
 used, copied, transmitted, or stored only in accord with that
 written license.
  
 The following legend is applicable only to US Government
 contracts under FAR:
  
                    RESTRICTED RIGHTS LEGEND
  
 Use, reproduction and disclosure by the US Government is
 subject to restrictions as set forth in subparagraphs (a)
 and (c) of the Commercial Computer Software - Restricted
 Rights clause in FAR 52.227-19.
  
 Gaussian, Inc.
 340 Quinnipiac St., Bldg. 40, Wallingford CT 06492
  
  
 ---------------------------------------------------------------
 Warning -- This program may not be used in any manner that
 competes with the business of Gaussian, Inc. or will provide
 assistance to any competitor of Gaussian, Inc.  The licensee
 of this program is prohibited from giving any competitor of
 Gaussian, Inc. access to this program.  By using this program,
 the user acknowledges that Gaussian, Inc. is engaged in the
 business of creating and licensing software in the field of
 computational chemistry and represents and warrants to the
 licensee that it is not a competitor of Gaussian, Inc. and that
 it will not use this program in any manner prohibited above.
 ---------------------------------------------------------------
  

 Cite this work as:
 Gaussian 16, Revision A.03,
 M. J. Frisch, G. W. Trucks, H. B. Schlegel, G. E. Scuseria, 
 M. A. Robb, J. R. Cheeseman, G. Scalmani, V. Barone, 
 G. A. Petersson, H. Nakatsuji, X. Li, M. Caricato, A. V. Marenich, 
 J. Bloino, B. G. Janesko, R. Gomperts, B. Mennucci, H. P. Hratchian, 
 J. V. Ortiz, A. F. Izmaylov, J. L. Sonnenberg, D. Williams-Young, 
 F. Ding, F. Lipparini, F. Egidi, J. Goings, B. Peng, A. Petrone, 
 T. Henderson, D. Ranasinghe, V. G. Zakrzewski, J. Gao, N. Rega, 
 G. Zheng, W. Liang, M. Hada, M. Ehara, K. Toyota, R. Fukuda, 
 J. Hasegawa, M. Ishida, T. Nakajima, Y. Honda, O. Kitao, H. Nakai, 
 T. Vreven, K. Throssell, J. A. Montgomery, Jr., J. E. Peralta, 
 F. Ogliaro, M. J. Bearpark, J. J. Heyd, E. N. Brothers, K. N. Kudin, 
 V. N. Staroverov, T. A. Keith, R. Kobayashi, J. Normand, 
 K. Raghavachari, A. P. Rendell, J. C. Burant, S. S. Iyengar, 
 J. Tomasi, M. Cossi, J. M. Millam, M. Klene, C. Adamo, R. Cammi, 
 J. W. Ochterski, R. L. Martin, K. Morokuma, O. Farkas, 
 J. B. Foresman, and D. J. Fox, Gaussian, Inc., Wallingford CT, 2016.
 
 ******************************************
 Gaussian 16:  ES64L-G16RevA.03 25-Dec-2016
                11-Nov-2024 
 ******************************************
 %chk=CURCUMIN-OPT-FREQ-Reag-M06-2X-6-311G-D-363.chk
 ----------------------------------------------------------------------
 # opt=(calcfc) freq=noraman M062X/6-311g(d) scrf=(smd,solvent=generic,
 read) temperature=363.15
 ----------------------------------------------------------------------
 1/10=4,18=20,19=15,26=3,38=1,40=2,112=363150/1,3;
 2/9=110,12=2,17=6,18=5,40=1/2;
 3/5=4,6=6,7=1,11=2,25=1,30=1,70=32203,71=2,72=-2,74=-55,140=1/1,2,3;
 4//1;
 5/5=2,38=5/2;
 8/6=4,10=90,11=11/1;
 11/6=1,8=1,9=11,15=111,16=1/1,2,10;
 10/6=1,13=1/2;
 6/7=2,8=2,9=2,10=2,28=1/1;
 7/10=1,18=20,25=1/1,2,3,16;
 1/10=4,18=20,19=15,26=3/3(2);
 2/9=110/2;
 99//99;
 2/9=110/2;
 3/5=4,6=6,7=1,11=2,25=1,30=1,70=32205,71=1,72=-2,74=-55/1,2,3;
 4/5=5,16=3,69=1/1;
 5/5=2,38=5/2;
 7//1,2,3,16;
 1/18=20,19=15,26=3/3(-5);
 2/9=110/2;
 6/7=2,8=2,9=2,10=2,19=2,28=1/1;
 99/9=1/99;
 ---
 XXX
 ---
 Symbolic Z-matrix:
 Charge =  0 Multiplicity = 2
 C                    -2.77276   0.22773  -0.54162 
 H                    -2.4022    0.68618  -1.45527 
 C                    -1.9393    0.06568   0.49751 
 H                    -2.27295  -0.37635   1.43177 
 C                    -0.51805   0.45895   0.51338 
 O                     0.14614   0.29641   1.51616 
 C                    -4.18336  -0.15396  -0.5912 
 C                    -4.92346   0.14977  -1.73617 
 C                    -4.83174  -0.81764   0.46305 
 C                    -6.26982  -0.18001  -1.82774 
 H                    -4.44146   0.65738  -2.56496 
 C                    -6.16973  -1.14813   0.38543 
 H                    -4.3049   -1.08337   1.373 
 C                    -6.90456  -0.82413  -0.77163 
 H                    -6.83673   0.07063  -2.71943 
 O                    -8.21416  -1.15799  -0.78469 
 H                    -8.61483  -0.88473  -1.62011 
 O                    -6.78334  -1.75467   1.44209 
 C                    -7.08465  -3.13222   1.21996 
 H                    -6.16737  -3.69557   1.02491 
 H                    -7.54778  -3.49836   2.13449 
 H                    -7.77816  -3.25481   0.38608 
 C                     2.90196   0.02376  -0.31125 
 H                     2.07021  -0.66688  -0.42802 
 C                     2.65197   1.34089  -0.28861 
 H                     3.43893   2.07388  -0.13887 
 C                     1.30677   1.92323  -0.39572 
 O                     1.1357    3.11316  -0.21008 
 C                     4.20626  -0.62249  -0.17236 
 C                     4.27493  -2.01705  -0.21015 
 C                     5.40121   0.09671  -0.00805 
 C                     5.48913  -2.67968  -0.07968 
 H                     3.3649   -2.59382  -0.33757 
 C                     6.61332  -0.55011   0.12687 
 H                     5.40889   1.18041   0.03083 
 C                     6.66404  -1.95691   0.09374 
 H                     5.52692  -3.76479  -0.10292 
 O                     7.87693  -2.53486   0.24583 
 H                     7.78859  -3.4962    0.21391 
 O                     7.75271   0.1733    0.32831 
 C                     8.614     0.21568  -0.8088 
 H                     8.1015    0.67855  -1.65734 
 H                     9.47019   0.82543  -0.52568 
 H                     8.95417  -0.78455  -1.08349 
 C                     0.10819   1.05334  -0.74503 
 H                     0.36771   0.23065  -1.41689 
 H                    -0.6017    1.69088  -1.27073 
 O                    -1.99389   3.71176  -0.12482 
 O                    -1.10871   3.68443   1.86745 
 N                    -1.40297   3.27324   0.80181 
 
 Add virtual bond connecting atoms O48        and H47        Dist= 5.12D+00.
 Add virtual bond connecting atoms N50        and O28        Dist= 5.17D+00.
 Add virtual bond connecting atoms N50        and H47        Dist= 5.15D+00.

 GradGradGradGradGradGradGradGradGradGradGradGradGradGradGradGradGradGrad
 Berny optimization.
 Initialization pass.
                           ----------------------------
                           !    Initial Parameters    !
                           ! (Angstroms and Degrees)  !
 --------------------------                            --------------------------
 ! Name  Definition              Value          Derivative Info.                !
 --------------------------------------------------------------------------------
 ! R1    R(1,2)                  1.0873         calculate D2E/DX2 analytically  !
 ! R2    R(1,3)                  1.3419         calculate D2E/DX2 analytically  !
 ! R3    R(1,7)                  1.4622         calculate D2E/DX2 analytically  !
 ! R4    R(3,4)                  1.0861         calculate D2E/DX2 analytically  !
 ! R5    R(3,5)                  1.4747         calculate D2E/DX2 analytically  !
 ! R6    R(5,6)                  1.2137         calculate D2E/DX2 analytically  !
 ! R7    R(5,45)                 1.5261         calculate D2E/DX2 analytically  !
 ! R8    R(7,8)                  1.3968         calculate D2E/DX2 analytically  !
 ! R9    R(7,9)                  1.4044         calculate D2E/DX2 analytically  !
 ! R10   R(8,10)                 1.3892         calculate D2E/DX2 analytically  !
 ! R11   R(8,11)                 1.0848         calculate D2E/DX2 analytically  !
 ! R12   R(9,12)                 1.3804         calculate D2E/DX2 analytically  !
 ! R13   R(9,13)                 1.0845         calculate D2E/DX2 analytically  !
 ! R14   R(10,14)                1.3904         calculate D2E/DX2 analytically  !
 ! R15   R(10,15)                1.086          calculate D2E/DX2 analytically  !
 ! R16   R(12,14)                1.4085         calculate D2E/DX2 analytically  !
 ! R17   R(12,18)                1.3642         calculate D2E/DX2 analytically  !
 ! R18   R(14,16)                1.3516         calculate D2E/DX2 analytically  !
 ! R19   R(16,17)                0.966          calculate D2E/DX2 analytically  !
 ! R20   R(18,19)                1.4275         calculate D2E/DX2 analytically  !
 ! R21   R(19,20)                1.094          calculate D2E/DX2 analytically  !
 ! R22   R(19,21)                1.0885         calculate D2E/DX2 analytically  !
 ! R23   R(19,22)                1.0915         calculate D2E/DX2 analytically  !
 ! R24   R(23,24)                1.0874         calculate D2E/DX2 analytically  !
 ! R25   R(23,25)                1.3408         calculate D2E/DX2 analytically  !
 ! R26   R(23,29)                1.4622         calculate D2E/DX2 analytically  !
 ! R27   R(25,26)                1.0858         calculate D2E/DX2 analytically  !
 ! R28   R(25,27)                1.4697         calculate D2E/DX2 analytically  !
 ! R29   R(27,28)                1.2164         calculate D2E/DX2 analytically  !
 ! R30   R(27,45)                1.5216         calculate D2E/DX2 analytically  !
 ! R31   R(28,50)                2.7376         calculate D2E/DX2 analytically  !
 ! R32   R(29,30)                1.3968         calculate D2E/DX2 analytically  !
 ! R33   R(29,31)                1.4043         calculate D2E/DX2 analytically  !
 ! R34   R(30,32)                1.3894         calculate D2E/DX2 analytically  !
 ! R35   R(30,33)                1.0849         calculate D2E/DX2 analytically  !
 ! R36   R(31,34)                1.3805         calculate D2E/DX2 analytically  !
 ! R37   R(31,35)                1.0844         calculate D2E/DX2 analytically  !
 ! R38   R(32,36)                1.3903         calculate D2E/DX2 analytically  !
 ! R39   R(32,37)                1.086          calculate D2E/DX2 analytically  !
 ! R40   R(34,36)                1.4081         calculate D2E/DX2 analytically  !
 ! R41   R(34,40)                1.3646         calculate D2E/DX2 analytically  !
 ! R42   R(36,38)                1.3521         calculate D2E/DX2 analytically  !
 ! R43   R(38,39)                0.9659         calculate D2E/DX2 analytically  !
 ! R44   R(40,41)                1.4271         calculate D2E/DX2 analytically  !
 ! R45   R(41,42)                1.094          calculate D2E/DX2 analytically  !
 ! R46   R(41,43)                1.0886         calculate D2E/DX2 analytically  !
 ! R47   R(41,44)                1.0916         calculate D2E/DX2 analytically  !
 ! R48   R(45,46)                1.0934         calculate D2E/DX2 analytically  !
 ! R49   R(45,47)                1.0894         calculate D2E/DX2 analytically  !
 ! R50   R(47,48)                2.7084         calculate D2E/DX2 analytically  !
 ! R51   R(47,50)                2.7279         calculate D2E/DX2 analytically  !
 ! R52   R(48,50)                1.1833         calculate D2E/DX2 analytically  !
 ! R53   R(49,50)                1.1795         calculate D2E/DX2 analytically  !
 ! A1    A(2,1,3)              119.336          calculate D2E/DX2 analytically  !
 ! A2    A(2,1,7)              114.2276         calculate D2E/DX2 analytically  !
 ! A3    A(3,1,7)              126.4362         calculate D2E/DX2 analytically  !
 ! A4    A(1,3,4)              121.6325         calculate D2E/DX2 analytically  !
 ! A5    A(1,3,5)              125.0789         calculate D2E/DX2 analytically  !
 ! A6    A(4,3,5)              113.2873         calculate D2E/DX2 analytically  !
 ! A7    A(3,5,6)              120.0372         calculate D2E/DX2 analytically  !
 ! A8    A(3,5,45)             119.3698         calculate D2E/DX2 analytically  !
 ! A9    A(6,5,45)             120.5887         calculate D2E/DX2 analytically  !
 ! A10   A(1,7,8)              118.8296         calculate D2E/DX2 analytically  !
 ! A11   A(1,7,9)              122.909          calculate D2E/DX2 analytically  !
 ! A12   A(8,7,9)              118.2612         calculate D2E/DX2 analytically  !
 ! A13   A(7,8,10)             121.0604         calculate D2E/DX2 analytically  !
 ! A14   A(7,8,11)             119.5101         calculate D2E/DX2 analytically  !
 ! A15   A(10,8,11)            119.4282         calculate D2E/DX2 analytically  !
 ! A16   A(7,9,12)             121.2275         calculate D2E/DX2 analytically  !
 ! A17   A(7,9,13)             121.4237         calculate D2E/DX2 analytically  !
 ! A18   A(12,9,13)            117.3468         calculate D2E/DX2 analytically  !
 ! A19   A(8,10,14)            120.1564         calculate D2E/DX2 analytically  !
 ! A20   A(8,10,15)            120.3496         calculate D2E/DX2 analytically  !
 ! A21   A(14,10,15)           119.4917         calculate D2E/DX2 analytically  !
 ! A22   A(9,12,14)            119.7895         calculate D2E/DX2 analytically  !
 ! A23   A(9,12,18)            119.9269         calculate D2E/DX2 analytically  !
 ! A24   A(14,12,18)           120.2607         calculate D2E/DX2 analytically  !
 ! A25   A(10,14,12)           119.4983         calculate D2E/DX2 analytically  !
 ! A26   A(10,14,16)           123.3295         calculate D2E/DX2 analytically  !
 ! A27   A(12,14,16)           117.1709         calculate D2E/DX2 analytically  !
 ! A28   A(14,16,17)           109.9002         calculate D2E/DX2 analytically  !
 ! A29   A(12,18,19)           113.7956         calculate D2E/DX2 analytically  !
 ! A30   A(18,19,20)           110.3462         calculate D2E/DX2 analytically  !
 ! A31   A(18,19,21)           106.4784         calculate D2E/DX2 analytically  !
 ! A32   A(18,19,22)           111.1849         calculate D2E/DX2 analytically  !
 ! A33   A(20,19,21)           109.4705         calculate D2E/DX2 analytically  !
 ! A34   A(20,19,22)           109.798          calculate D2E/DX2 analytically  !
 ! A35   A(21,19,22)           109.4967         calculate D2E/DX2 analytically  !
 ! A36   A(24,23,25)           118.8883         calculate D2E/DX2 analytically  !
 ! A37   A(24,23,29)           114.3169         calculate D2E/DX2 analytically  !
 ! A38   A(25,23,29)           126.7876         calculate D2E/DX2 analytically  !
 ! A39   A(23,25,26)           122.0272         calculate D2E/DX2 analytically  !
 ! A40   A(23,25,27)           123.9613         calculate D2E/DX2 analytically  !
 ! A41   A(26,25,27)           113.9489         calculate D2E/DX2 analytically  !
 ! A42   A(25,27,28)           120.3442         calculate D2E/DX2 analytically  !
 ! A43   A(25,27,45)           120.7416         calculate D2E/DX2 analytically  !
 ! A44   A(28,27,45)           118.9138         calculate D2E/DX2 analytically  !
 ! A45   A(27,28,50)           104.1249         calculate D2E/DX2 analytically  !
 ! A46   A(23,29,30)           118.8519         calculate D2E/DX2 analytically  !
 ! A47   A(23,29,31)           122.9409         calculate D2E/DX2 analytically  !
 ! A48   A(30,29,31)           118.2065         calculate D2E/DX2 analytically  !
 ! A49   A(29,30,32)           121.1046         calculate D2E/DX2 analytically  !
 ! A50   A(29,30,33)           119.5196         calculate D2E/DX2 analytically  !
 ! A51   A(32,30,33)           119.3748         calculate D2E/DX2 analytically  !
 ! A52   A(29,31,34)           121.2383         calculate D2E/DX2 analytically  !
 ! A53   A(29,31,35)           121.4668         calculate D2E/DX2 analytically  !
 ! A54   A(34,31,35)           117.2904         calculate D2E/DX2 analytically  !
 ! A55   A(30,32,36)           120.1522         calculate D2E/DX2 analytically  !
 ! A56   A(30,32,37)           120.3267         calculate D2E/DX2 analytically  !
 ! A57   A(36,32,37)           119.5187         calculate D2E/DX2 analytically  !
 ! A58   A(31,34,36)           119.83           calculate D2E/DX2 analytically  !
 ! A59   A(31,34,40)           119.9449         calculate D2E/DX2 analytically  !
 ! A60   A(36,34,40)           120.2009         calculate D2E/DX2 analytically  !
 ! A61   A(32,36,34)           119.4649         calculate D2E/DX2 analytically  !
 ! A62   A(32,36,38)           123.3584         calculate D2E/DX2 analytically  !
 ! A63   A(34,36,38)           117.1747         calculate D2E/DX2 analytically  !
 ! A64   A(36,38,39)           109.8557         calculate D2E/DX2 analytically  !
 ! A65   A(34,40,41)           113.7059         calculate D2E/DX2 analytically  !
 ! A66   A(40,41,42)           110.3553         calculate D2E/DX2 analytically  !
 ! A67   A(40,41,43)           106.5042         calculate D2E/DX2 analytically  !
 ! A68   A(40,41,44)           111.1836         calculate D2E/DX2 analytically  !
 ! A69   A(42,41,43)           109.4619         calculate D2E/DX2 analytically  !
 ! A70   A(42,41,44)           109.784          calculate D2E/DX2 analytically  !
 ! A71   A(43,41,44)           109.4866         calculate D2E/DX2 analytically  !
 ! A72   A(5,45,27)            110.8911         calculate D2E/DX2 analytically  !
 ! A73   A(5,45,46)            108.1208         calculate D2E/DX2 analytically  !
 ! A74   A(5,45,47)            111.0052         calculate D2E/DX2 analytically  !
 ! A75   A(27,45,46)           112.5961         calculate D2E/DX2 analytically  !
 ! A76   A(27,45,47)           106.8282         calculate D2E/DX2 analytically  !
 ! A77   A(46,45,47)           107.3664         calculate D2E/DX2 analytically  !
 ! A78   A(45,47,48)           124.574          calculate D2E/DX2 analytically  !
 ! A79   A(45,47,50)            99.4539         calculate D2E/DX2 analytically  !
 ! A80   A(28,50,47)            54.0456         calculate D2E/DX2 analytically  !
 ! A81   A(28,50,48)           101.2638         calculate D2E/DX2 analytically  !
 ! A82   A(28,50,49)            97.0639         calculate D2E/DX2 analytically  !
 ! A83   A(47,50,49)           144.6216         calculate D2E/DX2 analytically  !
 ! A84   A(48,50,49)           134.6602         calculate D2E/DX2 analytically  !
 ! D1    D(2,1,3,4)            179.2296         calculate D2E/DX2 analytically  !
 ! D2    D(2,1,3,5)             -0.3264         calculate D2E/DX2 analytically  !
 ! D3    D(7,1,3,4)             -0.632          calculate D2E/DX2 analytically  !
 ! D4    D(7,1,3,5)            179.8119         calculate D2E/DX2 analytically  !
 ! D5    D(2,1,7,8)             -3.0193         calculate D2E/DX2 analytically  !
 ! D6    D(2,1,7,9)            176.8468         calculate D2E/DX2 analytically  !
 ! D7    D(3,1,7,8)            176.8484         calculate D2E/DX2 analytically  !
 ! D8    D(3,1,7,9)             -3.2854         calculate D2E/DX2 analytically  !
 ! D9    D(1,3,5,6)            178.3635         calculate D2E/DX2 analytically  !
 ! D10   D(1,3,5,45)            -2.3902         calculate D2E/DX2 analytically  !
 ! D11   D(4,3,5,6)             -1.225          calculate D2E/DX2 analytically  !
 ! D12   D(4,3,5,45)           178.0213         calculate D2E/DX2 analytically  !
 ! D13   D(3,5,45,27)          155.211          calculate D2E/DX2 analytically  !
 ! D14   D(3,5,45,46)          -80.8962         calculate D2E/DX2 analytically  !
 ! D15   D(3,5,45,47)           36.6244         calculate D2E/DX2 analytically  !
 ! D16   D(6,5,45,27)          -25.547          calculate D2E/DX2 analytically  !
 ! D17   D(6,5,45,46)           98.3458         calculate D2E/DX2 analytically  !
 ! D18   D(6,5,45,47)         -144.1336         calculate D2E/DX2 analytically  !
 ! D19   D(1,7,8,10)          -179.3796         calculate D2E/DX2 analytically  !
 ! D20   D(1,7,8,11)             0.1998         calculate D2E/DX2 analytically  !
 ! D21   D(9,7,8,10)             0.748          calculate D2E/DX2 analytically  !
 ! D22   D(9,7,8,11)          -179.6726         calculate D2E/DX2 analytically  !
 ! D23   D(1,7,9,12)           179.2435         calculate D2E/DX2 analytically  !
 ! D24   D(1,7,9,13)            -0.2286         calculate D2E/DX2 analytically  !
 ! D25   D(8,7,9,12)            -0.8897         calculate D2E/DX2 analytically  !
 ! D26   D(8,7,9,13)           179.6383         calculate D2E/DX2 analytically  !
 ! D27   D(7,8,10,14)           -0.0671         calculate D2E/DX2 analytically  !
 ! D28   D(7,8,10,15)          179.3776         calculate D2E/DX2 analytically  !
 ! D29   D(11,8,10,14)        -179.6468         calculate D2E/DX2 analytically  !
 ! D30   D(11,8,10,15)          -0.2021         calculate D2E/DX2 analytically  !
 ! D31   D(7,9,12,14)            0.3479         calculate D2E/DX2 analytically  !
 ! D32   D(7,9,12,18)         -177.9184         calculate D2E/DX2 analytically  !
 ! D33   D(13,9,12,14)         179.8408         calculate D2E/DX2 analytically  !
 ! D34   D(13,9,12,18)           1.5744         calculate D2E/DX2 analytically  !
 ! D35   D(8,10,14,12)          -0.4915         calculate D2E/DX2 analytically  !
 ! D36   D(8,10,14,16)         179.0696         calculate D2E/DX2 analytically  !
 ! D37   D(15,10,14,12)       -179.941          calculate D2E/DX2 analytically  !
 ! D38   D(15,10,14,16)         -0.3798         calculate D2E/DX2 analytically  !
 ! D39   D(9,12,14,10)           0.3521         calculate D2E/DX2 analytically  !
 ! D40   D(9,12,14,16)        -179.2357         calculate D2E/DX2 analytically  !
 ! D41   D(18,12,14,10)        178.6126         calculate D2E/DX2 analytically  !
 ! D42   D(18,12,14,16)         -0.9752         calculate D2E/DX2 analytically  !
 ! D43   D(9,12,18,19)        -107.8515         calculate D2E/DX2 analytically  !
 ! D44   D(14,12,18,19)         73.8904         calculate D2E/DX2 analytically  !
 ! D45   D(10,14,16,17)          0.1129         calculate D2E/DX2 analytically  !
 ! D46   D(12,14,16,17)        179.6836         calculate D2E/DX2 analytically  !
 ! D47   D(12,18,19,20)         60.1829         calculate D2E/DX2 analytically  !
 ! D48   D(12,18,19,21)        178.8958         calculate D2E/DX2 analytically  !
 ! D49   D(12,18,19,22)        -61.9003         calculate D2E/DX2 analytically  !
 ! D50   D(24,23,25,26)        177.7582         calculate D2E/DX2 analytically  !
 ! D51   D(24,23,25,27)          0.8122         calculate D2E/DX2 analytically  !
 ! D52   D(29,23,25,26)         -1.2082         calculate D2E/DX2 analytically  !
 ! D53   D(29,23,25,27)       -178.1542         calculate D2E/DX2 analytically  !
 ! D54   D(24,23,29,30)          0.4795         calculate D2E/DX2 analytically  !
 ! D55   D(24,23,29,31)       -179.83           calculate D2E/DX2 analytically  !
 ! D56   D(25,23,29,30)        179.4864         calculate D2E/DX2 analytically  !
 ! D57   D(25,23,29,31)         -0.8231         calculate D2E/DX2 analytically  !
 ! D58   D(23,25,27,28)        171.2781         calculate D2E/DX2 analytically  !
 ! D59   D(23,25,27,45)         -8.9719         calculate D2E/DX2 analytically  !
 ! D60   D(26,25,27,28)         -5.889          calculate D2E/DX2 analytically  !
 ! D61   D(26,25,27,45)        173.861          calculate D2E/DX2 analytically  !
 ! D62   D(25,27,28,50)       -149.5798         calculate D2E/DX2 analytically  !
 ! D63   D(45,27,28,50)         30.6657         calculate D2E/DX2 analytically  !
 ! D64   D(25,27,45,5)          88.4927         calculate D2E/DX2 analytically  !
 ! D65   D(25,27,45,46)        -32.8019         calculate D2E/DX2 analytically  !
 ! D66   D(25,27,45,47)       -150.424          calculate D2E/DX2 analytically  !
 ! D67   D(28,27,45,5)         -91.7539         calculate D2E/DX2 analytically  !
 ! D68   D(28,27,45,46)        146.9516         calculate D2E/DX2 analytically  !
 ! D69   D(28,27,45,47)         29.3295         calculate D2E/DX2 analytically  !
 ! D70   D(27,28,50,47)        -42.2128         calculate D2E/DX2 analytically  !
 ! D71   D(27,28,50,48)       -106.215          calculate D2E/DX2 analytically  !
 ! D72   D(27,28,50,49)        115.4653         calculate D2E/DX2 analytically  !
 ! D73   D(23,29,30,32)       -179.8476         calculate D2E/DX2 analytically  !
 ! D74   D(23,29,30,33)         -0.2138         calculate D2E/DX2 analytically  !
 ! D75   D(31,29,30,32)          0.4472         calculate D2E/DX2 analytically  !
 ! D76   D(31,29,30,33)       -179.919          calculate D2E/DX2 analytically  !
 ! D77   D(23,29,31,34)        179.6554         calculate D2E/DX2 analytically  !
 ! D78   D(23,29,31,35)          0.4511         calculate D2E/DX2 analytically  !
 ! D79   D(30,29,31,34)         -0.6523         calculate D2E/DX2 analytically  !
 ! D80   D(30,29,31,35)       -179.8566         calculate D2E/DX2 analytically  !
 ! D81   D(29,30,32,36)          0.0837         calculate D2E/DX2 analytically  !
 ! D82   D(29,30,32,37)        179.5074         calculate D2E/DX2 analytically  !
 ! D83   D(33,30,32,36)       -179.5506         calculate D2E/DX2 analytically  !
 ! D84   D(33,30,32,37)         -0.1269         calculate D2E/DX2 analytically  !
 ! D85   D(29,31,34,36)          0.3243         calculate D2E/DX2 analytically  !
 ! D86   D(29,31,34,40)       -177.8884         calculate D2E/DX2 analytically  !
 ! D87   D(35,31,34,36)        179.5606         calculate D2E/DX2 analytically  !
 ! D88   D(35,31,34,40)          1.3479         calculate D2E/DX2 analytically  !
 ! D89   D(30,32,36,34)         -0.422          calculate D2E/DX2 analytically  !
 ! D90   D(30,32,36,38)        179.0512         calculate D2E/DX2 analytically  !
 ! D91   D(37,32,36,34)       -179.8504         calculate D2E/DX2 analytically  !
 ! D92   D(37,32,36,38)         -0.3772         calculate D2E/DX2 analytically  !
 ! D93   D(31,34,36,32)          0.2202         calculate D2E/DX2 analytically  !
 ! D94   D(31,34,36,38)       -179.2852         calculate D2E/DX2 analytically  !
 ! D95   D(40,34,36,32)        178.4283         calculate D2E/DX2 analytically  !
 ! D96   D(40,34,36,38)         -1.0771         calculate D2E/DX2 analytically  !
 ! D97   D(31,34,40,41)       -107.4131         calculate D2E/DX2 analytically  !
 ! D98   D(36,34,40,41)         74.3809         calculate D2E/DX2 analytically  !
 ! D99   D(32,36,38,39)          0.0271         calculate D2E/DX2 analytically  !
 ! D100  D(34,36,38,39)        179.5115         calculate D2E/DX2 analytically  !
 ! D101  D(34,40,41,42)         60.617          calculate D2E/DX2 analytically  !
 ! D102  D(34,40,41,43)        179.3396         calculate D2E/DX2 analytically  !
 ! D103  D(34,40,41,44)        -61.4537         calculate D2E/DX2 analytically  !
 ! D104  D(5,45,47,48)          52.0603         calculate D2E/DX2 analytically  !
 ! D105  D(5,45,47,50)          50.9643         calculate D2E/DX2 analytically  !
 ! D106  D(27,45,47,48)        -68.9505         calculate D2E/DX2 analytically  !
 ! D107  D(27,45,47,50)        -70.0464         calculate D2E/DX2 analytically  !
 ! D108  D(46,45,47,48)        170.0397         calculate D2E/DX2 analytically  !
 ! D109  D(46,45,47,50)        168.9438         calculate D2E/DX2 analytically  !
 ! D110  D(45,47,50,28)         62.9037         calculate D2E/DX2 analytically  !
 ! D111  D(45,47,50,49)         22.2847         calculate D2E/DX2 analytically  !
 --------------------------------------------------------------------------------
 Trust Radius=3.00D-01 FncErr=1.00D-07 GrdErr=1.00D-06 EigMax=2.50D+02 EigMin=1.00D-04
 Number of steps in this run=    258 maximum allowed number of steps=    300.
 GradGradGradGradGradGradGradGradGradGradGradGradGradGradGradGradGradGrad

                          Input orientation:                          
 ---------------------------------------------------------------------
 Center     Atomic      Atomic             Coordinates (Angstroms)
 Number     Number       Type             X           Y           Z
 ---------------------------------------------------------------------
      1          6           0       -2.772759    0.227727   -0.541623
      2          1           0       -2.402195    0.686179   -1.455269
      3          6           0       -1.939301    0.065683    0.497513
      4          1           0       -2.272950   -0.376351    1.431765
      5          6           0       -0.518050    0.458945    0.513383
      6          8           0        0.146135    0.296408    1.516159
      7          6           0       -4.183364   -0.153964   -0.591200
      8          6           0       -4.923461    0.149768   -1.736171
      9          6           0       -4.831739   -0.817637    0.463045
     10          6           0       -6.269819   -0.180005   -1.827735
     11          1           0       -4.441461    0.657383   -2.564955
     12          6           0       -6.169730   -1.148130    0.385433
     13          1           0       -4.304896   -1.083367    1.372996
     14          6           0       -6.904559   -0.824126   -0.771631
     15          1           0       -6.836730    0.070627   -2.719434
     16          8           0       -8.214163   -1.157991   -0.784692
     17          1           0       -8.614834   -0.884725   -1.620108
     18          8           0       -6.783341   -1.754670    1.442091
     19          6           0       -7.084652   -3.132221    1.219957
     20          1           0       -6.167370   -3.695572    1.024911
     21          1           0       -7.547783   -3.498355    2.134486
     22          1           0       -7.778157   -3.254808    0.386083
     23          6           0        2.901960    0.023760   -0.311251
     24          1           0        2.070210   -0.666881   -0.428022
     25          6           0        2.651965    1.340889   -0.288612
     26          1           0        3.438926    2.073881   -0.138869
     27          6           0        1.306771    1.923231   -0.395724
     28          8           0        1.135695    3.113159   -0.210077
     29          6           0        4.206261   -0.622488   -0.172355
     30          6           0        4.274932   -2.017048   -0.210145
     31          6           0        5.401210    0.096705   -0.008053
     32          6           0        5.489128   -2.679684   -0.079678
     33          1           0        3.364897   -2.593817   -0.337572
     34          6           0        6.613315   -0.550105    0.126872
     35          1           0        5.408889    1.180413    0.030831
     36          6           0        6.664036   -1.956908    0.093736
     37          1           0        5.526917   -3.764793   -0.102921
     38          8           0        7.876929   -2.534860    0.245828
     39          1           0        7.788587   -3.496196    0.213909
     40          8           0        7.752705    0.173299    0.328313
     41          6           0        8.613999    0.215678   -0.808802
     42          1           0        8.101503    0.678545   -1.657335
     43          1           0        9.470193    0.825425   -0.525683
     44          1           0        8.954166   -0.784549   -1.083486
     45          6           0        0.108185    1.053337   -0.745032
     46          1           0        0.367707    0.230654   -1.416889
     47          1           0       -0.601696    1.690880   -1.270728
     48          8           0       -1.993892    3.711762   -0.124815
     49          8           0       -1.108705    3.684428    1.867451
     50          7           0       -1.402970    3.273244    0.801808
 ---------------------------------------------------------------------
                    Distance matrix (angstroms):
                    1          2          3          4          5
     1  C    0.000000
     2  H    1.087311   0.000000
     3  C    1.341907   2.100629   0.000000
     4  H    2.123436   3.079065   1.086067   0.000000
     5  C    2.500042   2.734452   1.474741   2.149609   0.000000
     6  O    3.571992   3.933865   2.332363   2.512310   1.213721
     7  C    1.462174   2.150586   2.503869   2.791330   3.876892
     8  C    2.461410   2.592957   3.728488   4.163872   4.956181
     9  C    2.518242   3.441522   3.024507   2.771381   4.498901
    10  C    3.748301   3.980895   4.921435   5.161187   6.242751
    11  H    2.657639   2.321818   3.998703   4.663134   4.990861
    12  C    3.780453   4.576810   4.402549   4.107962   5.877121
    13  H    2.780679   3.840657   2.771791   2.152238   4.178261
    14  C    4.269786   4.797881   5.201565   5.148520   6.639656
    15  H    4.613394   4.652109   5.859487   6.185494   7.108278
    16  O    5.620336   6.134298   6.520377   6.389183   7.970548
    17  H    6.044048   6.410288   7.067555   7.056335   8.480280
    18  O    4.893852   5.791967   5.260289   4.716301   6.709431
    19  C    5.743243   6.607754   6.101078   5.549068   7.517711
    20  H    5.419381   6.287096   5.683463   5.133154   7.031109
    21  H    6.621639   7.541468   6.843765   6.169651   8.228326
    22  H    6.167876   6.915412   6.717910   6.299704   8.155815
    23  C    5.683055   5.466410   4.908530   5.475207   3.544838
    24  H    4.926213   4.784184   4.179646   4.733524   2.975368
    25  C    5.543534   5.228218   4.829479   5.492121   3.386741
    26  H    6.492729   6.146326   5.776086   6.410621   4.323322
    27  C    4.420247   4.050847   3.845171   4.630572   2.510096
    28  O    4.869461   4.467371   4.386729   5.146959   3.209847
    29  C    7.040309   6.857855   6.220147   6.679368   4.894778
    30  C    7.403975   7.310390   6.592059   6.947123   5.443042
    31  C    8.192413   7.958332   7.357966   7.822377   5.953214
    32  C    8.770702   8.688743   7.940513   8.236483   6.803595
    33  H    6.758222   6.728073   5.992063   6.311341   5.012061
    34  C    9.441943   9.236395   8.582762   8.983242   7.212762
    35  H    8.256796   7.966542   7.446899   7.962210   5.990157
    36  C    9.707183   9.569842   8.847108   9.173778   7.589124
    37  H    9.220482   9.192976   8.412935   8.641454   7.400096
    38  O   11.030314  10.905467  10.157979  10.444408   8.916845
    39  H   11.224102  11.141385  10.363359  10.604298   9.205055
    40  O   10.561493  10.323091   9.694080  10.101162   8.277755
    41  C   11.389898  11.045172  10.634900  11.130871   9.230475
    42  H   10.940641  10.505644  10.287697  10.875873   8.891397
    43  H   12.257543  11.909539  11.480448  11.965671  10.048829
    44  H   11.783000  11.457233  11.040384  11.512656   9.686028
    45  C    3.003805   2.634625   2.590671   3.528776   1.526133
    46  H    3.260157   2.807371   3.002405   3.931457   2.136032
    47  H    2.717706   2.070091   2.749023   3.790779   2.169726
    48  O    3.594282   3.330311   3.699211   4.383319   3.628529
    49  O    4.530066   4.658657   3.957516   4.246789   3.547691
    50  N    3.599486   3.575717   3.266297   3.804373   2.964212
                    6          7          8          9         10
     6  O    0.000000
     7  C    4.836151   0.000000
     8  C    6.024945   1.396766   0.000000
     9  C    5.208587   1.404380   2.404337   0.000000
    10  C    7.250728   2.425488   1.389177   2.778907   0.000000
    11  H    6.150759   2.149560   1.084841   3.390691   2.141870
    12  C    6.576882   2.426485   2.781893   1.380387   2.417725
    13  H    4.662183   2.176379   3.401494   1.084521   3.862857
    14  C    7.496790   2.808305   2.409057   2.412685   1.390375
    15  H    8.170167   3.408837   2.152596   3.864864   1.085970
    16  O    8.792257   4.158467   3.666642   3.621254   2.413477
    17  H    9.380076   4.607666   3.835346   4.319240   2.457404
    18  O    7.227036   3.668298   4.145767   2.375987   3.665384
    19  C    8.007966   4.535171   4.917407   3.317504   4.320643
    20  H    7.485825   4.369334   4.894642   3.222129   4.528498
    21  H    8.601100   5.471164   5.931092   4.166156   5.323893
    22  H    8.756861   4.846943   4.923859   3.824540   4.078049
    23  C    3.317881   7.093079   7.955092   7.817774   9.298536
    24  H    2.899971   6.276695   7.161676   6.960864   8.470675
    25  C    3.259958   7.003418   7.803927   7.824963   9.180427
    26  H    4.091577   7.954068   8.728293   8.782202  10.109006
    27  C    2.765669   5.873205   6.614965   6.777252   7.992432
    28  O    3.448653   6.253938   6.915491   7.177362   8.264586
    29  C    4.492224   8.413130   9.294822   9.062409  10.615287
    30  C    5.037774   8.669432   9.572580   9.209953  10.825114
    31  C    5.475301   9.605569  10.468431  10.284513  11.815275
    32  C    6.320711  10.009896  10.916583  10.501527  12.148125
    33  H    4.706394   7.936842   8.841958   8.425001  10.043646
    34  C    6.668667  10.827781  11.707175  11.453115  13.035820
    35  H    5.539336   9.704576  10.532900  10.442676  11.903664
    36  C    7.041573  11.017524  11.918755  11.557992  13.195986
    37  H    6.933079  10.371406  11.278373  10.784609  12.449445
    38  O    8.330366  12.321524  13.228210  12.826000  14.490531
    39  H    8.630572  12.455775  13.367574  12.903851  14.587810
    40  O    7.699743  11.975907  12.843202  12.624117  14.191707
    41  C    8.781610  12.804549  13.569347  13.545228  14.923901
    42  H    8.573504  12.359113  13.035931  13.191032  14.397953
    43  H    9.559657  13.688795  14.460258  14.429917  15.825745
    44  H    9.247055  13.161865  13.924348  13.872420  15.254150
    45  C    2.384820   4.460788   5.207327   5.418749   6.585766
    46  H    2.942140   4.641330   5.301409   5.627371   6.662896
    47  H    3.204769   4.085775   4.611867   5.214584   5.994838
    48  O    4.351684   4.467118   4.885350   5.377212   6.027382
    49  O    3.629974   5.498340   6.327106   6.008488   7.431375
    50  N    3.430973   4.627831   5.347083   5.348507   6.521169
                   11         12         13         14         15
    11  H    0.000000
    12  C    3.866727   0.000000
    13  H    4.307705   2.111180   0.000000
    14  C    3.387880   1.408456   3.380071   0.000000
    15  H    2.470923   3.401537   4.948724   2.144556   0.000000
    16  O    4.549527   2.355631   4.465821   1.351554   2.673958
    17  H    4.548393   3.173344   5.251066   1.910138   2.298449
    18  O    5.230566   1.364161   2.568679   2.404407   4.544541
    19  C    5.972698   2.338831   3.456627   3.053876   5.083159
    20  H    5.900349   2.626480   3.227009   3.466441   5.352795
    21  H    7.000296   3.237557   4.114408   4.001344   6.066611
    22  H    5.928525   2.650496   4.213395   2.830493   4.646401
    23  C    7.707561   9.173563   7.483394   9.853866  10.032130
    24  H    6.980116   8.293969   6.637703   8.982721   9.226487
    25  C    7.481017   9.190857   7.552210   9.810594   9.877135
    26  H    8.366174  10.148030   8.498278  10.760414  10.782460
    27  C    6.272966   8.120439   6.607481   8.666904   8.668816
    28  O    6.533066   8.478352   7.051027   8.970130   8.894573
    29  C    9.063427  10.404260   8.662581  11.128796  11.354104
    30  C    9.416646  10.497652   8.774483  11.256969  11.581190
    31  C   10.184806  11.644359   9.874632  12.363775  12.534729
    32  C   10.767043  11.768218  10.029028  12.550911  12.901911
    33  H    8.744756   9.670670   8.002076  10.429858  10.809520
    34  C   11.441680  12.799638  11.002024  13.550473  13.761921
    35  H   10.200052  11.815764  10.063982  12.501325  12.599634
    36  C   11.714744  12.862533  11.077773  13.643270  13.938992
    37  H   11.179705  11.995706  10.297229  12.792040  13.206678
    38  O   13.032024  14.115635  12.319667  14.914899  15.233946
    39  H   13.211676  14.155474  12.386184  14.966622  15.337100
    40  O   12.542050  13.985122  12.167839  14.732282  14.904728
    41  C   13.180448  14.894456  13.166078  15.553399  15.569091
    42  H   12.575777  14.531956  12.892090  15.107097  14.988276
    43  H   14.061329  15.790258  14.035724  16.459466  16.471126
    44  H   13.554215  15.199413  13.488007  15.861840  15.898429
    45  C    4.916114   6.748083   5.341051   7.259763   7.286688
    46  H    4.962686   6.920079   5.598511   7.376637   7.322987
    47  H    4.181738   6.465744   5.329110   6.804442   6.603001
    48  O    4.612386   6.427793   5.529687   6.716197   6.591130
    49  O    6.317950   7.152899   5.761249   7.802803   8.179813
    50  N    5.235480   6.514900   5.265690   7.037871   7.223687
                   16         17         18         19         20
    16  O    0.000000
    17  H    0.965987   0.000000
    18  O    2.713271   3.672633   0.000000
    19  C    3.031831   3.931751   1.427508   0.000000
    20  H    3.728719   4.570237   2.078596   1.093990   0.000000
    21  H    3.800390   4.697514   2.025887   1.088535   1.782019
    22  H    2.440790   3.215917   2.086918   1.091477   1.788018
    23  C   11.188783  11.626478  10.002104  10.584764   9.893003
    24  H   10.302268  10.753543   9.114054   9.623161   8.896163
    25  C   11.160790  11.561445  10.079822  10.820638  10.240701
    26  H   12.110184  12.499622  11.029596  11.819289  11.265962
    27  C   10.014660  10.383736   9.074934   9.928948   9.457903
    28  O   10.295278  10.632219   9.441215  10.422278  10.060754
    29  C   12.447034  12.905241  11.165107  11.649979  10.885289
    30  C   12.531783  13.015999  11.184102  11.503432  10.648215
    31  C   13.695102  14.142539  12.409423  12.954950  12.218037
    32  C   13.805534  14.300928  12.401005  12.648865  11.752706
    33  H   11.676307  12.168806  10.337219  10.578698   9.691973
    34  C   14.867904  15.331681  13.514850  13.982005  13.192663
    35  H   13.846326  14.270781  12.619700  13.270320  12.600524
    36  C   14.925505  15.412031  13.516320  13.844716  12.982104
    37  H   14.002768  14.511574  12.568616  12.696528  11.748751
    38  O   16.182737  16.678816  14.729673  15.005155  14.113701
    39  H   16.203469  16.710943  14.726929  14.911668  13.980923
    40  O   16.060884  16.517024  14.705584  15.227234  14.464505
    41  C   16.884152  17.282991  15.685244  16.179368  15.399651
    42  H   16.441877  16.789316  15.397583  15.919172  15.163380
    43  H   17.797120  18.198642  16.574269  17.110614  16.351671
    44  H   17.174989  17.577479  15.968369  16.372571  15.542852
    45  C    8.611215   8.978469   7.756387   8.550847   8.066438
    46  H    8.716450   9.053806   7.953161   8.590666   8.005303
    47  H    8.142601   8.424143   7.579178   8.455444   8.078400
    48  O    7.927276   8.197589   7.434776   8.635065   8.579533
    49  O    8.998356   9.454216   7.871862   9.088338   8.986900
    50  N    8.279201   8.669796   7.391771   8.572417   8.444743
                   21         22         23         24         25
    21  H    0.000000
    22  H    1.780253   0.000000
    23  C   11.295311  11.193756   0.000000
    24  H   10.348405  10.215208   1.087395   0.000000
    25  C   11.546625  11.417666   1.340835   2.094997   0.000000
    26  H   12.527000  12.429539   2.126275   3.077137   1.085821
    27  C   10.686378  10.486145   2.481885   2.700474   1.469742
    28  O   11.162969  10.971015   3.560100   3.899939   2.333706
    29  C   12.318672  12.282802   1.462234   2.151755   2.506831
    30  C   12.143647  12.131137   2.461742   2.594460   3.730405
    31  C   13.608503  13.604547   2.518631   3.443109   3.030686
    32  C   13.248917  13.287910   3.749090   3.982677   4.925257
    33  H   11.225678  11.186073   2.658329   2.323247   3.999072
    34  C   14.603403  14.645719   3.780930   4.578356   4.409170
    35  H   13.935264  13.917456   2.782006   3.843152   2.780005
    36  C   14.440101  14.503343   4.270864   4.799962   5.207530
    37  H   13.267432  13.323821   4.613777   4.653125   5.862407
    38  O   15.569749  15.672259   5.622027   6.136889   6.527427
    39  H   15.456159  15.569567   6.045247   6.412249   7.073528
    40  O   15.838189  15.904808   4.895011   5.793850   5.268910
    41  C   16.842214  16.798059   5.736879   6.614006   6.089544
    42  H   16.635040  16.486674   5.410724   6.300625   5.657700
    43  H   17.759028  17.747822   6.620448   7.549587   6.841794
    44  H   17.030397  16.977410   6.154584   6.916092   6.698287
    45  C    9.360736   9.057258   3.008882   2.628533   2.600350
    46  H    9.443133   9.041806   2.772666   2.163780   2.779112
    47  H    9.315136   8.871665   3.996935   3.661731   3.416629
    48  O    9.377416   9.069280   6.132331   5.981753   5.218415
    49  O    9.650151   9.738020   5.850869   5.857353   4.927821
    50  N    9.240634   9.134074   5.507310   5.394446   4.622284
                   26         27         28         29         30
    26  H    0.000000
    27  C    2.152848   0.000000
    28  O    2.527853   1.216413   0.000000
    29  C    2.803628   3.864922   4.835789   0.000000
    30  C    4.176085   4.936620   6.014469   1.396761   0.000000
    31  C    2.788709   4.500102   5.228234   1.404328   2.403600
    32  C    5.177182   6.227264   7.247511   2.426189   1.389381
    33  H    4.672512   4.964170   6.128227   2.149727   1.084926
    34  C    4.127065   5.877917   6.598285   2.426661   2.780924
    35  H    2.169755   4.190597   4.696140   2.176706   3.401130
    36  C    5.167465   6.632898   7.507359   2.809295   2.409103
    37  H    6.200896   7.088652   8.160915   3.409257   2.152574
    38  O    6.409708   7.965748   8.806373   4.160030   3.667482
    39  H    7.075999   8.470878   9.387455   4.608737   3.835814
    40  O    4.736999   6.718375   7.260679   3.668952   4.145173
    41  C    5.539234   7.515448   8.042319   4.531638   4.916397
    42  H    5.098267   7.022057   7.519600   4.367008   4.899309
    43  H    6.171260   8.237932   8.648537   5.470857   5.930426
    44  H    6.283375   8.141728   8.779719   4.837254   4.917012
    45  C    3.535927   1.521624   2.363222   4.464367   5.203379
    46  H    3.803052   2.188478   3.217924   4.124465   4.666348
    47  H    4.213599   2.112313   2.483221   5.447435   6.217320
    48  O    5.674360   3.763856   3.187461   7.565043   8.492626
    49  O    5.224953   3.749440   3.111238   7.138571   8.112138
    50  N    5.076150   3.255659   2.737583   6.898492   7.826226
                   31         32         33         34         35
    31  C    0.000000
    32  C    2.778704   0.000000
    33  H    3.390289   2.141551   0.000000
    34  C    1.380495   2.416933   3.865836   0.000000
    35  H    1.084433   3.862512   4.307950   2.110582   0.000000
    36  C    2.412968   1.390283   3.387624   1.408107   3.379665
    37  H    3.864708   1.086016   2.469934   3.401071   4.948422
    38  O    3.621985   2.414233   4.549974   2.355870   4.465501
    39  H    4.319465   2.457722   4.548346   3.173057   5.250443
    40  O    2.376665   3.664662   5.230028   1.364588   2.568316
    41  C    3.313211   4.321986   5.972302   2.337658   3.450859
    42  H    3.217181   4.537753   5.906400   2.628246   3.217444
    43  H    4.166005   5.322930   7.000089   3.237231   4.114598
    44  H    3.815319   4.075004   5.921973   2.645659   4.203780
    45  C    5.429033   6.582757   4.906519   6.756327   5.358692
    46  H    5.228663   6.040460   4.257430   6.480772   5.330239
    47  H    6.338030   7.590689   5.912975   7.683208   6.171042
    48  O    8.232242   9.841149   8.277814   9.607855   7.825159
    49  O    7.666046   9.371480   8.018204   8.977220   7.219577
    50  N    7.552691   9.149611   7.645466   8.906984   7.167689
                   36         37         38         39         40
    36  C    0.000000
    37  H    2.144799   0.000000
    38  O    1.352135   2.675242   0.000000
    39  H    1.910095   2.299495   0.965914   0.000000
    40  O    2.403749   4.544080   2.712261   3.671453   0.000000
    41  C    3.055660   5.086501   3.036606   3.937671   1.427114
    42  H    3.475367   5.365440   3.741448   4.585622   2.078396
    43  H    3.999947   6.066156   3.798057   4.695871   2.025918
    44  H    2.829306   4.646439   2.447673   3.224103   2.086662
    45  C    7.262526   7.279378   8.614543   8.978106   7.769506
    46  H    6.834557   6.656392   8.173195   8.462764   7.588624
    47  H    8.243724   8.287825   9.593951   9.975307   8.640370
    48  O   10.350908  10.604807  11.687205  12.155916  10.378931
    49  O    9.766588  10.168812  11.047661  11.552375   9.655131
    50  N    9.640147   9.918459  10.961739  11.430471   9.677822
                   41         42         43         44         45
    41  C    0.000000
    42  H    1.094032   0.000000
    43  H    1.088584   1.782000   0.000000
    44  H    1.091613   1.788010   1.780293   0.000000
    45  C    8.547199   8.053937   9.367350   9.041225   0.000000
    46  H    8.268696   7.750485   9.165329   8.652692   1.093412
    47  H    9.344444   8.770402  10.136422   9.873060   1.089380
    48  O   11.190076  10.652043  11.828647  11.874167   3.445377
    49  O   10.664217  10.309577  11.216687  11.399174   3.902375
    50  N   10.596341  10.154548  11.224069  11.282300   3.099079
                   46         47         48         49         50
    46  H    0.000000
    47  H    1.758797   0.000000
    48  O    4.400536   2.708374   0.000000
    49  O    4.989513   3.752261   2.180236   0.000000
    50  N    4.161162   2.727879   1.183265   1.179517   0.000000
 Stoichiometry    C21H20NO8(2)
 Framework group  C1[X(C21H20NO8)]
 Deg. of freedom   144
 Full point group                 C1      NOp   1
 Largest Abelian subgroup         C1      NOp   1
 Largest concise Abelian subgroup C1      NOp   1
                         Standard orientation:                         
 ---------------------------------------------------------------------
 Center     Atomic      Atomic             Coordinates (Angstroms)
 Number     Number       Type             X           Y           Z
 ---------------------------------------------------------------------
      1          6           0        2.772759    0.227727    0.541623
      2          1           0        2.402195    0.686179    1.455269
      3          6           0        1.939301    0.065683   -0.497513
      4          1           0        2.272950   -0.376351   -1.431765
      5          6           0        0.518050    0.458945   -0.513383
      6          8           0       -0.146135    0.296408   -1.516159
      7          6           0        4.183364   -0.153964    0.591200
      8          6           0        4.923461    0.149768    1.736171
      9          6           0        4.831739   -0.817637   -0.463045
     10          6           0        6.269819   -0.180005    1.827735
     11          1           0        4.441461    0.657383    2.564955
     12          6           0        6.169730   -1.148130   -0.385433
     13          1           0        4.304896   -1.083367   -1.372996
     14          6           0        6.904559   -0.824126    0.771631
     15          1           0        6.836730    0.070627    2.719434
     16          8           0        8.214163   -1.157991    0.784692
     17          1           0        8.614834   -0.884725    1.620108
     18          8           0        6.783341   -1.754670   -1.442091
     19          6           0        7.084652   -3.132221   -1.219957
     20          1           0        6.167370   -3.695572   -1.024911
     21          1           0        7.547783   -3.498355   -2.134486
     22          1           0        7.778157   -3.254808   -0.386083
     23          6           0       -2.901960    0.023760    0.311251
     24          1           0       -2.070210   -0.666881    0.428022
     25          6           0       -2.651965    1.340889    0.288612
     26          1           0       -3.438926    2.073881    0.138869
     27          6           0       -1.306771    1.923231    0.395724
     28          8           0       -1.135695    3.113159    0.210077
     29          6           0       -4.206261   -0.622488    0.172355
     30          6           0       -4.274932   -2.017048    0.210145
     31          6           0       -5.401210    0.096705    0.008053
     32          6           0       -5.489128   -2.679684    0.079678
     33          1           0       -3.364897   -2.593817    0.337572
     34          6           0       -6.613315   -0.550105   -0.126872
     35          1           0       -5.408889    1.180413   -0.030831
     36          6           0       -6.664036   -1.956908   -0.093736
     37          1           0       -5.526917   -3.764793    0.102921
     38          8           0       -7.876929   -2.534860   -0.245828
     39          1           0       -7.788587   -3.496196   -0.213909
     40          8           0       -7.752705    0.173299   -0.328313
     41          6           0       -8.613999    0.215678    0.808802
     42          1           0       -8.101503    0.678545    1.657335
     43          1           0       -9.470193    0.825425    0.525683
     44          1           0       -8.954166   -0.784549    1.083486
     45          6           0       -0.108185    1.053337    0.745032
     46          1           0       -0.367707    0.230654    1.416889
     47          1           0        0.601696    1.690880    1.270728
     48          8           0        1.993892    3.711762    0.124815
     49          8           0        1.108705    3.684428   -1.867451
     50          7           0        1.402970    3.273244   -0.801808
 ---------------------------------------------------------------------
 Rotational constants (GHZ):           0.2890362           0.0448744           0.0408796
 Standard basis: 6-311G(d) (5D, 7F)
 There are   630 symmetry adapted cartesian basis functions of A   symmetry.
 There are   600 symmetry adapted basis functions of A   symmetry.
   600 basis functions,  1060 primitive gaussians,   630 cartesian basis functions
   109 alpha electrons      108 beta electrons
       nuclear repulsion energy      2614.0772217281 Hartrees.
 NAtoms=   50 NActive=   50 NUniq=   50 SFac= 1.00D+00 NAtFMM=   60 NAOKFM=F Big=F
 Integral buffers will be    131072 words long.
 Raffenetti 2 integral format.
 Two-electron integral symmetry is turned on.
 Force inversion solution in PCM.
 Using the following non-standard input for PCM:
 Eps=7
 EpsInf=1.85341
 HbondAcidity=0
 HbondBasicity=0.48
 SurfaceTensionAtInterface=60.62
 CarbonAromaticity=0
 ElectronegativeHalogenicity=0
 --- end of non-standard input.
 Force inversion solution in PCM.
 ------------------------------------------------------------------------------
 Polarizable Continuum Model (PCM)
 =================================
 Model                : PCM.
 Atomic radii         : SMD-Coulomb.
 Polarization charges : Total charges.
 Charge compensation  : None.
 Solution method      : Matrix inversion.
 Cavity type          : VdW (van der Waals Surface) (Alpha=1.000).
 Cavity algorithm     : GePol (No added spheres)
                        Default sphere list used, NSphG=   50.
                        Lebedev-Laikov grids with approx.  5.0 points / Ang**2.
                        Smoothing algorithm: York/Karplus (Gamma=1.0000).
                        Polarization charges: spherical gaussians, with
                                              point-specific exponents (IZeta= 3).
                        Self-potential: point-specific (ISelfS= 7).
                        Self-field    : sphere-specific E.n sum rule (ISelfD= 2).
 1st derivatives      : Analytical E(r).r(x)/FMM algorithm (CHGder, D1EAlg=3).
                        Cavity 1st derivative terms included.
 2nd derivatives      : Analytical E(r).r(xy)/FMM algorithm (CHGder, D2EAlg=3).
                        Cavity 2nd derivative terms included.
 Solvent              : Generic,
                        Eps                           =   7.000000
                        Eps(infinity)                 =   1.853410
                        RSolv                         =   0.000000 Ang.
                        Molar volume                  =   0.000000 cm**3/mol
                        Thermal expansion coefficient =   0.000000 K**-1
                        Absolute temperature          = 298.150000 K
                        Numeral density               =   0.000000 Ang**-3
                        Hydrogen bond acidity         =   0.000000
                        Hydrogen bond basicity        =   0.480000
                        Surface tension at interface  =  60.620000 (cal/mol)*Ang**-2
                        Carbon aromaticity            =   0.000000
                        Electronegative halogenicity  =   0.000000
 ------------------------------------------------------------------------------
 ------------------------------------------------------------------------------
 Atomic radii for non-electrostatic terms: SMD-CDS.
 ------------------------------------------------------------------------------
 Nuclear repulsion after PCM non-electrostatic terms =     2614.0734599852 Hartrees.
 One-electron integrals computed using PRISM.
 NBasis=   600 RedAO= T EigKep=  1.71D-04  NBF=   600
 NBsUse=   600 1.00D-06 EigRej= -1.00D+00 NBFU=   600
 ExpMin= 1.03D-01 ExpMax= 8.59D+03 ExpMxC= 1.30D+03 IAcc=3 IRadAn=         5 AccDes= 0.00D+00
 Harris functional with IExCor= 1009 and IRadAn=       5 diagonalized for initial guess.
 HarFok:  IExCor= 1009 AccDes= 0.00D+00 IRadAn=         5 IDoV= 1 UseB2=F ITyADJ=14
 ICtDFT=  3500011 ScaDFX=  1.000000  1.000000  1.000000  1.000000
 FoFCou: FMM=F IPFlag=           0 FMFlag=      100000 FMFlg1=           0
         NFxFlg=           0 DoJE=T BraDBF=F KetDBF=T FulRan=T
         wScrn=  0.000000 ICntrl=       500 IOpCl=  0 I1Cent=   200000004 NGrid=           0
         NMat0=    1 NMatS0=      1 NMatT0=    0 NMatD0=    1 NMtDS0=    0 NMtDT0=    0
 Petite list used in FoFCou.
 Initial guess <Sx>= 0.0000 <Sy>= 0.0000 <Sz>= 0.5000 <S**2>= 0.7500 S= 0.5000
 Requested convergence on RMS density matrix=1.00D-08 within 128 cycles.
 Requested convergence on MAX density matrix=1.00D-06.
 Requested convergence on             energy=1.00D-06.
 No special actions if energy rises.
 Inv3:  Mode=1 IEnd=    52894803.
 Iteration    1 A*A^-1 deviation from unit magnitude is 3.55D-15 for   3119.
 Iteration    1 A*A^-1 deviation from orthogonality  is 2.66D-15 for   1469    870.
 Iteration    1 A^-1*A deviation from unit magnitude is 3.33D-15 for   2833.
 Iteration    1 A^-1*A deviation from orthogonality  is 2.18D-15 for   1293   1285.
 Restarting incremental Fock formation.
 Error on total polarization charges =  0.03458
 SCF Done:  E(UM062X) =  -1468.42156611     A.U. after   21 cycles
            NFock= 21  Conv=0.93D-08     -V/T= 2.0031
 <Sx>= 0.0000 <Sy>= 0.0000 <Sz>= 0.5000 <S**2>= 0.7547 S= 0.5023
 <L.S>=  0.00000000000    
 SMD-CDS (non-electrostatic) energy       (kcal/mol) =      -2.36
 (included in total energy above)
 Annihilation of the first spin contaminant:
 S**2 before annihilation     0.7547,   after     0.7500
 DoSCS=F DFT=T ScalE2(SS,OS)=  1.000000  1.000000
 Range of M.O.s used for correlation:     1   600
 NBasis=   600 NAE=   109 NBE=   108 NFC=     0 NFV=     0
 NROrb=    600 NOA=   109 NOB=   108 NVA=   491 NVB=   492

 **** Warning!!: The largest alpha MO coefficient is  0.15764706D+02


 **** Warning!!: The largest beta MO coefficient is  0.15659647D+02

 Symmetrizing basis deriv contribution to polar:
 IMax=3 JMax=2 DiffMx= 0.00D+00
 G2DrvN: will do    26 centers at a time, making    2 passes.
 Calling FoFCou, ICntrl=  3107 FMM=F I1Cent=   0 AccDes= 0.00D+00.
 Calling FoFCou, ICntrl=  3107 FMM=F I1Cent=   0 AccDes= 0.00D+00.
 NEqPCM:  Using equilibrium solvation (IEInf=0, Eps=   7.0000, EpsInf=   1.8534)
 G2PCM: DoFxE=T DoFxN=T DoGrad=T DoDP/DQ/DG/TGxP=FFFF NFrqRd=   0 IEInf=0 SqF1=F DoCFld=F IF1Alg=4.
 End of G2Drv F.D. properties file   721 does not exist.
 End of G2Drv F.D. properties file   722 does not exist.
 End of G2Drv F.D. properties file   788 does not exist.
          IDoAtm=11111111111111111111111111111111111111111111111111
 NEqPCM:  Using equilibrium solvation (IEInf=0, Eps=   7.0000, EpsInf=   1.8534)
          Differentiating once with respect to nuclear coordinates.
 CalDSu exits because no D1Ps are significant.
          There are   153 degrees of freedom in the 1st order CPHF.  IDoFFX=6 NUNeed=     0.
    150 vectors produced by pass  0 Test12= 1.07D-13 1.00D-09 XBig12= 2.44D-01 1.33D-01.
 AX will form    50 AO Fock derivatives at one time.
    150 vectors produced by pass  1 Test12= 1.07D-13 1.00D-09 XBig12= 1.36D-02 2.95D-02.
    147 vectors produced by pass  2 Test12= 1.07D-13 1.00D-09 XBig12= 3.35D-04 3.93D-03.
    147 vectors produced by pass  3 Test12= 1.07D-13 1.00D-09 XBig12= 6.91D-06 5.96D-04.
    147 vectors produced by pass  4 Test12= 1.07D-13 1.00D-09 XBig12= 1.16D-07 4.95D-05.
    147 vectors produced by pass  5 Test12= 1.07D-13 1.00D-09 XBig12= 1.23D-09 4.95D-06.
    133 vectors produced by pass  6 Test12= 1.07D-13 1.00D-09 XBig12= 9.80D-12 3.25D-07.
     67 vectors produced by pass  7 Test12= 1.07D-13 1.00D-09 XBig12= 7.66D-14 2.38D-08.
     15 vectors produced by pass  8 Test12= 1.07D-13 1.00D-09 XBig12= 3.49D-15 2.71D-09.
      3 vectors produced by pass  9 Test12= 1.07D-13 1.00D-09 XBig12= 2.07D-15 1.98D-09.
      2 vectors produced by pass 10 Test12= 1.07D-13 1.00D-09 XBig12= 2.40D-15 2.12D-09.
 InvSVY:  IOpt=1 It=  1 EMax= 8.88D-16
 Solved reduced A of dimension  1108 with   153 vectors.
 End of Minotr F.D. properties file   721 does not exist.
 End of Minotr F.D. properties file   722 does not exist.
 End of Minotr F.D. properties file   788 does not exist.

 **********************************************************************

            Population analysis using the SCF density.

 **********************************************************************

 Orbital symmetries:
 Alpha Orbitals:
       Occupied  (A) (A) (A) (A) (A) (A) (A) (A) (A) (A) (A) (A)
                 (A) (A) (A) (A) (A) (A) (A) (A) (A) (A) (A) (A)
                 (A) (A) (A) (A) (A) (A) (A) (A) (A) (A) (A) (A)
                 (A) (A) (A) (A) (A) (A) (A) (A) (A) (A) (A) (A)
                 (A) (A) (A) (A) (A) (A) (A) (A) (A) (A) (A) (A)
                 (A) (A) (A) (A) (A) (A) (A) (A) (A) (A) (A) (A)
                 (A) (A) (A) (A) (A) (A) (A) (A) (A) (A) (A) (A)
                 (A) (A) (A) (A) (A) (A) (A) (A) (A) (A) (A) (A)
                 (A) (A) (A) (A) (A) (A) (A) (A) (A) (A) (A) (A)
                 (A)
       Virtual   (A) (A) (A) (A) (A) (A) (A) (A) (A) (A) (A) (A)
                 (A) (A) (A) (A) (A) (A) (A) (A) (A) (A) (A) (A)
                 (A) (A) (A) (A) (A) (A) (A) (A) (A) (A) (A) (A)
                 (A) (A) (A) (A) (A) (A) (A) (A) (A) (A) (A) (A)
                 (A) (A) (A) (A) (A) (A) (A) (A) (A) (A) (A) (A)
                 (A) (A) (A) (A) (A) (A) (A) (A) (A) (A) (A) (A)
                 (A) (A) (A) (A) (A) (A) (A) (A) (A) (A) (A) (A)
                 (A) (A) (A) (A) (A) (A) (A) (A) (A) (A) (A) (A)
                 (A) (A) (A) (A) (A) (A) (A) (A) (A) (A) (A) (A)
                 (A) (A) (A) (A) (A) (A) (A) (A) (A) (A) (A) (A)
                 (A) (A) (A) (A) (A) (A) (A) (A) (A) (A) (A) (A)
                 (A) (A) (A) (A) (A) (A) (A) (A) (A) (A) (A) (A)
                 (A) (A) (A) (A) (A) (A) (A) (A) (A) (A) (A) (A)
                 (A) (A) (A) (A) (A) (A) (A) (A) (A) (A) (A) (A)
                 (A) (A) (A) (A) (A) (A) (A) (A) (A) (A) (A) (A)
                 (A) (A) (A) (A) (A) (A) (A) (A) (A) (A) (A) (A)
                 (A) (A) (A) (A) (A) (A) (A) (A) (A) (A) (A) (A)
                 (A) (A) (A) (A) (A) (A) (A) (A) (A) (A) (A) (A)
                 (A) (A) (A) (A) (A) (A) (A) (A) (A) (A) (A) (A)
                 (A) (A) (A) (A) (A) (A) (A) (A) (A) (A) (A) (A)
                 (A) (A) (A) (A) (A) (A) (A) (A) (A) (A) (A) (A)
                 (A) (A) (A) (A) (A) (A) (A) (A) (A) (A) (A) (A)
                 (A) (A) (A) (A) (A) (A) (A) (A) (A) (A) (A) (A)
                 (A) (A) (A) (A) (A) (A) (A) (A) (A) (A) (A) (A)
                 (A) (A) (A) (A) (A) (A) (A) (A) (A) (A) (A) (A)
                 (A) (A) (A) (A) (A) (A) (A) (A) (A) (A) (A) (A)
                 (A) (A) (A) (A) (A) (A) (A) (A) (A) (A) (A) (A)
                 (A) (A) (A) (A) (A) (A) (A) (A) (A) (A) (A) (A)
                 (A) (A) (A) (A) (A) (A) (A) (A) (A) (A) (A) (A)
                 (A) (A) (A) (A) (A) (A) (A) (A) (A) (A) (A) (A)
                 (A) (A) (A) (A) (A) (A) (A) (A) (A) (A) (A) (A)
                 (A) (A) (A) (A) (A) (A) (A) (A) (A) (A) (A) (A)
                 (A) (A) (A) (A) (A) (A) (A) (A) (A) (A) (A) (A)
                 (A) (A) (A) (A) (A) (A) (A) (A) (A) (A) (A) (A)
                 (A) (A) (A) (A) (A) (A) (A) (A) (A) (A) (A) (A)
                 (A) (A) (A) (A) (A) (A) (A) (A) (A) (A) (A) (A)
                 (A) (A) (A) (A) (A) (A) (A) (A) (A) (A) (A) (A)
                 (A) (A) (A) (A) (A) (A) (A) (A) (A) (A) (A) (A)
                 (A) (A) (A) (A) (A) (A) (A) (A) (A) (A) (A) (A)
                 (A) (A) (A) (A) (A) (A) (A) (A) (A) (A) (A) (A)
                 (A) (A) (A) (A) (A) (A) (A) (A) (A) (A) (A)
 Beta  Orbitals:
       Occupied  (A) (A) (A) (A) (A) (A) (A) (A) (A) (A) (A) (A)
                 (A) (A) (A) (A) (A) (A) (A) (A) (A) (A) (A) (A)
                 (A) (A) (A) (A) (A) (A) (A) (A) (A) (A) (A) (A)
                 (A) (A) (A) (A) (A) (A) (A) (A) (A) (A) (A) (A)
                 (A) (A) (A) (A) (A) (A) (A) (A) (A) (A) (A) (A)
                 (A) (A) (A) (A) (A) (A) (A) (A) (A) (A) (A) (A)
                 (A) (A) (A) (A) (A) (A) (A) (A) (A) (A) (A) (A)
                 (A) (A) (A) (A) (A) (A) (A) (A) (A) (A) (A) (A)
                 (A) (A) (A) (A) (A) (A) (A) (A) (A) (A) (A) (A)
       Virtual   (A) (A) (A) (A) (A) (A) (A) (A) (A) (A) (A) (A)
                 (A) (A) (A) (A) (A) (A) (A) (A) (A) (A) (A) (A)
                 (A) (A) (A) (A) (A) (A) (A) (A) (A) (A) (A) (A)
                 (A) (A) (A) (A) (A) (A) (A) (A) (A) (A) (A) (A)
                 (A) (A) (A) (A) (A) (A) (A) (A) (A) (A) (A) (A)
                 (A) (A) (A) (A) (A) (A) (A) (A) (A) (A) (A) (A)
                 (A) (A) (A) (A) (A) (A) (A) (A) (A) (A) (A) (A)
                 (A) (A) (A) (A) (A) (A) (A) (A) (A) (A) (A) (A)
                 (A) (A) (A) (A) (A) (A) (A) (A) (A) (A) (A) (A)
                 (A) (A) (A) (A) (A) (A) (A) (A) (A) (A) (A) (A)
                 (A) (A) (A) (A) (A) (A) (A) (A) (A) (A) (A) (A)
                 (A) (A) (A) (A) (A) (A) (A) (A) (A) (A) (A) (A)
                 (A) (A) (A) (A) (A) (A) (A) (A) (A) (A) (A) (A)
                 (A) (A) (A) (A) (A) (A) (A) (A) (A) (A) (A) (A)
                 (A) (A) (A) (A) (A) (A) (A) (A) (A) (A) (A) (A)
                 (A) (A) (A) (A) (A) (A) (A) (A) (A) (A) (A) (A)
                 (A) (A) (A) (A) (A) (A) (A) (A) (A) (A) (A) (A)
                 (A) (A) (A) (A) (A) (A) (A) (A) (A) (A) (A) (A)
                 (A) (A) (A) (A) (A) (A) (A) (A) (A) (A) (A) (A)
                 (A) (A) (A) (A) (A) (A) (A) (A) (A) (A) (A) (A)
                 (A) (A) (A) (A) (A) (A) (A) (A) (A) (A) (A) (A)
                 (A) (A) (A) (A) (A) (A) (A) (A) (A) (A) (A) (A)
                 (A) (A) (A) (A) (A) (A) (A) (A) (A) (A) (A) (A)
                 (A) (A) (A) (A) (A) (A) (A) (A) (A) (A) (A) (A)
                 (A) (A) (A) (A) (A) (A) (A) (A) (A) (A) (A) (A)
                 (A) (A) (A) (A) (A) (A) (A) (A) (A) (A) (A) (A)
                 (A) (A) (A) (A) (A) (A) (A) (A) (A) (A) (A) (A)
                 (A) (A) (A) (A) (A) (A) (A) (A) (A) (A) (A) (A)
                 (A) (A) (A) (A) (A) (A) (A) (A) (A) (A) (A) (A)
                 (A) (A) (A) (A) (A) (A) (A) (A) (A) (A) (A) (A)
                 (A) (A) (A) (A) (A) (A) (A) (A) (A) (A) (A) (A)
                 (A) (A) (A) (A) (A) (A) (A) (A) (A) (A) (A) (A)
                 (A) (A) (A) (A) (A) (A) (A) (A) (A) (A) (A) (A)
                 (A) (A) (A) (A) (A) (A) (A) (A) (A) (A) (A) (A)
                 (A) (A) (A) (A) (A) (A) (A) (A) (A) (A) (A) (A)
                 (A) (A) (A) (A) (A) (A) (A) (A) (A) (A) (A) (A)
                 (A) (A) (A) (A) (A) (A) (A) (A) (A) (A) (A) (A)
                 (A) (A) (A) (A) (A) (A) (A) (A) (A) (A) (A) (A)
                 (A) (A) (A) (A) (A) (A) (A) (A) (A) (A) (A) (A)
                 (A) (A) (A) (A) (A) (A) (A) (A) (A) (A) (A) (A)
                 (A) (A) (A) (A) (A) (A) (A) (A) (A) (A) (A) (A)
 The electronic state is 2-A.
 Alpha  occ. eigenvalues --  -19.72249 -19.72039 -19.66024 -19.65872 -19.63582
 Alpha  occ. eigenvalues --  -19.63441 -19.61122 -19.60890 -14.99502 -10.63542
 Alpha  occ. eigenvalues --  -10.63047 -10.61747 -10.61561 -10.60178 -10.59997
 Alpha  occ. eigenvalues --  -10.57374 -10.57281 -10.56796 -10.56384 -10.55782
 Alpha  occ. eigenvalues --  -10.55566 -10.55325 -10.55132 -10.55038 -10.54979
 Alpha  occ. eigenvalues --  -10.54844 -10.54824 -10.54579 -10.54518 -10.54017
 Alpha  occ. eigenvalues --   -1.42212  -1.26118  -1.20627  -1.20462  -1.17524
 Alpha  occ. eigenvalues --   -1.17392  -1.17381  -1.16447  -0.97537  -0.97321
 Alpha  occ. eigenvalues --   -0.91490  -0.90817  -0.86703  -0.85914  -0.85739
 Alpha  occ. eigenvalues --   -0.84179  -0.82119  -0.78043  -0.77906  -0.77057
 Alpha  occ. eigenvalues --   -0.75227  -0.74529  -0.71292  -0.70379  -0.67479
 Alpha  occ. eigenvalues --   -0.66950  -0.66725  -0.65637  -0.65442  -0.64241
 Alpha  occ. eigenvalues --   -0.63450  -0.62917  -0.60274  -0.58917  -0.58719
 Alpha  occ. eigenvalues --   -0.58387  -0.57593  -0.55593  -0.55024  -0.54633
 Alpha  occ. eigenvalues --   -0.54191  -0.54104  -0.54035  -0.52043  -0.51304
 Alpha  occ. eigenvalues --   -0.50967  -0.50806  -0.50399  -0.49799  -0.49488
 Alpha  occ. eigenvalues --   -0.49280  -0.48766  -0.48443  -0.47398  -0.46214
 Alpha  occ. eigenvalues --   -0.46010  -0.44650  -0.44363  -0.44281  -0.43899
 Alpha  occ. eigenvalues --   -0.43779  -0.43618  -0.43491  -0.43107  -0.42758
 Alpha  occ. eigenvalues --   -0.42456  -0.40586  -0.40457  -0.35643  -0.35340
 Alpha  occ. eigenvalues --   -0.35202  -0.35030  -0.34710  -0.33342  -0.32071
 Alpha  occ. eigenvalues --   -0.30923  -0.30743  -0.26985  -0.26755
 Alpha virt. eigenvalues --   -0.03910  -0.03638  -0.01470   0.02094   0.02259
 Alpha virt. eigenvalues --    0.05027   0.05336   0.07315   0.07407   0.08802
 Alpha virt. eigenvalues --    0.09618   0.10170   0.10439   0.10963   0.11133
 Alpha virt. eigenvalues --    0.11761   0.12230   0.12475   0.13795   0.15384
 Alpha virt. eigenvalues --    0.15942   0.16037   0.16135   0.16520   0.16828
 Alpha virt. eigenvalues --    0.18091   0.18342   0.19023   0.20090   0.20225
 Alpha virt. eigenvalues --    0.20938   0.21811   0.22032   0.23330   0.24206
 Alpha virt. eigenvalues --    0.26417   0.26694   0.27655   0.28469   0.29492
 Alpha virt. eigenvalues --    0.29887   0.30312   0.30968   0.31204   0.31722
 Alpha virt. eigenvalues --    0.32601   0.33903   0.34214   0.34775   0.34890
 Alpha virt. eigenvalues --    0.35592   0.36278   0.36871   0.37265   0.38429
 Alpha virt. eigenvalues --    0.39709   0.39820   0.40114   0.40417   0.40764
 Alpha virt. eigenvalues --    0.41100   0.41294   0.41893   0.42443   0.42880
 Alpha virt. eigenvalues --    0.43097   0.43720   0.44179   0.44600   0.44854
 Alpha virt. eigenvalues --    0.45367   0.46056   0.46814   0.47076   0.47572
 Alpha virt. eigenvalues --    0.47808   0.48136   0.48683   0.49343   0.49692
 Alpha virt. eigenvalues --    0.50211   0.50259   0.51003   0.51065   0.51323
 Alpha virt. eigenvalues --    0.51825   0.52677   0.53467   0.53645   0.54642
 Alpha virt. eigenvalues --    0.54759   0.55733   0.56461   0.56820   0.57180
 Alpha virt. eigenvalues --    0.57248   0.57625   0.58903   0.59147   0.59578
 Alpha virt. eigenvalues --    0.60615   0.60902   0.61277   0.62145   0.62360
 Alpha virt. eigenvalues --    0.62809   0.63117   0.63557   0.63642   0.64053
 Alpha virt. eigenvalues --    0.64267   0.64737   0.65423   0.65783   0.66068
 Alpha virt. eigenvalues --    0.66623   0.66991   0.67493   0.67911   0.68175
 Alpha virt. eigenvalues --    0.68538   0.69199   0.69666   0.70165   0.70321
 Alpha virt. eigenvalues --    0.70993   0.72030   0.72420   0.73142   0.74098
 Alpha virt. eigenvalues --    0.76014   0.76572   0.77445   0.78241   0.79424
 Alpha virt. eigenvalues --    0.79567   0.79813   0.79986   0.80440   0.81905
 Alpha virt. eigenvalues --    0.82643   0.83378   0.83605   0.83709   0.84144
 Alpha virt. eigenvalues --    0.84209   0.84681   0.85169   0.85615   0.86057
 Alpha virt. eigenvalues --    0.86275   0.87012   0.87313   0.88335   0.89612
 Alpha virt. eigenvalues --    0.89758   0.90000   0.90705   0.92442   0.93569
 Alpha virt. eigenvalues --    0.94263   0.94490   0.94757   0.95080   0.95487
 Alpha virt. eigenvalues --    0.96960   0.98315   0.98993   0.99280   1.00165
 Alpha virt. eigenvalues --    1.00969   1.01110   1.02025   1.02170   1.03576
 Alpha virt. eigenvalues --    1.03800   1.05724   1.06213   1.07741   1.08408
 Alpha virt. eigenvalues --    1.09085   1.09309   1.09912   1.10748   1.13000
 Alpha virt. eigenvalues --    1.13088   1.15066   1.15627   1.16466   1.18316
 Alpha virt. eigenvalues --    1.18893   1.19326   1.19834   1.20337   1.20357
 Alpha virt. eigenvalues --    1.21081   1.22687   1.24235   1.24664   1.25195
 Alpha virt. eigenvalues --    1.27490   1.27655   1.28013   1.28434   1.29013
 Alpha virt. eigenvalues --    1.31716   1.32392   1.33378   1.34048   1.37086
 Alpha virt. eigenvalues --    1.38078   1.40415   1.40946   1.41394   1.41712
 Alpha virt. eigenvalues --    1.45626   1.47959   1.48061   1.49874   1.50459
 Alpha virt. eigenvalues --    1.50736   1.51377   1.53011   1.54449   1.54865
 Alpha virt. eigenvalues --    1.55245   1.56322   1.56405   1.57008   1.57328
 Alpha virt. eigenvalues --    1.57932   1.57983   1.59251   1.59753   1.60539
 Alpha virt. eigenvalues --    1.60847   1.61984   1.62883   1.63020   1.64787
 Alpha virt. eigenvalues --    1.66656   1.67271   1.68287   1.69593   1.71219
 Alpha virt. eigenvalues --    1.72368   1.73101   1.73420   1.74290   1.74590
 Alpha virt. eigenvalues --    1.75520   1.75672   1.75901   1.77015   1.78186
 Alpha virt. eigenvalues --    1.78921   1.79252   1.80242   1.80883   1.81107
 Alpha virt. eigenvalues --    1.83111   1.83968   1.84049   1.84860   1.85454
 Alpha virt. eigenvalues --    1.86265   1.87278   1.88132   1.88593   1.89150
 Alpha virt. eigenvalues --    1.90658   1.91441   1.92981   1.94641   1.94801
 Alpha virt. eigenvalues --    1.96544   1.99051   1.99861   2.00667   2.01367
 Alpha virt. eigenvalues --    2.03483   2.06726   2.07113   2.07425   2.08988
 Alpha virt. eigenvalues --    2.13046   2.13665   2.15620   2.16689   2.18000
 Alpha virt. eigenvalues --    2.18834   2.20185   2.20922   2.22055   2.24385
 Alpha virt. eigenvalues --    2.26520   2.28446   2.28803   2.31787   2.32180
 Alpha virt. eigenvalues --    2.33678   2.34666   2.34936   2.35087   2.35581
 Alpha virt. eigenvalues --    2.36309   2.37596   2.37729   2.39571   2.40923
 Alpha virt. eigenvalues --    2.41703   2.44958   2.45040   2.45834   2.46062
 Alpha virt. eigenvalues --    2.48139   2.49686   2.54797   2.55711   2.56769
 Alpha virt. eigenvalues --    2.57947   2.58600   2.58746   2.65307   2.66290
 Alpha virt. eigenvalues --    2.67552   2.68005   2.70892   2.72417   2.72663
 Alpha virt. eigenvalues --    2.73611   2.73793   2.74976   2.78855   2.79225
 Alpha virt. eigenvalues --    2.80879   2.81570   2.82347   2.82991   2.83807
 Alpha virt. eigenvalues --    2.83996   2.84372   2.89425   2.89630   2.89994
 Alpha virt. eigenvalues --    2.90731   2.91425   2.93503   2.93809   2.96922
 Alpha virt. eigenvalues --    2.97796   2.98636   2.99642   3.00637   3.01219
 Alpha virt. eigenvalues --    3.02233   3.02669   3.03595   3.04009   3.05412
 Alpha virt. eigenvalues --    3.05687   3.07362   3.08140   3.09845   3.10170
 Alpha virt. eigenvalues --    3.10415   3.12771   3.16006   3.16370   3.16496
 Alpha virt. eigenvalues --    3.20657   3.20975   3.21972   3.22070   3.22407
 Alpha virt. eigenvalues --    3.22617   3.24290   3.24589   3.25048   3.25451
 Alpha virt. eigenvalues --    3.25727   3.26037   3.30515   3.32729   3.32909
 Alpha virt. eigenvalues --    3.34635   3.36077   3.36360   3.36503   3.36751
 Alpha virt. eigenvalues --    3.38290   3.39449   3.39655   3.39964   3.40001
 Alpha virt. eigenvalues --    3.40118   3.41685   3.42134   3.45059   3.45622
 Alpha virt. eigenvalues --    3.46913   3.51637   3.52152   3.52371   3.53524
 Alpha virt. eigenvalues --    3.54513   3.54845   3.56070   3.58483   3.59961
 Alpha virt. eigenvalues --    3.61004   3.64485   3.66192   3.69696   3.70418
 Alpha virt. eigenvalues --    3.77010   3.77268   3.80363   3.81368   3.93669
 Alpha virt. eigenvalues --    3.93864   3.94744   3.95129   3.95685   3.99406
 Alpha virt. eigenvalues --    4.00280   4.04640   4.05663   4.12591   4.13223
 Alpha virt. eigenvalues --    4.13343   4.18301   4.46138   4.48997   4.54540
 Alpha virt. eigenvalues --    4.81927   4.82116   4.90509   4.90830   4.92034
 Alpha virt. eigenvalues --    4.94361   4.94467   4.98555   5.03833   5.07132
 Alpha virt. eigenvalues --    5.09307   5.09372   5.19901   5.20118   5.24231
 Alpha virt. eigenvalues --    5.24364   5.29496   5.29672   5.50508   5.60557
 Alpha virt. eigenvalues --    5.60641   5.70942   5.72962   5.77920   5.78011
 Alpha virt. eigenvalues --    6.01879  23.32551  23.34180  23.52385  23.52515
 Alpha virt. eigenvalues --   23.63207  23.65026  23.81323  23.88214  23.88456
 Alpha virt. eigenvalues --   23.89817  23.94102  23.94383  23.95307  24.08268
 Alpha virt. eigenvalues --   24.08504  24.13948  24.14102  24.20582  24.20768
 Alpha virt. eigenvalues --   24.24922  24.25643  35.40983  49.87161  49.98509
 Alpha virt. eigenvalues --   49.98664  49.99693  50.04760  50.04908  50.09003
 Alpha virt. eigenvalues --   50.11739
  Beta  occ. eigenvalues --  -19.71530 -19.71362 -19.66022 -19.65872 -19.63583
  Beta  occ. eigenvalues --  -19.63441 -19.61115 -19.60871 -14.98589 -10.63540
  Beta  occ. eigenvalues --  -10.63047 -10.61745 -10.61561 -10.60178 -10.59997
  Beta  occ. eigenvalues --  -10.57374 -10.57281 -10.56791 -10.56384 -10.55783
  Beta  occ. eigenvalues --  -10.55566 -10.55324 -10.55132 -10.55037 -10.54980
  Beta  occ. eigenvalues --  -10.54844 -10.54824 -10.54577 -10.54518 -10.54016
  Beta  occ. eigenvalues --   -1.39872  -1.23542  -1.20623  -1.20462  -1.17524
  Beta  occ. eigenvalues --   -1.17382  -1.17371  -1.16416  -0.97532  -0.97321
  Beta  occ. eigenvalues --   -0.91483  -0.90812  -0.86699  -0.85913  -0.85739
  Beta  occ. eigenvalues --   -0.84175  -0.82112  -0.78042  -0.77906  -0.75248
  Beta  occ. eigenvalues --   -0.74528  -0.72835  -0.71283  -0.70370  -0.66945
[...]
 00002133,-0.00000963,-0.00000052,0.00003135,-0.00005638,-0.00000972,-0
 .00001470,0.00000077,-0.00000240,-0.00000109,0.00001078,0.00000139,0.0
 0001132,0.00003869,-0.00000066,0.00001031,0.00001818,0.00000775,0.0000
 0836,-0.00000167,-0.00000012,-0.00000080,0.00000044,0.00000156,-0.0000
 1539,0.00001246,-0.00000242,-0.00000131,-0.00000255,0.00000184,0.00001
 217,-0.00000003,0.00000035,-0.00000080,-0.00000070,0.00000415,-0.00000
 025,0.00000021,-0.00000093,0.00000037,0.00000002,-0.00000036,0.0000004
 7,0.00000020,-0.00000052,0.10750428,-0.14423614,0.08171337,0.01414060,
 -0.01290170,0.01187646,-0.11293208,0.15585968,-0.00016231,-0.00013483,
 0.00015520,0.00015900,-0.00008711,0.00097551,0.00056217,-0.00153783,0.
 00020873,-0.00027962,-0.00018917,-0.00000963,-0.02243848,0.01440271,-0
 .01208399,0.00409001,0.00181069,-0.00670608,0.00014875,-0.00003126,0.0
 0021802,-0.00002503,-0.00001738,0.00003960,-0.00013078,-0.00005041,-0.
 00002550,-0.00001650,-0.00000581,-0.00001884,-0.00000640,0.00000355,-0
 .00000327,0.00000411,0.00002519,-0.00001157,0.00000059,0.00000526,-0.0
 0001933,0.00003946,0.00001242,0.00001200,-0.00001355,-0.00000357,-0.00
 000150,-0.00006114,-0.00001646,-0.00001377,0.00000465,-0.00000072,0.00
 000807,-0.00003017,-0.00003363,0.00001700,0.00000344,0.00002499,0.0000
 0436,0.00000200,-0.00000242,-0.00000041,-0.00000066,-0.00000320,0.0000
 0093,-0.00000183,-0.00000120,-0.00000200,0.00044660,-0.00062947,-0.000
 00404,0.00017387,0.00025630,-0.00007704,-0.00033159,-0.00071881,0.0002
 2266,-0.00016265,0.00010473,0.00014699,-0.00404761,0.00600445,-0.00346
 746,0.00143042,-0.00066649,0.00059995,0.00001542,0.00022054,0.00000060
 ,0.00000036,-0.00001626,-0.00000009,0.00007407,-0.00005097,0.00000315,
 -0.00001587,-0.00000652,-0.00000139,-0.00000084,0.00000511,-0.00000066
 ,0.00000956,0.00002640,-0.00000708,0.00000267,-0.00000026,0.00000847,0
 .00001149,-0.00000138,0.00000033,0.00000111,-0.00000094,0.00000169,-0.
 00001025,0.00000621,-0.00000187,-0.00000023,-0.00000159,0.00000197,0.0
 0001460,0.00000081,-0.00000235,-0.00000152,-0.00000142,0.00000821,-0.0
 0000059,0.00000080,-0.00000169,0.00000035,-0.00000021,-0.00000079,0.00
 000076,0.00000003,-0.00000068,-0.08844591,0.07962811,-0.10841426,0.013
 72133,-0.01186279,0.01158710,0.09515884,-0.08585048,0.11792464,-0.0003
 7466,0.00009133,-0.00037435,0.00016638,0.00010892,0.00074866,0.0006083
 7,-0.00007537,0.00038924,0.00000536,-0.00005535,0.00001833,-0.00090172
 ,-0.00032103,-0.00162969,0.00049028,0.00049175,0.00111629,0.00043986,0
 .00007084,0.00006094,-0.00005521,0.00001958,-0.00013770,-0.00010892,-0
 .00007203,0.00004943,0.00010618,0.00002521,-0.00004672,-0.00001297,0.0
 0003992,0.00005522,0.00012536,0.00001580,0.00005263,-0.00000634,0.0000
 0024,-0.00000115,-0.00008414,0.00000006,0.00000173,0.00000863,0.000014
 46,0.00001114,0.00011997,0.00000401,0.00001345,-0.00000023,0.00002247,
 -0.00000873,-0.00003092,-0.00004965,0.00004305,0.00000430,0.00003294,0
 .00000317,0.00000418,-0.00000584,-0.00000566,-0.00000574,-0.00000386,0
 .00000226,0.00000086,-0.00000470,0.00000049,-0.00000119,-0.00011956,0.
 00000923,0.00000997,0.00001228,-0.00001942,0.00007687,0.00025312,0.000
 10180,0.00002721,-0.00002151,-0.00002030,-0.00074218,-0.00025724,-0.00
 024042,-0.00033926,0.00039098,0.00026546,-0.00002721,0.00004543,-0.000
 00140,-0.00000925,-0.00002964,0.00000855,0.00001916,0.00000243,0.00001
 571,-0.00002526,-0.00000426,0.00000366,0.00000264,0.00000104,-0.000006
 89,0.00001570,0.00003903,0.00000197,0.00000673,0.00000208,-0.00001381,
 0.00004106,-0.00002686,-0.00000045,-0.00000338,0.00000372,-0.00000480,
 -0.00005332,0.00003515,0.00000281,0.00000412,-0.00001042,-0.00000549,-
 0.00003146,-0.00000734,0.00001620,0.00001390,0.00000149,-0.00002433,0.
 00000123,-0.00000211,0.00000327,-0.00000038,-0.00000092,0.00000167,-0.
 00000063,0.00000275,0.00000068,-0.00008600,-0.00004297,-0.00031397,0.0
 0012123,-0.00010997,0.00005751,-0.00144839,0.00134174,0.00066641,0.204
 04773,0.00113677,-0.00003105,0.00060760,-0.00011199,-0.00033402,-0.000
 15392,-0.00066199,-0.00032971,-0.00072143,-0.00000942,0.00004371,0.000
 01804,0.00039944,0.00112717,0.00092858,-0.00002280,-0.00069060,-0.0004
 3310,-0.00046939,0.00001429,-0.00006884,0.00012663,-0.00001954,0.00020
 994,0.00010424,0.00007372,-0.00011486,-0.00016321,-0.00006963,0.000091
 81,0.00002025,-0.00000990,-0.00002441,-0.00010943,0.00005360,-0.000171
 55,0.00001285,0.00000753,-0.00000512,0.00023309,0.00004799,-0.00000468
 ,-0.00002160,-0.00001126,-0.00001172,-0.00029053,-0.00005384,-0.000027
 08,0.00002466,-0.00001681,0.00002574,-0.00003685,-0.00004686,0.0000413
 9,0.00001004,0.00002965,0.00000234,0.00000069,-0.00000121,0.00000093,0
 .00000082,-0.00000497,0.00000382,-0.00000136,0.00000282,-0.00000547,-0
 .00007399,0.00023779,-0.00000768,-0.00001979,0.00002560,0.00002351,0.0
 0013055,-0.00036376,0.00017497,0.00001636,0.00000615,0.00000927,-0.000
 57943,0.00079123,0.00031716,0.00064169,0.00007339,-0.00139117,0.000097
 96,-0.00006754,-0.00001580,0.00000482,0.00006088,-0.00000898,-0.000040
 29,-0.00003086,-0.00001332,0.00006191,0.00001336,0.00000604,-0.0000033
 2,0.00000360,0.00000483,-0.00002532,-0.00008787,-0.00000424,-0.0000105
 9,0.00000067,0.00000927,-0.00009036,0.00005101,-0.00000836,0.00000588,
 -0.00000664,0.00000452,0.00011422,-0.00006680,0.00000576,-0.00000722,0
 .00001753,0.00000421,0.00006537,0.00002529,-0.00002078,-0.00002633,-0.
 00000400,0.00003797,-0.00000079,0.00000156,-0.00000656,0.00000466,0.00
 000295,-0.00000155,-0.00000011,-0.00000389,-0.00000162,0.00005926,-0.0
 0018530,-0.00009990,0.00009613,0.00003598,-0.00000823,0.00075574,-0.00
 125701,-0.00024587,-0.14637534,0.15375195,0.00024793,0.00022194,-0.000
 13302,0.00003039,0.00022316,0.00033025,0.00030321,-0.00035398,-0.00007
 046,-0.00003941,-0.00005963,0.00006765,-0.00161240,-0.00002726,-0.0027
 5847,0.00076107,0.00065776,0.00194380,0.00030884,-0.00003412,0.0000947
 8,0.00000264,-0.00000137,-0.00006199,-0.00010626,-0.00001622,-0.000036
 47,0.00001498,-0.00002797,0.00003301,-0.00000320,0.00004582,0.00006627
 ,0.00006744,0.00007793,-0.00011822,0.00000543,-0.00000622,-0.00000182,
 0.00010692,0.00003609,0.00001612,-0.00000472,0.00001007,-0.00000066,-0
 .00013600,-0.00004825,0.00000170,0.00002740,0.00001299,0.00000651,-0.0
 0009840,-0.00013244,0.00013728,0.00001586,0.00008090,0.00000438,0.0000
 0754,-0.00001065,-0.00001157,-0.00001208,-0.00001273,0.00001223,0.0000
 0250,-0.00000444,-0.00000363,-0.00000794,-0.00003080,0.00001772,-0.000
 01641,0.00006324,-0.00004277,0.00027396,0.00010978,-0.00023171,0.00009
 629,-0.00000121,-0.00002384,-0.00056507,-0.00082097,-0.00064284,0.0009
 2454,0.00000908,0.00242737,0.00001087,0.00001705,0.00003945,-0.0000038
 8,-0.00000523,0.00002236,0.00000760,-0.00002495,0.00002504,0.00001024,
 -0.00000078,0.00000994,0.00000214,0.00000702,-0.00001196,0.00000228,-0
 .00000869,-0.00000327,-0.00000179,0.00000405,-0.00002856,-0.00001436,0
 .00000206,-0.00001397,0.00000047,0.,-0.00000864,0.00001661,-0.00000249
 ,0.00001954,-0.00000023,-0.00000210,-0.00001071,0.00000564,0.00000944,
 0.00002069,0.00000198,0.00000170,-0.00002226,0.00000217,-0.00000390,0.
 00000303,0.00000466,0.00000273,0.00000297,-0.00000183,0.00000135,0.000
 00033,-0.00052476,-0.00012157,-0.00098610,0.00044270,-0.00033144,0.000
 36463,0.00025428,0.00016066,0.00121587,0.31568276,-0.19228162,0.544941
 82,-0.00039907,0.00025155,-0.00034829,0.00002439,0.00006781,0.00009517
 ,0.00030142,0.00010948,0.00053771,-0.00001811,-0.00002891,0.00001168,-
 0.00022978,-0.00019246,-0.00148782,0.00016168,0.00054159,0.00082450,0.
 00017736,-0.00000924,0.00004180,-0.00002100,0.00002307,-0.00009571,-0.
 00004642,-0.00003548,0.00005108,0.00006750,0.00002247,-0.00003640,-0.0
 0000819,0.00001371,0.00002103,0.00005926,-0.00001754,0.00007065,-0.000
 00426,-0.00000575,0.00000484,-0.00010217,-0.00001528,-0.00000397,0.000
 01256,0.00000733,0.00000673,0.00014046,0.00002163,0.00001665,-0.000008
 75,0.00001162,-0.00001309,0.00000800,0.00000788,-0.00000337,-0.0000039
 3,-0.00000727,-0.00000180,0.00000147,-0.00000047,-0.00000150,-0.000001
 42,0.00000161,-0.00000051,0.00000066,-0.00000262,0.00000237,0.00004635
 ,-0.00018485,0.00000312,0.00000444,0.00000590,-0.00003201,-0.00002569,
 0.00035831,-0.00017619,0.00001814,-0.00000878,-0.00000260,-0.00043991,
 -0.00068764,-0.00019911,0.00026697,0.00107247,0.00212778,-0.00006741,0
 .00005429,0.00002561,-0.00000359,-0.00004603,0.00000836,0.00003144,0.0
 0001279,0.00001454,-0.00004005,-0.00000858,-0.00000514,0.00000251,0.00
 000006,-0.00000305,0.00001470,0.00005767,0.00000037,0.00000595,0.00000
 051,-0.00000862,0.00005726,-0.00003270,0.00000429,-0.00000402,0.000004
 63,-0.00000335,-0.00007237,0.00004355,-0.00000300,0.00000424,-0.000011
 53,-0.00000234,-0.00003575,-0.00001397,0.00001148,0.00001254,0.0000019
 3,-0.00002117,0.00000117,-0.00000127,0.00000270,-0.00000125,-0.0000011
 7,0.00000192,0.00000016,0.00000228,0.00000055,-0.00023788,-0.00016702,
 -0.00020166,0.00014965,-0.00004838,0.00010456,-0.00006887,0.00036809,0
 .00039197,-0.02122372,-0.01483698,-0.06360097,0.07890867,0.00057570,-0
 .00000852,0.00025836,0.00006890,0.00005006,0.00015461,-0.00042566,-0.0
 0014471,-0.00040475,-0.00002778,-0.00005079,0.00005140,-0.00000238,0.0
 0101749,-0.00073818,0.00020001,-0.00038439,0.00031098,-0.00026937,-0.0
 0006985,0.00000639,0.00011124,-0.00004480,0.00011939,0.00005179,0.0000
 8109,-0.00012215,-0.00011008,-0.00008241,0.00009848,0.00000154,0.00001
 930,0.00002228,-0.00007415,0.00007843,-0.00021367,0.00001185,-0.000005
 17,-0.00000090,0.00025365,0.00005898,0.00001503,-0.00001454,0.00000121
 ,-0.00000695,-0.00030250,-0.00007117,-0.00001871,0.00003378,-0.0000032
 7,0.00002353,-0.00007753,-0.00010987,0.00011155,0.00001540,0.00006660,
 0.00000471,0.00000361,-0.00000657,-0.00000563,-0.00000569,-0.00001112,
 0.00000797,0.00000124,0.00000098,-0.00000602,-0.00006462,0.00017005,0.
 00002233,-0.00001641,0.00004928,-0.00001163,0.00024076,-0.00028994,0.0
 0005089,0.00005185,0.00000298,-0.00002374,-0.00095743,0.00055971,-0.00
 010354,0.00164326,0.00009984,0.00010151,0.00008006,-0.00004476,0.00000
 765,0.00000324,0.00004727,0.00000452,-0.00003010,-0.00004195,0.0000035
 1,0.00005278,0.00001182,0.00001368,-0.00000152,0.00000653,-0.00000502,
 -0.00001498,-0.00007299,-0.00000364,-0.00000727,0.00000308,-0.00001294
 ,-0.00007356,0.00003592,-0.00001434,0.00000488,-0.00000511,-0.00000205
 ,0.00009128,-0.00004935,0.00001677,-0.00000425,0.00001155,-0.00000548,
 0.00004606,0.00002751,0.00000427,-0.00001144,-0.00000125,0.00000804,0.
 00000025,-0.00000217,-0.00000206,0.00000534,0.00000222,-0.00000024,-0.
 00000192,-0.00000061,-0.00000039,-0.00032341,-0.00018486,-0.00037548,0
 .00030784,-0.00013633,0.00006532,-0.00011693,0.00028547,0.00054898,-0.
 02458194,0.06153778,0.00031875,0.04273925,0.14429581,0.00044559,0.0000
 4324,-0.00019988,0.00005031,0.00024507,0.00046273,0.00010350,-0.000390
 31,-0.00033917,-0.00000734,-0.00016579,0.00006606,-0.00209761,0.000058
 52,-0.00304596,0.00084116,0.00078749,0.00218595,0.00003568,-0.00007111
 ,0.00011308,0.00009042,-0.00004202,-0.00001607,-0.00003401,0.00005103,
 -0.00011407,-0.00002583,-0.00008333,0.00009201,-0.00001161,0.00005831,
 0.00008912,-0.00000709,0.00010270,-0.00021595,0.00000572,-0.00002634,0
 .00000501,0.00021659,0.00006270,0.00002570,-0.00000435,0.00001536,-0.0
 0000027,-0.00024511,-0.00007944,-0.00000045,0.00003750,0.00001507,0.00
 001440,-0.00011268,-0.00016780,0.00018306,0.00001520,0.00009716,0.0000
 0660,0.00000866,-0.00001253,-0.00001411,-0.00001456,-0.00001669,0.0000
 1412,0.00000427,-0.00000218,-0.00000423,-0.00000044,-0.00004912,0.0000
 6489,-0.00000622,0.00004261,-0.00004267,0.00010745,0.00014107,-0.00014
 422,0.00007176,0.00000751,-0.00004177,0.00008141,-0.00128139,-0.000916
 99,0.00077248,0.00041485,0.00145247,-0.00000617,0.00001930,0.00001763,
 -0.00000579,-0.00001257,0.00001598,0.00000859,-0.00001834,0.00002842,-
 0.00000328,-0.00000406,0.00001321,0.00000277,0.00000546,-0.00001446,0.
 00001402,0.00001260,-0.00000018,0.00000335,0.00000429,-0.00003016,0.00
 000952,-0.00001218,-0.00001219,-0.00000134,0.00000195,-0.00000901,-0.0
 0001591,0.00001495,0.00001727,0.00000270,-0.00000620,-0.00001191,-0.00
 001552,0.00000244,0.00002672,0.00001100,0.00000278,-0.00003336,0.00000
 237,-0.00000439,0.00000463,0.00000291,0.00000131,0.00000334,-0.0000019
 0,0.00000299,0.00000110,-0.00027070,-0.00017719,-0.00069224,0.00037546
 ,-0.00021647,0.00022646,-0.00049228,0.00066141,0.00104424,-0.07531592,
 0.02257086,-0.14669810,0.21025810,0.23095744,0.69999346,0.00057113,-0.
 00050315,0.00064437,-0.00002080,-0.00026888,-0.00044984,-0.00101600,-0
 .00012769,-0.00071451,-0.00004061,0.00007460,-0.00001090,0.00146875,0.
 00158306,0.00323539,-0.00121945,-0.00081019,-0.00232084,-0.00054870,-0
 .00000339,-0.00013559,0.00005062,-0.00000279,0.00021069,0.00013316,0.0
 0010103,-0.00005832,-0.00015572,-0.00003107,0.00007284,0.00002141,-0.0
 0004837,-0.00007635,-0.00016619,-0.00001126,-0.00007663,0.00001346,-0.
 00000690,-0.00000603,0.00013292,0.00000678,-0.00001722,-0.00001678,-0.
 00002253,-0.00001654,-0.00020469,-0.00001213,-0.00002261,0.00000219,-0
 .00003476,0.00001582,0.00004308,0.00007283,-0.00005919,-0.00000536,-0.
 00004939,-0.00000429,-0.00000712,0.00000908,0.00000834,0.00000811,0.00
 000484,-0.00000337,-0.00000092,0.00000809,-0.00000078,-0.00009117,0.00
 072191,0.00000544,-0.00002388,-0.00003145,0.00008687,0.00028574,-0.001
 54773,0.00017818,-0.00002533,0.00003808,0.00000985,-0.00058168,0.00415
 476,0.00150585,-0.00467261,-0.00289390,-0.00161769,0.00025623,-0.00023
 989,-0.00004849,0.00002141,0.00018420,-0.00001929,-0.00012417,-0.00006
 290,-0.00004186,0.00016088,0.00002936,0.00001821,-0.00000979,-0.000000
 54,0.00000799,-0.00004774,-0.00021882,-0.00000484,-0.00002517,0.000000
 47,0.00002174,-0.00022151,0.00011942,-0.00002191,0.00001677,-0.0000181
 8,0.00001041,0.00027835,-0.00016723,0.00001686,-0.00001431,0.00004392,
 0.00000721,0.00012928,0.00005095,-0.00003751,-0.00004694,-0.00000641,0
 .00007242,-0.00000298,0.00000402,-0.00000985,0.00000609,0.00000519,-0.
 00000550,-0.00000073,-0.00000843,-0.00000157,0.00024332,0.00088373,0.0
 0157779,-0.00066799,0.00001627,-0.00037790,0.00017608,-0.00032338,-0.0
 0095050,-0.18089479,0.15986439,-0.25289161,-0.05741532,-0.01908008,-0.
 13488285,0.24424944,-0.00180239,-0.00013317,-0.00101373,-0.00011780,0.
 00010496,-0.00011053,0.00079674,-0.00023523,0.00107363,0.00005823,0.00
 009822,0.00002128,0.00124670,-0.00641421,-0.00046013,-0.00007505,0.000
 69677,-0.00015285,0.00100531,0.00016666,0.00008422,-0.00030098,0.00012
 554,-0.00042373,-0.00024143,-0.00019874,0.00031755,0.00033284,0.000181
 32,-0.00022698,-0.00002050,-0.00000317,0.00001550,0.00026393,-0.000155
 81,0.00048322,-0.00002198,-0.00001051,0.00000272,-0.00060109,-0.000122
 47,-0.00003574,0.00004389,0.00001079,0.00002179,0.00071654,0.00015104,
 0.00006037,-0.00006854,0.00002398,-0.00006174,0.00013113,0.00018690,-0
 .00017605,-0.00002910,-0.00011845,-0.00000933,-0.00000571,0.00001052,0
 .00000514,0.00000517,0.00001889,-0.00001359,0.00000071,-0.00000469,0.0
 0001393,0.00016515,-0.00045373,-0.00001144,0.00004030,-0.00006429,-0.0
 0002751,-0.00046623,0.00062812,-0.00028552,-0.00008611,0.00000912,0.00
 000968,0.00269868,-0.00180334,-0.00045852,-0.00263088,-0.00045899,0.00
 116680,-0.00019502,0.00012428,0.00001983,-0.00000795,-0.00012029,0.000
 00526,0.00007658,0.00007635,0.00001117,-0.00012341,-0.00002642,-0.0000
 2062,0.00000541,-0.00000954,0.00000022,0.00004141,0.00017115,0.0000077
 8,0.00002001,-0.00000297,0.00000181,0.00017493,-0.00009216,0.00002386,
 -0.00001112,0.00001242,-0.00000318,-0.00021830,0.00012401,-0.00002263,
 0.00001232,-0.00003126,0.00000019,-0.00011697,-0.00005396,0.00002039,0
 .00004135,0.00000578,-0.00005124,0.00000055,0.00000009,0.00000943,-0.0
 0001028,-0.00000565,0.00000187,0.00000185,0.00000530,0.00000227,0.0007
 1727,-0.00114091,-0.00102502,-0.00016646,0.00008880,0.00015118,0.00049
 425,-0.00076775,-0.00091885,0.16910918,-0.21434413,0.19229749,-0.02943
 757,-0.20669902,-0.25356104,-0.14144554,0.43044986,-0.00088653,-0.0001
 0691,0.00028194,-0.00013526,-0.00056509,-0.00107670,-0.00035337,0.0008
 3445,0.00052454,0.00004794,0.00029934,-0.00017695,0.00412962,-0.000419
 66,0.00649650,-0.00205329,-0.00151539,-0.00490224,-0.00029267,0.000125
 52,-0.00025519,-0.00010443,0.00007039,0.00003939,0.00015099,-0.0000473
 1,0.00019392,0.00004402,0.00012705,-0.00014382,0.00001289,-0.00008909,
 -0.00015418,-0.00003617,-0.00020031,0.00037636,-0.00001709,0.00004012,
 -0.00000018,-0.00038458,-0.00010903,-0.00004575,0.00001692,-0.00002274
 ,0.00000373,0.00045915,0.00014258,0.00000447,-0.00007250,-0.00002395,-
 0.00002700,0.00023013,0.00032085,-0.00034466,-0.00003356,-0.00018814,-
 0.00001206,-0.00001666,0.00002386,0.00002669,0.00002784,0.00003189,-0.
 00002818,-0.00000695,0.00000603,0.00000894,0.00000290,-0.00004802,-0.0
 0007251,0.00003430,-0.00011363,0.00007865,-0.00056282,0.00002905,0.000
 53575,-0.00019805,-0.00000842,0.00005626,0.00135516,0.00123852,0.00128
 998,-0.00060743,-0.00024680,-0.00573642,-0.00005649,0.00001627,-0.0000
 7650,0.00000150,-0.00002007,-0.00004135,0.00000524,0.00006614,-0.00004
 877,-0.00004570,-0.00000137,-0.00002630,-0.00000281,-0.00001463,0.0000
 2590,-0.00000347,0.00005055,0.00000680,0.00000679,-0.00000895,0.000058
 87,0.00006166,-0.00002022,0.00003370,-0.00000368,0.00000280,0.00001716
 ,-0.00007312,0.00002959,-0.00004484,0.00000141,-0.00000207,0.00002287,
 -0.00002622,-0.00002689,-0.00004156,-0.00000028,-0.00000336,0.00004080
 ,-0.00000439,0.00000812,-0.00000560,-0.00001032,-0.00000604,-0.0000056
 1,0.00000423,-0.00000236,-0.00000092,0.00117469,-0.00072804,0.00064382
 ,-0.00063112,0.00063517,-0.00051406,0.00129383,-0.00232963,-0.00353000
 ,-0.24123251,0.17075931,-0.39990371,-0.14838789,-0.23123082,-0.5535702
 4,0.38717811,0.06324136,0.96001831\\-0.00000076,0.00000212,-0.00000200
 ,-0.00000095,-0.00000093,0.00000024,0.00000004,-0.00000291,-0.00000013
 ,0.,0.00000004,-0.00000129,0.00000135,-0.00000033,0.00000081,0.0000001
 4,0.00000186,0.00000028,0.00000038,-0.00000186,0.00000106,0.00000079,0
 .00000010,-0.00000156,0.00000023,-0.00000154,-0.00000002,-0.00000053,-
 0.00000153,0.00000010,-0.00000004,-0.00000362,-0.00000023,-0.00000126,
 -0.00000109,-0.00000079,0.00000050,-0.00000102,0.00000034,-0.00000024,
 -0.00000160,-0.00000082,0.00000050,-0.00000251,-0.00000062,0.00000035,
 -0.00000118,-0.00000173,0.,-0.00000254,-0.00000015,0.00000154,-0.00000
 260,0.00000010,0.00000022,-0.00000226,-0.00000001,0.00000053,-0.000001
 83,-0.00000032,0.00000055,-0.00000150,0.00000014,0.00000162,-0.0000023
 0,0.00000202,-0.00000022,0.00000003,0.00000058,-0.00000267,0.00000138,
 0.00000086,-0.00000002,0.00000333,-0.00000086,-0.00000084,0.00000111,-
 0.00000004,-0.00000091,0.00000182,0.00000017,-0.00000236,-0.00000395,0
 .00000038,0.00000034,0.00000192,0.00000078,0.00000045,0.00000123,0.000
 00040,-0.00000109,0.00000240,-0.00000034,0.00000148,0.00000089,0.00000
 064,0.00000020,0.00000085,0.00000058,0.00000095,0.00000081,-0.00000039
 ,-0.00000017,0.00000026,-0.00000003,-0.00000075,0.00000055,-0.00000011
 ,0.00000209,0.00000056,-0.00000010,-0.00000079,0.00000280,0.00000317,0
 .00000088,0.00000275,0.00000136,0.00000059,0.00000368,0.00000074,-0.00
 000013,0.00000132,-0.00000082,0.00000011,0.00000248,0.00000118,-0.0000
 0065,0.00000247,0.00000040,0.00000028,0.00000240,0.00000005,0.00000552
 ,-0.00000297,-0.00000025,-0.00000232,0.00000044,-0.00000014,-0.0000016
 5,0.00000085,-0.00000064,0.00000117,-0.00000153,0.00000150,-0.00000043
 ,0.00000120,0.00000189,-0.00000398,-0.00000008,-0.00000640\\\@


 THERE'S SMALL CHOICE IN A BOWL OF ROTTEN APPLES.
                     SHAKESPEARE
 Job cpu time:       0 days  4 hours 33 minutes 21.0 seconds.
 Elapsed time:       0 days  4 hours 33 minutes 45.9 seconds.
 File lengths (MBytes):  RWF=   3749 Int=      0 D2E=      0 Chk=     51 Scr=      1
 Normal termination of Gaussian 16 at Mon Nov 11 19:36:33 2024.
