 Entering Gaussian System, Link 0=g16
 Initial command:
 /sw/cluster/pub/apps//g16/l1.exe "/data/mmaximo/25535/Gau-2117787.inp" -scrdir="/data/mmaximo/25535/"
 Entering Link 1 = /sw/cluster/pub/apps//g16/l1.exe PID=   2117788.
  
 Copyright (c) 1988,1990,1992,1993,1995,1998,2003,2009,2016,
            Gaussian, Inc.  All Rights Reserved.
  
 This is part of the Gaussian(R) 16 program.  It is based on
 the Gaussian(R) 09 system (copyright 2009, Gaussian, Inc.),
 the Gaussian(R) 03 system (copyright 2003, Gaussian, Inc.),
 the Gaussian(R) 98 system (copyright 1998, Gaussian, Inc.),
 the Gaussian(R) 94 system (copyright 1995, Gaussian, Inc.),
 the Gaussian 92(TM) system (copyright 1992, Gaussian, Inc.),
 the Gaussian 90(TM) system (copyright 1990, Gaussian, Inc.),
 the Gaussian 88(TM) system (copyright 1988, Gaussian, Inc.),
 the Gaussian 86(TM) system (copyright 1986, Carnegie Mellon
 University), and the Gaussian 82(TM) system (copyright 1983,
 Carnegie Mellon University). Gaussian is a federally registered
 trademark of Gaussian, Inc.
  
 This software contains proprietary and confidential information,
 including trade secrets, belonging to Gaussian, Inc.
  
 This software is provided under written license and may be
 used, copied, transmitted, or stored only in accord with that
 written license.
  
 The following legend is applicable only to US Government
 contracts under FAR:
  
                    RESTRICTED RIGHTS LEGEND
  
 Use, reproduction and disclosure by the US Government is
 subject to restrictions as set forth in subparagraphs (a)
 and (c) of the Commercial Computer Software - Restricted
 Rights clause in FAR 52.227-19.
  
 Gaussian, Inc.
 340 Quinnipiac St., Bldg. 40, Wallingford CT 06492
  
  
 ---------------------------------------------------------------
 Warning -- This program may not be used in any manner that
 competes with the business of Gaussian, Inc. or will provide
 assistance to any competitor of Gaussian, Inc.  The licensee
 of this program is prohibited from giving any competitor of
 Gaussian, Inc. access to this program.  By using this program,
 the user acknowledges that Gaussian, Inc. is engaged in the
 business of creating and licensing software in the field of
 computational chemistry and represents and warrants to the
 licensee that it is not a competitor of Gaussian, Inc. and that
 it will not use this program in any manner prohibited above.
 ---------------------------------------------------------------
  

 Cite this work as:
 Gaussian 16, Revision A.03,
 M. J. Frisch, G. W. Trucks, H. B. Schlegel, G. E. Scuseria, 
 M. A. Robb, J. R. Cheeseman, G. Scalmani, V. Barone, 
 G. A. Petersson, H. Nakatsuji, X. Li, M. Caricato, A. V. Marenich, 
 J. Bloino, B. G. Janesko, R. Gomperts, B. Mennucci, H. P. Hratchian, 
 J. V. Ortiz, A. F. Izmaylov, J. L. Sonnenberg, D. Williams-Young, 
 F. Ding, F. Lipparini, F. Egidi, J. Goings, B. Peng, A. Petrone, 
 T. Henderson, D. Ranasinghe, V. G. Zakrzewski, J. Gao, N. Rega, 
 G. Zheng, W. Liang, M. Hada, M. Ehara, K. Toyota, R. Fukuda, 
 J. Hasegawa, M. Ishida, T. Nakajima, Y. Honda, O. Kitao, H. Nakai, 
 T. Vreven, K. Throssell, J. A. Montgomery, Jr., J. E. Peralta, 
 F. Ogliaro, M. J. Bearpark, J. J. Heyd, E. N. Brothers, K. N. Kudin, 
 V. N. Staroverov, T. A. Keith, R. Kobayashi, J. Normand, 
 K. Raghavachari, A. P. Rendell, J. C. Burant, S. S. Iyengar, 
 J. Tomasi, M. Cossi, J. M. Millam, M. Klene, C. Adamo, R. Cammi, 
 J. W. Ochterski, R. L. Martin, K. Morokuma, O. Farkas, 
 J. B. Foresman, and D. J. Fox, Gaussian, Inc., Wallingford CT, 2016.
 
 ******************************************
 Gaussian 16:  ES64L-G16RevA.03 25-Dec-2016
                20-Nov-2024 
 ******************************************
 %chk=CURCUMIN-OPT-FREQ-Prod-M06-2X-6-311G-D-298.chk
 ----------------------------------------------------------------------
 # opt=(calcfc) freq=noraman M062X/6-311g(d) scrf=(smd,solvent=generic,
 read) temperature=363.15 SCF=(MaxCycle=500)
 ----------------------------------------------------------------------
 1/10=4,18=20,19=15,26=3,38=1,40=2,112=363150/1,3;
 2/9=110,12=2,17=6,18=5,40=1/2;
 3/5=4,6=6,7=1,11=2,25=1,30=1,70=32203,71=2,72=-2,74=-55,140=1/1,2,3;
 4//1;
 5/5=2,7=500,38=5/2;
 8/6=4,10=90,11=11/1;
 11/6=1,8=1,9=11,15=111,16=1/1,2,10;
 10/6=1,13=1/2;
 6/7=2,8=2,9=2,10=2,28=1/1;
 7/10=1,18=20,25=1/1,2,3,16;
 1/10=4,18=20,19=15,26=3/3(2);
 2/9=110/2;
 99//99;
 2/9=110/2;
 3/5=4,6=6,7=1,11=2,25=1,30=1,70=32205,71=1,72=-2,74=-55/1,2,3;
 4/5=5,16=3,69=1/1;
 5/5=2,7=500,38=5/2;
 7//1,2,3,16;
 1/18=20,19=15,26=3/3(-5);
 2/9=110/2;
 6/7=2,8=2,9=2,10=2,19=2,28=1/1;
 99/9=1/99;
 ---
 XXX
 ---
 Symbolic Z-matrix:
 Charge =  0 Multiplicity = 2
 C                     2.69439   0.35113   0.30005 
 H                     2.44976   1.16815   0.97414 
 C                     1.74842  -0.13943  -0.51417 
 H                     1.97079  -0.92559  -1.22925 
 C                     0.36729   0.36976  -0.62856 
 O                    -0.34137   0.01366  -1.56423 
 C                     4.09014  -0.07823   0.37231 
 C                     4.96748   0.62917   1.19731 
 C                     4.59543  -1.16599  -0.35794 
 C                     6.30847   0.27787   1.28621 
 H                     4.59982   1.47443   1.76945 
 C                     5.9264   -1.5241   -0.27888 
 H                     3.96064  -1.75168  -1.0138 
 C                     6.79994  -0.79389   0.54994 
 H                     6.98299   0.84302   1.92234 
 O                     8.09533  -1.17978   0.57508 
 H                     8.59831  -0.60323   1.16469 
 O                     6.39853  -2.5594   -1.03171 
 C                     6.70036  -3.73089  -0.27441 
 H                     5.80198  -4.10066   0.22871 
 H                     7.05085  -4.47675  -0.98565 
 H                     7.48185  -3.53428   0.46178 
 C                    -2.88717   0.16957   0.19333 
 H                    -2.02611  -0.46618   0.38318 
 C                    -2.68772   1.49178   0.04476 
 H                    -3.49808   2.19037  -0.1354 
 C                    -1.37748   2.1096    0.16915 
 O                    -1.25614   3.33452   0.15197 
 C                    -4.15969  -0.53585   0.13295 
 C                    -4.16325  -1.92578   0.2853 
 C                    -5.38854   0.11664  -0.06648 
 C                    -5.34679  -2.64885   0.23221 
 H                    -3.22521  -2.44805   0.44025 
 C                    -6.57096  -0.59125  -0.12326 
 H                    -5.4473    1.19207  -0.1923 
 C                    -6.55583  -1.99246   0.02592 
 H                    -5.33659  -3.7292    0.34224 
 O                    -7.74235  -2.63073  -0.05114 
 H                    -7.61349  -3.58207   0.05782 
 O                    -7.74588   0.05998  -0.358 
 C                    -8.58635   0.16042   0.79181 
 H                    -8.07862   0.71523   1.58624 
 H                    -9.47466   0.70575   0.47826 
 H                    -8.87505  -0.82703   1.15666 
 C                    -0.14011   1.30754   0.37051 
 H                     0.44906   1.57314   1.23963 
 H                     0.3409    3.97282   0.15871 
 O                     1.30607   4.18004   0.13044 
 O                     2.95262   3.50638  -0.98647 
 N                     1.79244   3.38173  -0.85479 
 
 Add virtual bond connecting atoms H47        and O28        Dist= 3.25D+00.

 GradGradGradGradGradGradGradGradGradGradGradGradGradGradGradGradGradGrad
 Berny optimization.
 Initialization pass.
                           ----------------------------
                           !    Initial Parameters    !
                           ! (Angstroms and Degrees)  !
 --------------------------                            --------------------------
 ! Name  Definition              Value          Derivative Info.                !
 --------------------------------------------------------------------------------
 ! R1    R(1,2)                  1.0871         calculate D2E/DX2 analytically  !
 ! R2    R(1,3)                  1.3411         calculate D2E/DX2 analytically  !
 ! R3    R(1,7)                  1.4621         calculate D2E/DX2 analytically  !
 ! R4    R(3,4)                  1.0857         calculate D2E/DX2 analytically  !
 ! R5    R(3,5)                  1.4764         calculate D2E/DX2 analytically  !
 ! R6    R(5,6)                  1.2266         calculate D2E/DX2 analytically  !
 ! R7    R(5,45)                 1.4612         calculate D2E/DX2 analytically  !
 ! R8    R(7,8)                  1.3967         calculate D2E/DX2 analytically  !
 ! R9    R(7,9)                  1.4042         calculate D2E/DX2 analytically  !
 ! R10   R(8,10)                 1.3891         calculate D2E/DX2 analytically  !
 ! R11   R(8,11)                 1.0849         calculate D2E/DX2 analytically  !
 ! R12   R(9,12)                 1.3806         calculate D2E/DX2 analytically  !
 ! R13   R(9,13)                 1.0845         calculate D2E/DX2 analytically  !
 ! R14   R(10,14)                1.3901         calculate D2E/DX2 analytically  !
 ! R15   R(10,15)                1.0858         calculate D2E/DX2 analytically  !
 ! R16   R(12,14)                1.4083         calculate D2E/DX2 analytically  !
 ! R17   R(12,18)                1.3644         calculate D2E/DX2 analytically  !
 ! R18   R(14,16)                1.3519         calculate D2E/DX2 analytically  !
 ! R19   R(16,17)                0.9659         calculate D2E/DX2 analytically  !
 ! R20   R(18,19)                1.4272         calculate D2E/DX2 analytically  !
 ! R21   R(19,20)                1.094          calculate D2E/DX2 analytically  !
 ! R22   R(19,21)                1.0886         calculate D2E/DX2 analytically  !
 ! R23   R(19,22)                1.0915         calculate D2E/DX2 analytically  !
 ! R24   R(23,24)                1.087          calculate D2E/DX2 analytically  !
 ! R25   R(23,25)                1.3454         calculate D2E/DX2 analytically  !
 ! R26   R(23,29)                1.4562         calculate D2E/DX2 analytically  !
 ! R27   R(25,26)                1.085          calculate D2E/DX2 analytically  !
 ! R28   R(25,27)                1.4539         calculate D2E/DX2 analytically  !
 ! R29   R(27,28)                1.231          calculate D2E/DX2 analytically  !
 ! R30   R(27,45)                1.4883         calculate D2E/DX2 analytically  !
 ! R31   R(28,47)                1.7199         calculate D2E/DX2 analytically  !
 ! R32   R(29,30)                1.3983         calculate D2E/DX2 analytically  !
 ! R33   R(29,31)                1.4056         calculate D2E/DX2 analytically  !
 ! R34   R(30,32)                1.388          calculate D2E/DX2 analytically  !
 ! R35   R(30,33)                1.0848         calculate D2E/DX2 analytically  !
 ! R36   R(31,34)                1.3793         calculate D2E/DX2 analytically  !
 ! R37   R(31,35)                1.0844         calculate D2E/DX2 analytically  !
 ! R38   R(32,36)                1.3911         calculate D2E/DX2 analytically  !
 ! R39   R(32,37)                1.086          calculate D2E/DX2 analytically  !
 ! R40   R(34,36)                1.4092         calculate D2E/DX2 analytically  !
 ! R41   R(34,40)                1.3637         calculate D2E/DX2 analytically  !
 ! R42   R(36,38)                1.3495         calculate D2E/DX2 analytically  !
 ! R43   R(38,39)                0.9662         calculate D2E/DX2 analytically  !
 ! R44   R(40,41)                1.4278         calculate D2E/DX2 analytically  !
 ! R45   R(41,42)                1.0939         calculate D2E/DX2 analytically  !
 ! R46   R(41,43)                1.0885         calculate D2E/DX2 analytically  !
 ! R47   R(41,44)                1.0916         calculate D2E/DX2 analytically  !
 ! R48   R(45,46)                1.0831         calculate D2E/DX2 analytically  !
 ! R49   R(47,48)                0.9876         calculate D2E/DX2 analytically  !
 ! R50   R(48,50)                1.3581         calculate D2E/DX2 analytically  !
 ! R51   R(49,50)                1.1743         calculate D2E/DX2 analytically  !
 ! A1    A(2,1,3)              119.5157         calculate D2E/DX2 analytically  !
 ! A2    A(2,1,7)              113.8842         calculate D2E/DX2 analytically  !
 ! A3    A(3,1,7)              126.5817         calculate D2E/DX2 analytically  !
 ! A4    A(1,3,4)              121.35           calculate D2E/DX2 analytically  !
 ! A5    A(1,3,5)              125.5023         calculate D2E/DX2 analytically  !
 ! A6    A(4,3,5)              112.9719         calculate D2E/DX2 analytically  !
 ! A7    A(3,5,6)              119.9623         calculate D2E/DX2 analytically  !
 ! A8    A(3,5,45)             119.5517         calculate D2E/DX2 analytically  !
 ! A9    A(6,5,45)             120.483          calculate D2E/DX2 analytically  !
 ! A10   A(1,7,8)              118.6926         calculate D2E/DX2 analytically  !
 ! A11   A(1,7,9)              123.0449         calculate D2E/DX2 analytically  !
 ! A12   A(8,7,9)              118.2609         calculate D2E/DX2 analytically  !
 ! A13   A(7,8,10)             121.0719         calculate D2E/DX2 analytically  !
 ! A14   A(7,8,11)             119.5539         calculate D2E/DX2 analytically  !
 ! A15   A(10,8,11)            119.37           calculate D2E/DX2 analytically  !
 ! A16   A(7,9,12)             121.2025         calculate D2E/DX2 analytically  !
 ! A17   A(7,9,13)             121.4819         calculate D2E/DX2 analytically  !
 ! A18   A(12,9,13)            117.3125         calculate D2E/DX2 analytically  !
 ! A19   A(8,10,14)            120.1593         calculate D2E/DX2 analytically  !
 ! A20   A(8,10,15)            120.3678         calculate D2E/DX2 analytically  !
 ! A21   A(14,10,15)           119.47           calculate D2E/DX2 analytically  !
 ! A22   A(9,12,14)            119.8161         calculate D2E/DX2 analytically  !
 ! A23   A(9,12,18)            119.9235         calculate D2E/DX2 analytically  !
 ! A24   A(14,12,18)           120.2348         calculate D2E/DX2 analytically  !
 ! A25   A(10,14,12)           119.485          calculate D2E/DX2 analytically  !
 ! A26   A(10,14,16)           123.2995         calculate D2E/DX2 analytically  !
 ! A27   A(12,14,16)           117.2139         calculate D2E/DX2 analytically  !
 ! A28   A(14,16,17)           109.8724         calculate D2E/DX2 analytically  !
 ! A29   A(12,18,19)           113.7813         calculate D2E/DX2 analytically  !
 ! A30   A(18,19,20)           110.3517         calculate D2E/DX2 analytically  !
 ! A31   A(18,19,21)           106.4873         calculate D2E/DX2 analytically  !
 ! A32   A(18,19,22)           111.1886         calculate D2E/DX2 analytically  !
 ! A33   A(20,19,21)           109.4673         calculate D2E/DX2 analytically  !
 ! A34   A(20,19,22)           109.7941         calculate D2E/DX2 analytically  !
 ! A35   A(21,19,22)           109.4859         calculate D2E/DX2 analytically  !
 ! A36   A(24,23,25)           118.4655         calculate D2E/DX2 analytically  !
 ! A37   A(24,23,29)           114.5898         calculate D2E/DX2 analytically  !
 ! A38   A(25,23,29)           126.9443         calculate D2E/DX2 analytically  !
 ! A39   A(23,25,26)           122.7109         calculate D2E/DX2 analytically  !
 ! A40   A(23,25,27)           122.8031         calculate D2E/DX2 analytically  !
 ! A41   A(26,25,27)           114.436          calculate D2E/DX2 analytically  !
 ! A42   A(25,27,28)           120.694          calculate D2E/DX2 analytically  !
 ! A43   A(25,27,45)           122.1285         calculate D2E/DX2 analytically  !
 ! A44   A(28,27,45)           117.1412         calculate D2E/DX2 analytically  !
 ! A45   A(27,28,47)           117.4361         calculate D2E/DX2 analytically  !
 ! A46   A(23,29,30)           118.636          calculate D2E/DX2 analytically  !
 ! A47   A(23,29,31)           123.0239         calculate D2E/DX2 analytically  !
 ! A48   A(30,29,31)           118.3396         calculate D2E/DX2 analytically  !
 ! A49   A(29,30,32)           121.0552         calculate D2E/DX2 analytically  !
 ! A50   A(29,30,33)           119.4694         calculate D2E/DX2 analytically  !
 ! A51   A(32,30,33)           119.4739         calculate D2E/DX2 analytically  !
 ! A52   A(29,31,34)           121.1361         calculate D2E/DX2 analytically  !
 ! A53   A(29,31,35)           121.6179         calculate D2E/DX2 analytically  !
 ! A54   A(34,31,35)           117.2429         calculate D2E/DX2 analytically  !
 ! A55   A(30,32,36)           120.0644         calculate D2E/DX2 analytically  !
 ! A56   A(30,32,37)           120.4224         calculate D2E/DX2 analytically  !
 ! A57   A(36,32,37)           119.511          calculate D2E/DX2 analytically  !
 ! A58   A(31,34,36)           119.7854         calculate D2E/DX2 analytically  !
 ! A59   A(31,34,40)           120.0395         calculate D2E/DX2 analytically  !
 ! A60   A(36,34,40)           120.1529         calculate D2E/DX2 analytically  !
 ! A61   A(32,36,34)           119.6169         calculate D2E/DX2 analytically  !
 ! A62   A(32,36,38)           123.3295         calculate D2E/DX2 analytically  !
 ! A63   A(34,36,38)           117.052          calculate D2E/DX2 analytically  !
 ! A64   A(36,38,39)           109.9986         calculate D2E/DX2 analytically  !
 ! A65   A(34,40,41)           113.7127         calculate D2E/DX2 analytically  !
 ! A66   A(40,41,42)           110.3215         calculate D2E/DX2 analytically  !
 ! A67   A(40,41,43)           106.4788         calculate D2E/DX2 analytically  !
 ! A68   A(40,41,44)           111.1752         calculate D2E/DX2 analytically  !
 ! A69   A(42,41,43)           109.5045         calculate D2E/DX2 analytically  !
 ! A70   A(42,41,44)           109.8047         calculate D2E/DX2 analytically  !
 ! A71   A(43,41,44)           109.4908         calculate D2E/DX2 analytically  !
 ! A72   A(5,45,27)            122.8259         calculate D2E/DX2 analytically  !
 ! A73   A(5,45,46)            121.1422         calculate D2E/DX2 analytically  !
 ! A74   A(27,45,46)           115.3844         calculate D2E/DX2 analytically  !
 ! A75   A(47,48,50)           104.325          calculate D2E/DX2 analytically  !
 ! A76   A(48,50,49)           111.8866         calculate D2E/DX2 analytically  !
 ! A77   L(28,47,48,1,-1)      170.4109         calculate D2E/DX2 analytically  !
 ! A78   L(28,47,48,1,-2)      177.6742         calculate D2E/DX2 analytically  !
 ! D1    D(2,1,3,4)            177.3216         calculate D2E/DX2 analytically  !
 ! D2    D(2,1,3,5)              2.4876         calculate D2E/DX2 analytically  !
 ! D3    D(7,1,3,4)             -1.0195         calculate D2E/DX2 analytically  !
 ! D4    D(7,1,3,5)           -175.8535         calculate D2E/DX2 analytically  !
 ! D5    D(2,1,7,8)             -4.1757         calculate D2E/DX2 analytically  !
 ! D6    D(2,1,7,9)            176.2947         calculate D2E/DX2 analytically  !
 ! D7    D(3,1,7,8)            174.2455         calculate D2E/DX2 analytically  !
 ! D8    D(3,1,7,9)             -5.2841         calculate D2E/DX2 analytically  !
 ! D9    D(1,3,5,6)            166.868          calculate D2E/DX2 analytically  !
 ! D10   D(1,3,5,45)           -12.5108         calculate D2E/DX2 analytically  !
 ! D11   D(4,3,5,6)             -8.3412         calculate D2E/DX2 analytically  !
 ! D12   D(4,3,5,45)           172.2801         calculate D2E/DX2 analytically  !
 ! D13   D(3,5,45,27)          165.1919         calculate D2E/DX2 analytically  !
 ! D14   D(3,5,45,46)           -5.1555         calculate D2E/DX2 analytically  !
 ! D15   D(6,5,45,27)          -14.1835         calculate D2E/DX2 analytically  !
 ! D16   D(6,5,45,46)          175.4691         calculate D2E/DX2 analytically  !
 ! D17   D(1,7,8,10)          -178.9233         calculate D2E/DX2 analytically  !
 ! D18   D(1,7,8,11)             0.3293         calculate D2E/DX2 analytically  !
 ! D19   D(9,7,8,10)             0.629          calculate D2E/DX2 analytically  !
 ! D20   D(9,7,8,11)           179.8816         calculate D2E/DX2 analytically  !
 ! D21   D(1,7,9,12)           178.8449         calculate D2E/DX2 analytically  !
 ! D22   D(1,7,9,13)            -0.4967         calculate D2E/DX2 analytically  !
 ! D23   D(8,7,9,12)            -0.6866         calculate D2E/DX2 analytically  !
 ! D24   D(8,7,9,13)           179.9718         calculate D2E/DX2 analytically  !
 ! D25   D(7,8,10,14)           -0.098          calculate D2E/DX2 analytically  !
 ! D26   D(7,8,10,15)          179.28           calculate D2E/DX2 analytically  !
 ! D27   D(11,8,10,14)        -179.3519         calculate D2E/DX2 analytically  !
 ! D28   D(11,8,10,15)           0.0261         calculate D2E/DX2 analytically  !
 ! D29   D(7,9,12,14)            0.2125         calculate D2E/DX2 analytically  !
 ! D30   D(7,9,12,18)         -177.9492         calculate D2E/DX2 analytically  !
 ! D31   D(13,9,12,14)         179.5805         calculate D2E/DX2 analytically  !
 ! D32   D(13,9,12,18)           1.4188         calculate D2E/DX2 analytically  !
 ! D33   D(8,10,14,12)          -0.3902         calculate D2E/DX2 analytically  !
 ! D34   D(8,10,14,16)         179.1247         calculate D2E/DX2 analytically  !
 ! D35   D(15,10,14,12)       -179.7738         calculate D2E/DX2 analytically  !
 ! D36   D(15,10,14,16)         -0.2589         calculate D2E/DX2 analytically  !
 ! D37   D(9,12,14,10)           0.3332         calculate D2E/DX2 analytically  !
 ! D38   D(9,12,14,16)        -179.2109         calculate D2E/DX2 analytically  !
 ! D39   D(18,12,14,10)        178.4891         calculate D2E/DX2 analytically  !
 ! D40   D(18,12,14,16)         -1.055          calculate D2E/DX2 analytically  !
 ! D41   D(9,12,18,19)        -108.0712         calculate D2E/DX2 analytically  !
 ! D42   D(14,12,18,19)         73.7749         calculate D2E/DX2 analytically  !
 ! D43   D(10,14,16,17)         -0.2696         calculate D2E/DX2 analytically  !
 ! D44   D(12,14,16,17)        179.2556         calculate D2E/DX2 analytically  !
 ! D45   D(12,18,19,20)         60.5622         calculate D2E/DX2 analytically  !
 ! D46   D(12,18,19,21)        179.2794         calculate D2E/DX2 analytically  !
 ! D47   D(12,18,19,22)        -61.5222         calculate D2E/DX2 analytically  !
 ! D48   D(24,23,25,26)       -179.2796         calculate D2E/DX2 analytically  !
 ! D49   D(24,23,25,27)         -1.9937         calculate D2E/DX2 analytically  !
 ! D50   D(29,23,25,26)          0.4944         calculate D2E/DX2 analytically  !
 ! D51   D(29,23,25,27)        177.7803         calculate D2E/DX2 analytically  !
 ! D52   D(24,23,29,30)         -1.5291         calculate D2E/DX2 analytically  !
 ! D53   D(24,23,29,31)        178.2099         calculate D2E/DX2 analytically  !
 ! D54   D(25,23,29,30)        178.6893         calculate D2E/DX2 analytically  !
 ! D55   D(25,23,29,31)         -1.5717         calculate D2E/DX2 analytically  !
 ! D56   D(23,25,27,28)       -173.0666         calculate D2E/DX2 analytically  !
 ! D57   D(23,25,27,45)          4.6802         calculate D2E/DX2 analytically  !
 ! D58   D(26,25,27,28)          4.4252         calculate D2E/DX2 analytically  !
 ! D59   D(26,25,27,45)       -177.828          calculate D2E/DX2 analytically  !
 ! D60   D(25,27,28,47)       -174.4804         calculate D2E/DX2 analytically  !
 ! D61   D(45,27,28,47)          7.6638         calculate D2E/DX2 analytically  !
 ! D62   D(25,27,45,5)          64.4814         calculate D2E/DX2 analytically  !
 ! D63   D(25,27,45,46)       -124.6586         calculate D2E/DX2 analytically  !
 ! D64   D(28,27,45,5)        -117.6959         calculate D2E/DX2 analytically  !
 ! D65   D(28,27,45,46)         53.1642         calculate D2E/DX2 analytically  !
 ! D66   D(27,28,48,50)         47.8788         calculate D2E/DX2 analytically  !
 ! D67   D(23,29,30,32)       -179.7954         calculate D2E/DX2 analytically  !
 ! D68   D(23,29,30,33)         -0.2454         calculate D2E/DX2 analytically  !
 ! D69   D(31,29,30,32)          0.4532         calculate D2E/DX2 analytically  !
 ! D70   D(31,29,30,33)       -179.9967         calculate D2E/DX2 analytically  !
 ! D71   D(23,29,31,34)        179.701          calculate D2E/DX2 analytically  !
 ! D72   D(23,29,31,35)          0.3551         calculate D2E/DX2 analytically  !
 ! D73   D(30,29,31,34)         -0.5593         calculate D2E/DX2 analytically  !
 ! D74   D(30,29,31,35)       -179.9051         calculate D2E/DX2 analytically  !
 ! D75   D(29,30,32,36)         -0.059          calculate D2E/DX2 analytically  !
 ! D76   D(29,30,32,37)        179.4054         calculate D2E/DX2 analytically  !
 ! D77   D(33,30,32,36)       -179.609          calculate D2E/DX2 analytically  !
 ! D78   D(33,30,32,37)         -0.1446         calculate D2E/DX2 analytically  !
 ! D79   D(29,31,34,36)          0.2691         calculate D2E/DX2 analytically  !
 ! D80   D(29,31,34,40)       -178.0175         calculate D2E/DX2 analytically  !
 ! D81   D(35,31,34,36)        179.6426         calculate D2E/DX2 analytically  !
 ! D82   D(35,31,34,40)          1.356          calculate D2E/DX2 analytically  !
 ! D83   D(30,32,36,34)         -0.2417         calculate D2E/DX2 analytically  !
 ! D84   D(30,32,36,38)        179.2774         calculate D2E/DX2 analytically  !
 ! D85   D(37,32,36,34)       -179.7111         calculate D2E/DX2 analytically  !
 ! D86   D(37,32,36,38)         -0.1919         calculate D2E/DX2 analytically  !
 ! D87   D(31,34,36,32)          0.1374         calculate D2E/DX2 analytically  !
 ! D88   D(31,34,36,38)       -179.4115         calculate D2E/DX2 analytically  !
 ! D89   D(40,34,36,32)        178.422          calculate D2E/DX2 analytically  !
 ! D90   D(40,34,36,38)         -1.1269         calculate D2E/DX2 analytically  !
 ! D91   D(31,34,40,41)       -107.1761         calculate D2E/DX2 analytically  !
 ! D92   D(36,34,40,41)         74.5436         calculate D2E/DX2 analytically  !
 ! D93   D(32,36,38,39)          0.049          calculate D2E/DX2 analytically  !
 ! D94   D(34,36,38,39)        179.5797         calculate D2E/DX2 analytically  !
 ! D95   D(34,40,41,42)         60.5336         calculate D2E/DX2 analytically  !
 ! D96   D(34,40,41,43)        179.274          calculate D2E/DX2 analytically  !
 ! D97   D(34,40,41,44)        -61.5344         calculate D2E/DX2 analytically  !
 ! D98   D(47,48,50,49)       -178.7261         calculate D2E/DX2 analytically  !
 --------------------------------------------------------------------------------
 Trust Radius=3.00D-01 FncErr=1.00D-07 GrdErr=1.00D-06 EigMax=2.50D+02 EigMin=1.00D-04
 Number of steps in this run=    237 maximum allowed number of steps=    300.
 GradGradGradGradGradGradGradGradGradGradGradGradGradGradGradGradGradGrad

                          Input orientation:                          
 ---------------------------------------------------------------------
 Center     Atomic      Atomic             Coordinates (Angstroms)
 Number     Number       Type             X           Y           Z
 ---------------------------------------------------------------------
      1          6           0        2.694394    0.351131    0.300052
      2          1           0        2.449758    1.168149    0.974142
      3          6           0        1.748416   -0.139429   -0.514174
      4          1           0        1.970786   -0.925593   -1.229254
      5          6           0        0.367286    0.369755   -0.628557
      6          8           0       -0.341365    0.013663   -1.564234
      7          6           0        4.090140   -0.078229    0.372310
      8          6           0        4.967477    0.629169    1.197310
      9          6           0        4.595427   -1.165990   -0.357938
     10          6           0        6.308472    0.277868    1.286205
     11          1           0        4.599818    1.474431    1.769446
     12          6           0        5.926399   -1.524099   -0.278876
     13          1           0        3.960639   -1.751681   -1.013804
     14          6           0        6.799941   -0.793893    0.549935
     15          1           0        6.982991    0.843024    1.922341
     16          8           0        8.095330   -1.179784    0.575076
     17          1           0        8.598310   -0.603227    1.164689
     18          8           0        6.398534   -2.559404   -1.031706
     19          6           0        6.700356   -3.730889   -0.274411
     20          1           0        5.801981   -4.100662    0.228707
     21          1           0        7.050846   -4.476750   -0.985651
     22          1           0        7.481851   -3.534275    0.461779
     23          6           0       -2.887170    0.169572    0.193326
     24          1           0       -2.026106   -0.466184    0.383184
     25          6           0       -2.687724    1.491776    0.044758
     26          1           0       -3.498081    2.190373   -0.135397
     27          6           0       -1.377477    2.109598    0.169146
     28          8           0       -1.256138    3.334516    0.151973
     29          6           0       -4.159692   -0.535854    0.132950
     30          6           0       -4.163252   -1.925777    0.285300
     31          6           0       -5.388535    0.116644   -0.066480
     32          6           0       -5.346794   -2.648853    0.232210
     33          1           0       -3.225206   -2.448052    0.440248
     34          6           0       -6.570958   -0.591250   -0.123264
     35          1           0       -5.447304    1.192068   -0.192299
     36          6           0       -6.555830   -1.992463    0.025920
     37          1           0       -5.336589   -3.729202    0.342244
     38          8           0       -7.742346   -2.630731   -0.051136
     39          1           0       -7.613486   -3.582071    0.057815
     40          8           0       -7.745879    0.059975   -0.357996
     41          6           0       -8.586350    0.160418    0.791814
     42          1           0       -8.078620    0.715228    1.586238
     43          1           0       -9.474656    0.705746    0.478256
     44          1           0       -8.875047   -0.827025    1.156661
     45          6           0       -0.140113    1.307538    0.370505
     46          1           0        0.449062    1.573141    1.239628
     47          1           0        0.340899    3.972819    0.158710
     48          8           0        1.306070    4.180036    0.130444
     49          8           0        2.952620    3.506381   -0.986472
     50          7           0        1.792440    3.381725   -0.854790
 ---------------------------------------------------------------------
                    Distance matrix (angstroms):
                    1          2          3          4          5
     1  C    0.000000
     2  H    1.087089   0.000000
     3  C    1.341077   2.101601   0.000000
     4  H    2.119531   3.077032   1.085745   0.000000
     5  C    2.505612   2.746410   1.476439   2.147085   0.000000
     6  O    3.578447   3.945448   2.343768   2.518026   1.226572
     7  C    1.462080   2.146279   2.504650   2.788314   3.880988
     8  C    2.459529   2.584417   3.725892   4.157602   4.956092
     9  C    2.519630   3.438973   3.030463   2.775918   4.506542
    10  C    3.746922   3.972362   4.920326   5.156682   6.242792
    11  H    2.655478   2.312807   3.993740   4.654474   4.988492
    12  C    3.781204   4.572230   4.407745   4.111971   5.883256
    13  H    2.784136   3.841887   2.782610   2.165261   4.190596
    14  C    4.269548   4.790997   5.203706   5.148164   6.642437
    15  H    4.611490   4.642735   5.856842   6.179220   7.106238
    16  O    5.620449   6.127359   6.523199   6.389856   7.973234
    17  H    6.042733   6.401466   7.067867   7.054003   8.480105
    18  O    4.895452   5.788861   5.267610   4.723697   6.717027
    19  C    5.748098   6.605077   6.121910   5.581240   7.553044
    20  H    5.429608   6.289153   5.716173   5.185052   7.089107
    21  H    6.628736   7.541597   6.866615   6.202989   8.263540
    22  H    6.167842   6.906321   6.734222   6.327452   8.188243
    23  C    5.585536   5.485402   4.699436   5.179079   3.362596
    24  H    4.791454   4.801420   3.893461   4.334300   2.729604
    25  C    5.507580   5.230890   4.759472   5.400787   3.323458
    26  H    6.474502   6.136188   5.753015   6.388605   4.301037
    27  C    4.437283   4.022695   3.911043   4.730621   2.589900
    28  O    4.952698   4.370672   4.641055   5.519905   3.469084
    29  C    6.913260   6.877213   5.956649   6.292079   4.679054
    30  C    7.225776   7.333402   6.227200   6.396926   5.160463
    31  C    8.094632   7.976678   7.155562   7.523158   5.788737
    32  C    8.582844   8.712416   7.562824   7.658491   6.519480
    33  H    6.549561   6.750346   5.565750   5.665991   4.689177
    34  C    9.322769   9.255977   8.340800   8.619535   7.022683
    35  H    8.199807   7.982778   7.324949   7.783818   5.888631
    36  C    9.546425   9.591100   8.525605   8.684288   7.344246
    37  H    9.008195   9.220116   7.988568   7.982954   7.090705
    38  O   10.860036  10.925277   9.823215   9.931787   8.666168
    39  H   11.035450  11.165712   9.991204  10.028544   8.932007
    40  O   10.465042  10.341840   9.497673   9.805305   8.123584
    41  C   11.293068  11.083521  10.421272  10.803576   9.068014
    42  H   10.855629  10.555877  10.085277  10.564556   8.738306
    43  H   12.175520  11.943675  11.298521  11.686531   9.909679
    44  H   11.660780  11.500663  10.776012  11.105602   9.488941
    45  C    2.992342   2.662938   2.538289   3.464390   1.461169
    46  H    2.723532   2.058467   2.774354   3.828145   2.223722
    47  H    4.321521   3.602553   4.398234   5.345785   3.688164
    48  O    4.076362   3.330362   4.389645   5.325230   3.996954
    49  O    3.417225   3.092605   3.868476   4.545914   4.080500
    50  N    3.366256   2.945671   3.537864   4.327241   3.339792
                    6          7          8          9         10
     6  O    0.000000
     7  C    4.837032   0.000000
     8  C    6.015711   1.396695   0.000000
     9  C    5.217149   1.404208   2.404124   0.000000
    10  C    7.239830   2.425491   1.389094   2.778931   0.000000
    11  H    6.136983   2.150003   1.084887   3.390812   2.141211
    12  C    6.580404   2.426197   2.781226   1.380572   2.417135
    13  H    4.682590   2.176815   3.401646   1.084504   3.862827
    14  C    7.491336   2.808335   2.408760   2.413001   1.390074
    15  H    8.154155   3.408796   2.152603   3.864747   1.085839
    16  O    8.785146   4.158856   3.666463   3.622158   2.413155
    17  H    9.367249   4.607286   3.834425   4.319510   2.456512
    18  O    7.233982   3.668266   4.145291   2.376291   3.664824
    19  C    8.079056   4.535791   4.917208   3.319098   4.319633
    20  H    7.608088   4.373899   4.899581   3.226798   4.532809
    21  H    8.668526   5.473283   5.930949   4.169441   5.321545
    22  H    8.825831   4.843136   4.919080   3.822585   4.072951
    23  C    3.097491   6.984003   7.931878   7.620819   9.260990
    24  H    2.619359   6.128547   7.125504   6.699529   8.416309
    25  C    3.206099   6.965030   7.789388   7.763387   9.162222
    26  H    4.092004   7.936335   8.710863   8.764677  10.091933
    27  C    2.910512   5.892597   6.596001   6.832487   7.979779
    28  O    3.848408   6.346500   6.866223   7.399688   8.237287
    29  C    4.214502   8.265981   9.262578   8.791482  10.562888
    30  C    4.667871   8.458102   9.525215   8.815072  10.747784
    31  C    5.265719   9.490827  10.445422  10.070233  11.776066
    32  C    5.947312   9.781792  10.865589  10.069504  12.063243
    33  H    4.288884   7.689926   8.784218   7.965117   9.951749
    34  C    6.422627  10.684933  11.677706  11.183629  12.985441
    35  H    5.416776   9.638220  10.522145  10.317186  11.883602
    36  C    6.721064  10.822244  11.875677  11.188429  13.123757
    37  H    6.526558  10.109091  11.220531  10.281306  12.351320
    38  O    8.003550  12.112072  13.180484  12.428203  14.410896
    39  H    8.273094  12.220911  13.315916  12.452624  14.499275
    40  O    7.502265  11.859334  12.820779  12.402049  14.151878
    41  C    8.576262  12.685674  13.567991  13.298140  14.903487
    42  H    8.383483  12.254873  13.052177  12.959563  14.396865
    43  H    9.384442  13.587845  14.460225  14.218645  15.809585
    44  H    8.996319  13.010456  13.918966  13.559594  15.224218
    45  C    2.336200   4.451449   5.218359   5.392060   6.594162
    46  H    3.304299   4.091053   4.616162   5.219904   6.001049
    47  H    4.371377   5.523896   5.802061   6.691434   7.108856
    48  O    4.790056   5.093365   5.210831   6.295902   6.448777
    49  O    4.835620   3.998708   4.136049   4.992486   5.181708
    50  N    4.049725   4.330875   4.676381   5.365194   5.883225
                   11         12         13         14         15
    11  H    0.000000
    12  C    3.866086   0.000000
    13  H    4.308460   2.110954   0.000000
    14  C    3.387188   1.408263   3.379981   0.000000
    15  H    2.470135   3.400737   4.948541   2.143946   0.000000
    16  O    4.548624   2.356279   4.466237   1.351879   2.672859
    17  H    4.546464   3.173483   5.250978   1.910080   2.296722
    18  O    5.230072   1.364376   2.568281   2.404110   4.543622
    19  C    5.973690   2.338579   3.459771   3.052115   5.081957
    20  H    5.907684   2.629030   3.232969   3.468982   5.357538
    21  H    7.001047   3.237601   4.120215   3.998051   6.063086
    22  H    5.924799   2.647415   4.213540   2.825326   4.641427
    23  C    7.761559   8.987241   7.213935   9.741435  10.043063
    24  H    7.042058   8.049835   6.280541   8.833703   9.232923
    25  C    7.488866   9.132544   7.472703   9.772168   9.872635
    26  H    8.349669  10.131077   8.481975  10.743593  10.765803
    27  C    6.220326   8.170134   6.693604   8.685933   8.635701
    28  O    6.353610   8.682201   7.378563   9.061045   8.787775
    29  C    9.135009  10.142754   8.290540  10.970598  11.369372
    30  C    9.516065  10.113392   8.228948  11.024645  11.601073
    31  C   10.246043  11.435247   9.580977  12.237973  12.551402
    32  C   10.876565  11.340686   9.433227  12.291664  12.925686
    33  H    8.853454   9.226197   7.364480  10.161292  10.827514
    34  C   11.516754  12.533090  10.632695  13.389369  13.782278
    35  H   10.240744  11.693852   9.891912  12.429399  12.613713
    36  C   11.811339  12.494731  10.570484  13.419679  13.961951
    37  H   11.306940  11.493614   9.601453  12.488176  13.235332
    38  O   13.133769  13.715360  11.775369  14.670152  15.257691
    39  H   13.329017  13.699529  11.766863  14.688873  15.366036
    40  O   12.607257  13.763965  11.864011  14.599120  14.924902
    41  C   13.287491  14.649364  12.819646  15.417755  15.625249
    42  H   12.702470  14.305027  12.561434  14.990762  15.065903
    43  H   14.154465  15.580050  13.739445  16.343701  16.521452
    44  H   13.683720  14.887225  13.050699  15.686761  15.964107
    45  C    4.944880   6.726249   5.300123   7.253451   7.304969
    46  H    4.185597   6.473019   5.335126   6.812649   6.609947
    47  H    5.193727   7.848911   6.873660   8.037028   7.551384
    48  O    4.566771   7.352016   6.598584   7.422840   6.824513
    49  O    3.799627   5.886407   5.353883   5.971163   5.639021
    50  N    4.290193   6.441149   5.574785   6.669640   6.410872
                   16         17         18         19         20
    16  O    0.000000
    17  H    0.965945   0.000000
    18  O    2.713709   3.672845   0.000000
    19  C    3.029145   3.931349   1.427224   0.000000
    20  H    3.729739   4.574666   2.078459   1.094046   0.000000
    21  H    3.794312   4.692844   2.025796   1.088584   1.782069
    22  H    2.435738   3.214281   2.086731   1.091498   1.788038
    23  C   11.071667  11.552360   9.755630  10.361131   9.681813
    24  H   10.148375  10.654001   8.795342   9.340336   8.632047
    25  C   11.121723  11.533336  10.006544  10.747751  10.167807
    26  H   12.094210  12.482672  11.013934  11.793591  11.233915
    27  C   10.035880  10.385897   9.149206   9.977947   9.492918
    28  O   10.392684  10.660279   9.733108  10.649298  10.252063
    29  C   12.279889  12.799830  10.813293  11.327614  10.580735
    30  C   12.284678  12.860013  10.662425  11.026771  10.199961
    31  C   13.561229  14.059368  12.125506  12.688106  11.962460
    32  C   13.526508  14.125156  11.813476  12.106250  11.242906
    33  H   11.392156  11.988483   9.736294  10.033603   9.179650
    34  C   14.694695  15.223852  13.149396  13.638473  12.865826
    35  H   13.770166  14.224759  12.453996  13.107551  12.439319
    36  C   14.683954  15.260234  13.009825  13.373062  12.537987
    37  H   13.673704  14.304878  11.873048  12.052730  11.145340
    38  O   15.916324  16.510786  14.175016  14.486264  13.626731
    39  H   15.899857  16.520321  14.091473  14.318470  13.426574
    40  O   15.917020  16.428357  14.400675  14.935573  14.184486
    41  C   16.736833  17.205660  15.338494  15.810202  15.016590
    42  H   16.315949  16.734277  15.071988  15.545035  14.754890
    43  H   17.671135  18.133304  16.275729  16.789320  16.016850
    44  H   16.984004  17.474792  15.526505  15.908286  15.066285
    45  C    8.605297   8.980077   7.724852   8.520192   8.035995
    46  H    8.153873   8.435190   7.591647   8.336889   7.865605
    47  H    9.319543   9.494052   8.987879   9.998870   9.747277
    48  O    8.661375   8.782143   8.526654   9.583578   9.422995
    49  O    7.130641   7.306859   6.976397   8.181114   8.213563
    50  N    7.910645   8.141130   7.519602   8.661048   8.557833
                   21         22         23         24         25
    21  H    0.000000
    22  H    1.780190   0.000000
    23  C   11.033696  11.013952   0.000000
    24  H   10.017455   9.991026   1.087043   0.000000
    25  C   11.468426  11.351447   1.345390   2.094249   0.000000
    26  H   12.508130  12.397061   2.136564   3.081060   1.084976
    27  C   10.758725  10.508408   2.458345   2.664805   1.453934
    28  O   11.459321  11.118845   3.560737   3.884795   2.335942
    29  C   11.935581  12.025979   1.456222   2.149339   2.507140
    30  C   11.570600  11.756991   2.455063   2.589862   3.730243
    31  C   13.292191  13.388618   2.515378   3.442066   3.032778
    32  C   12.590706  12.861213   3.740960   3.976658   4.924490
    33  H   10.571000  10.762036   2.650886   2.317088   3.995941
    34  C   14.191348  14.369590   3.774834   4.574692   4.409845
    35  H   13.746587  13.781480   2.783611   3.845202   2.785911
    36  C   13.868547  14.128823   4.261630   4.793283   5.206008
    37  H   12.480812  12.820479   4.606763   4.648469   5.862047
    38  O   14.937190  15.259608   5.610186   6.127748   6.523302
    39  H   14.728608  15.100817   6.035831   6.405734   7.071579
    40  O   15.489316  15.667623   4.891116   5.791545   5.272305
    41  C   16.406846  16.490808   5.730526   6.602758   6.092979
    42  H   16.200987  16.169445   5.402694   6.282993   5.660472
    43  H   17.380837  17.478592   6.615409   7.540780   6.846036
    44  H   16.478594  16.593980   6.146209   6.901918   6.700458
    45  C    9.327756   9.030272   2.978705   2.589058   2.574952
    46  H    9.226950   8.726446   3.767651   3.319458   3.357642
    47  H   10.850261  10.365399   4.988619   5.035658   3.916774
    48  O   10.449309   9.887398   5.802675   5.723166   4.815026
    49  O    8.973619   8.496011   6.828570   6.514978   6.077462
    50  N    9.456405   9.051730   5.771934   5.560600   4.944994
                   26         27         28         29         30
    26  H    0.000000
    27  C    2.143883   0.000000
    28  O    2.533368   1.231033   0.000000
    29  C    2.818165   3.839329   4.838466   0.000000
    30  C    4.190719   4.904925   6.011636   1.398252   0.000000
    31  C    2.806941   4.485083   5.242054   1.405554   2.407603
    32  C    5.193360   6.196960   7.248490   2.425660   1.387959
    33  H    4.681967   4.925421   6.115425   2.150395   1.084763
    34  C    4.144894   5.861086   6.613222   2.425473   2.782972
    35  H    2.190735   4.187600   4.719585   2.179322   3.405561
    36  C    5.183818   6.607780   7.515273   2.806179   2.407520
    37  H    6.216882   7.056636   8.159804   3.409745   2.152279
    38  O    6.423701   7.939194   8.814552   4.154252   3.663340
    39  H    7.091897   8.443654   9.394888   4.605842   3.833950
    40  O    4.757303   6.710840   7.286935   3.668348   4.146355
    41  C    5.556160   7.493655   8.013508   4.529260   4.916560
    42  H    5.110912   6.989831   7.447419   4.362940   4.898720
    43  H    6.188710   8.223786   8.634867   5.468971   5.930696
    44  H    6.299672   8.112490   8.739313   4.833977   4.916049
    45  C    3.508744   1.488259   2.324200   4.428492   5.162096
    46  H    4.225116   2.184024   2.682003   5.187794   5.867419
    47  H    4.242803   2.534663   1.719885   6.370566   7.422724
    48  O    5.206659   3.389637   2.698199   7.219015   8.198684
    49  O    6.638354   4.694273   4.363398   8.256982   9.042200
    50  N    5.470508   3.565828   3.210861   7.193812   8.058514
                   31         32         33         34         35
    31  C    0.000000
    32  C    2.781894   0.000000
    33  H    3.393292   2.141200   0.000000
    34  C    1.379298   2.420469   3.867727   0.000000
    35  H    1.084353   3.865616   4.311416   2.108930   0.000000
    36  C    2.412353   1.391104   3.387076   1.409213   3.379007
    37  H    3.867853   1.085986   2.471617   3.403984   4.951454
    38  O    3.617835   2.412319   4.547459   2.353048   4.461047
    39  H    4.318142   2.457479   4.548544   3.172486   5.248553
    40  O    2.375976   3.666293   5.231049   1.363683   2.567594
    41  C    3.311285   4.324336   5.972401   2.337558   3.447664
    42  H    3.213462   4.540188   5.905528   2.627228   3.211603
    43  H    4.164152   5.324765   7.000251   3.236586   4.111656
    44  H    3.813443   4.077038   5.921290   2.646247   4.200697
    45  C    5.399548   6.540771   4.860774   6.723464   5.338198
    46  H    6.156691   7.240999   5.505383   7.471462   6.079701
    47  H    6.909936   8.729364   7.350099   8.287581   6.431102
    48  O    7.833752   9.534395   8.034923   9.212877   7.391899
    49  O    9.050501  10.404440   8.698065  10.403569   8.749027
    50  N    7.927710   9.408406   7.800012   9.287954   7.592588
                   36         37         38         39         40
    36  C    0.000000
    37  H    2.145430   0.000000
    38  O    1.349498   2.673771   0.000000
    39  H    1.909583   2.299306   0.966190   0.000000
    40  O    2.403354   4.544544   2.708150   3.668096   0.000000
    41  C    3.056878   5.088438   3.035362   3.935917   1.427776
    42  H    3.476359   5.368353   3.740256   4.584671   2.078490
    43  H    4.000561   6.067196   3.796476   4.693197   2.026082
    44  H    2.831181   4.648289   2.448498   3.223240   2.087097
    45  C    7.222892   7.236913   8.572146   8.936294   7.741757
    46  H    7.953309   7.898981   9.297192   9.642488   8.485230
    47  H    9.119599   9.570198  10.439816  10.970815   8.998517
    48  O    9.996006  10.330819  11.326665  11.824300   9.957472
    49  O   11.030541  11.082876  12.366135  12.766334  11.257468
    50  N    9.967505  10.140080  11.300780  11.738771  10.112386
                   41         42         43         44         45
    41  C    0.000000
    42  H    1.093944   0.000000
    43  H    1.088480   1.782310   0.000000
    44  H    1.091560   1.788121   1.780211   0.000000
    45  C    8.534184   8.052871   9.354542   9.026266   0.000000
    46  H    9.156145   8.577734   9.990608   9.628431   1.083073
    47  H    9.727846   9.139914  10.349927  10.438777   2.716607
    48  O   10.698351  10.109235  11.332066  11.392055   3.224953
    49  O   12.145188  11.666089  12.822877  12.777525   4.030049
    50  N   10.991242  10.512214  11.656986  11.642800   3.088424
                   46         47         48         49         50
    46  H    0.000000
    47  H    2.634110   0.000000
    48  O    2.959840   0.987569   0.000000
    49  O    3.867912   2.889653   2.100581   0.000000
    50  N    3.076073   1.866426   1.358139   1.174264   0.000000
 Stoichiometry    C21H20NO8(2)
 Framework group  C1[X(C21H20NO8)]
 Deg. of freedom   144
 Full point group                 C1      NOp   1
 Largest Abelian subgroup         C1      NOp   1
 Largest concise Abelian subgroup C1      NOp   1
                         Standard orientation:                         
 ---------------------------------------------------------------------
 Center     Atomic      Atomic             Coordinates (Angstroms)
 Number     Number       Type             X           Y           Z
 ---------------------------------------------------------------------
      1          6           0       -2.694394    0.351131   -0.300052
      2          1           0       -2.449758    1.168149   -0.974142
      3          6           0       -1.748416   -0.139429    0.514174
      4          1           0       -1.970786   -0.925593    1.229254
      5          6           0       -0.367286    0.369755    0.628557
      6          8           0        0.341365    0.013663    1.564234
      7          6           0       -4.090140   -0.078229   -0.372310
      8          6           0       -4.967477    0.629169   -1.197310
      9          6           0       -4.595427   -1.165990    0.357938
     10          6           0       -6.308472    0.277868   -1.286205
     11          1           0       -4.599818    1.474431   -1.769446
     12          6           0       -5.926399   -1.524099    0.278876
     13          1           0       -3.960639   -1.751681    1.013804
     14          6           0       -6.799941   -0.793893   -0.549935
     15          1           0       -6.982991    0.843024   -1.922341
     16          8           0       -8.095330   -1.179784   -0.575076
     17          1           0       -8.598310   -0.603227   -1.164689
     18          8           0       -6.398534   -2.559404    1.031706
     19          6           0       -6.700356   -3.730889    0.274411
     20          1           0       -5.801981   -4.100662   -0.228707
     21          1           0       -7.050846   -4.476750    0.985651
     22          1           0       -7.481851   -3.534275   -0.461779
     23          6           0        2.887170    0.169572   -0.193326
     24          1           0        2.026106   -0.466184   -0.383184
     25          6           0        2.687724    1.491776   -0.044758
     26          1           0        3.498081    2.190373    0.135397
     27          6           0        1.377477    2.109598   -0.169146
     28          8           0        1.256138    3.334516   -0.151973
     29          6           0        4.159692   -0.535854   -0.132950
     30          6           0        4.163252   -1.925777   -0.285300
     31          6           0        5.388535    0.116644    0.066480
     32          6           0        5.346794   -2.648853   -0.232210
     33          1           0        3.225206   -2.448052   -0.440248
     34          6           0        6.570958   -0.591250    0.123264
     35          1           0        5.447304    1.192068    0.192299
     36          6           0        6.555830   -1.992463   -0.025920
     37          1           0        5.336589   -3.729202   -0.342244
     38          8           0        7.742346   -2.630731    0.051136
     39          1           0        7.613486   -3.582071   -0.057815
     40          8           0        7.745879    0.059975    0.357996
     41          6           0        8.586350    0.160418   -0.791814
     42          1           0        8.078620    0.715228   -1.586238
     43          1           0        9.474656    0.705746   -0.478256
     44          1           0        8.875047   -0.827025   -1.156661
     45          6           0        0.140113    1.307538   -0.370505
     46          1           0       -0.449062    1.573141   -1.239628
     47          1           0       -0.340899    3.972819   -0.158710
     48          8           0       -1.306070    4.180036   -0.130444
     49          8           0       -2.952620    3.506381    0.986472
     50          7           0       -1.792440    3.381725    0.854790
 ---------------------------------------------------------------------
 Rotational constants (GHZ):           0.2719468           0.0466598           0.0409611
 Standard basis: 6-311G(d) (5D, 7F)
 There are   630 symmetry adapted cartesian basis functions of A   symmetry.
 There are   600 symmetry adapted basis functions of A   symmetry.
   600 basis functions,  1060 primitive gaussians,   630 cartesian basis functions
   109 alpha electrons      108 beta electrons
       nuclear repulsion energy      2612.0576076294 Hartrees.
 NAtoms=   50 NActive=   50 NUniq=   50 SFac= 1.00D+00 NAtFMM=   60 NAOKFM=F Big=F
 Integral buffers will be    131072 words long.
 Raffenetti 2 integral format.
 Two-electron integral symmetry is turned on.
 Force inversion solution in PCM.
 Using the following non-standard input for PCM:
 Eps=7
 EpsInf=1.85341
 HbondAcidity=0
 HbondBasicity=0.48
 SurfaceTensionAtInterface=60.62
 CarbonAromaticity=0
 ElectronegativeHalogenicity=0
 --- end of non-standard input.
 Force inversion solution in PCM.
 ------------------------------------------------------------------------------
 Polarizable Continuum Model (PCM)
 =================================
 Model                : PCM.
 Atomic radii         : SMD-Coulomb.
 Polarization charges : Total charges.
 Charge compensation  : None.
 Solution method      : Matrix inversion.
 Cavity type          : VdW (van der Waals Surface) (Alpha=1.000).
 Cavity algorithm     : GePol (No added spheres)
                        Default sphere list used, NSphG=   50.
                        Lebedev-Laikov grids with approx.  5.0 points / Ang**2.
                        Smoothing algorithm: York/Karplus (Gamma=1.0000).
                        Polarization charges: spherical gaussians, with
                                              point-specific exponents (IZeta= 3).
                        Self-potential: point-specific (ISelfS= 7).
                        Self-field    : sphere-specific E.n sum rule (ISelfD= 2).
 1st derivatives      : Analytical E(r).r(x)/FMM algorithm (CHGder, D1EAlg=3).
                        Cavity 1st derivative terms included.
 2nd derivatives      : Analytical E(r).r(xy)/FMM algorithm (CHGder, D2EAlg=3).
                        Cavity 2nd derivative terms included.
 Solvent              : Generic,
                        Eps                           =   7.000000
                        Eps(infinity)                 =   1.853410
                        RSolv                         =   0.000000 Ang.
                        Molar volume                  =   0.000000 cm**3/mol
                        Thermal expansion coefficient =   0.000000 K**-1
                        Absolute temperature          = 298.150000 K
                        Numeral density               =   0.000000 Ang**-3
                        Hydrogen bond acidity         =   0.000000
                        Hydrogen bond basicity        =   0.480000
                        Surface tension at interface  =  60.620000 (cal/mol)*Ang**-2
                        Carbon aromaticity            =   0.000000
                        Electronegative halogenicity  =   0.000000
 ------------------------------------------------------------------------------
 ------------------------------------------------------------------------------
 Atomic radii for non-electrostatic terms: SMD-CDS.
 ------------------------------------------------------------------------------
 Nuclear repulsion after PCM non-electrostatic terms =     2612.0545834858 Hartrees.
 One-electron integrals computed using PRISM.
 NBasis=   600 RedAO= T EigKep=  1.71D-04  NBF=   600
 NBsUse=   600 1.00D-06 EigRej= -1.00D+00 NBFU=   600
 ExpMin= 1.03D-01 ExpMax= 8.59D+03 ExpMxC= 1.30D+03 IAcc=3 IRadAn=         5 AccDes= 0.00D+00
 Harris functional with IExCor= 1009 and IRadAn=       5 diagonalized for initial guess.
 HarFok:  IExCor= 1009 AccDes= 0.00D+00 IRadAn=         5 IDoV= 1 UseB2=F ITyADJ=14
 ICtDFT=  3500011 ScaDFX=  1.000000  1.000000  1.000000  1.000000
 FoFCou: FMM=F IPFlag=           0 FMFlag=      100000 FMFlg1=           0
         NFxFlg=           0 DoJE=T BraDBF=F KetDBF=T FulRan=T
         wScrn=  0.000000 ICntrl=       500 IOpCl=  0 I1Cent=   200000004 NGrid=           0
         NMat0=    1 NMatS0=      1 NMatT0=    0 NMatD0=    1 NMtDS0=    0 NMtDT0=    0
 Petite list used in FoFCou.
 Initial guess <Sx>= 0.0000 <Sy>= 0.0000 <Sz>= 0.5000 <S**2>= 0.7500 S= 0.5000
 Requested convergence on RMS density matrix=1.00D-08 within 500 cycles.
 Requested convergence on MAX density matrix=1.00D-06.
 Requested convergence on             energy=1.00D-06.
 No special actions if energy rises.
 Inv3:  Mode=1 IEnd=    54085548.
 Iteration    1 A*A^-1 deviation from unit magnitude is 4.00D-15 for   3922.
 Iteration    1 A*A^-1 deviation from orthogonality  is 2.44D-15 for   3876   1452.
 Iteration    1 A^-1*A deviation from unit magnitude is 4.00D-15 for   3922.
 Iteration    1 A^-1*A deviation from orthogonality  is 2.33D-15 for   1995   1248.
 Restarting incremental Fock formation.
 Error on total polarization charges =  0.03379
 SCF Done:  E(UM062X) =  -1468.40408602     A.U. after   23 cycles
            NFock= 23  Conv=0.99D-08     -V/T= 2.0031
 <Sx>= 0.0000 <Sy>= 0.0000 <Sz>= 0.5000 <S**2>= 0.7647 S= 0.5073
 <L.S>=  0.00000000000    
 SMD-CDS (non-electrostatic) energy       (kcal/mol) =      -1.90
 (included in total energy above)
 Annihilation of the first spin contaminant:
 S**2 before annihilation     0.7647,   after     0.7501
 DoSCS=F DFT=T ScalE2(SS,OS)=  1.000000  1.000000
 Range of M.O.s used for correlation:     1   600
 NBasis=   600 NAE=   109 NBE=   108 NFC=     0 NFV=     0
 NROrb=    600 NOA=   109 NOB=   108 NVA=   491 NVB=   492

 **** Warning!!: The largest alpha MO coefficient is  0.12759045D+02


 **** Warning!!: The largest beta MO coefficient is  0.13395035D+02

 Symmetrizing basis deriv contribution to polar:
 IMax=3 JMax=2 DiffMx= 0.00D+00
 G2DrvN: will do    26 centers at a time, making    2 passes.
 Calling FoFCou, ICntrl=  3107 FMM=F I1Cent=   0 AccDes= 0.00D+00.
 Calling FoFCou, ICntrl=  3107 FMM=F I1Cent=   0 AccDes= 0.00D+00.
 NEqPCM:  Using equilibrium solvation (IEInf=0, Eps=   7.0000, EpsInf=   1.8534)
 G2PCM: DoFxE=T DoFxN=T DoGrad=T DoDP/DQ/DG/TGxP=FFFF NFrqRd=   0 IEInf=0 SqF1=F DoCFld=F IF1Alg=4.
 End of G2Drv F.D. properties file   721 does not exist.
 End of G2Drv F.D. properties file   722 does not exist.
 End of G2Drv F.D. properties file   788 does not exist.
          IDoAtm=11111111111111111111111111111111111111111111111111
 NEqPCM:  Using equilibrium solvation (IEInf=0, Eps=   7.0000, EpsInf=   1.8534)
          Differentiating once with respect to nuclear coordinates.
 CalDSu exits because no D1Ps are significant.
          There are   153 degrees of freedom in the 1st order CPHF.  IDoFFX=6 NUNeed=     0.
    150 vectors produced by pass  0 Test12= 1.07D-13 1.00D-09 XBig12= 2.54D-01 1.11D-01.
 AX will form    50 AO Fock derivatives at one time.
    150 vectors produced by pass  1 Test12= 1.07D-13 1.00D-09 XBig12= 1.60D-02 2.36D-02.
    148 vectors produced by pass  2 Test12= 1.07D-13 1.00D-09 XBig12= 3.82D-04 3.75D-03.
    147 vectors produced by pass  3 Test12= 1.07D-13 1.00D-09 XBig12= 6.76D-06 5.65D-04.
    147 vectors produced by pass  4 Test12= 1.07D-13 1.00D-09 XBig12= 1.30D-07 4.32D-05.
    147 vectors produced by pass  5 Test12= 1.07D-13 1.00D-09 XBig12= 1.07D-09 3.84D-06.
    135 vectors produced by pass  6 Test12= 1.07D-13 1.00D-09 XBig12= 6.88D-12 2.08D-07.
     77 vectors produced by pass  7 Test12= 1.07D-13 1.00D-09 XBig12= 4.79D-14 1.78D-08.
     10 vectors produced by pass  8 Test12= 1.07D-13 1.00D-09 XBig12= 2.44D-15 1.82D-09.
      9 vectors produced by pass  9 Test12= 1.07D-13 1.00D-09 XBig12= 1.16D-15 1.55D-09.
      6 vectors produced by pass 10 Test12= 1.07D-13 1.00D-09 XBig12= 1.53D-15 2.85D-09.
      4 vectors produced by pass 11 Test12= 1.07D-13 1.00D-09 XBig12= 1.47D-15 1.71D-09.
      2 vectors produced by pass 12 Test12= 1.07D-13 1.00D-09 XBig12= 1.37D-15 1.47D-09.
 InvSVY:  IOpt=1 It=  1 EMax= 5.00D-16
 Solved reduced A of dimension  1132 with   153 vectors.
 End of Minotr F.D. properties file   721 does not exist.
 End of Minotr F.D. properties file   722 does not exist.
 End of Minotr F.D. properties file   788 does not exist.

 **********************************************************************

            Population analysis using the SCF density.

 **********************************************************************

 Orbital symmetries:
 Alpha Orbitals:
       Occupied  (A) (A) (A) (A) (A) (A) (A) (A) (A) (A) (A) (A)
                 (A) (A) (A) (A) (A) (A) (A) (A) (A) (A) (A) (A)
                 (A) (A) (A) (A) (A) (A) (A) (A) (A) (A) (A) (A)
                 (A) (A) (A) (A) (A) (A) (A) (A) (A) (A) (A) (A)
                 (A) (A) (A) (A) (A) (A) (A) (A) (A) (A) (A) (A)
                 (A) (A) (A) (A) (A) (A) (A) (A) (A) (A) (A) (A)
                 (A) (A) (A) (A) (A) (A) (A) (A) (A) (A) (A) (A)
                 (A) (A) (A) (A) (A) (A) (A) (A) (A) (A) (A) (A)
                 (A) (A) (A) (A) (A) (A) (A) (A) (A) (A) (A) (A)
                 (A)
       Virtual   (A) (A) (A) (A) (A) (A) (A) (A) (A) (A) (A) (A)
                 (A) (A) (A) (A) (A) (A) (A) (A) (A) (A) (A) (A)
                 (A) (A) (A) (A) (A) (A) (A) (A) (A) (A) (A) (A)
                 (A) (A) (A) (A) (A) (A) (A) (A) (A) (A) (A) (A)
                 (A) (A) (A) (A) (A) (A) (A) (A) (A) (A) (A) (A)
                 (A) (A) (A) (A) (A) (A) (A) (A) (A) (A) (A) (A)
                 (A) (A) (A) (A) (A) (A) (A) (A) (A) (A) (A) (A)
                 (A) (A) (A) (A) (A) (A) (A) (A) (A) (A) (A) (A)
                 (A) (A) (A) (A) (A) (A) (A) (A) (A) (A) (A) (A)
                 (A) (A) (A) (A) (A) (A) (A) (A) (A) (A) (A) (A)
                 (A) (A) (A) (A) (A) (A) (A) (A) (A) (A) (A) (A)
                 (A) (A) (A) (A) (A) (A) (A) (A) (A) (A) (A) (A)
                 (A) (A) (A) (A) (A) (A) (A) (A) (A) (A) (A) (A)
                 (A) (A) (A) (A) (A) (A) (A) (A) (A) (A) (A) (A)
                 (A) (A) (A) (A) (A) (A) (A) (A) (A) (A) (A) (A)
                 (A) (A) (A) (A) (A) (A) (A) (A) (A) (A) (A) (A)
                 (A) (A) (A) (A) (A) (A) (A) (A) (A) (A) (A) (A)
                 (A) (A) (A) (A) (A) (A) (A) (A) (A) (A) (A) (A)
                 (A) (A) (A) (A) (A) (A) (A) (A) (A) (A) (A) (A)
                 (A) (A) (A) (A) (A) (A) (A) (A) (A) (A) (A) (A)
                 (A) (A) (A) (A) (A) (A) (A) (A) (A) (A) (A) (A)
                 (A) (A) (A) (A) (A) (A) (A) (A) (A) (A) (A) (A)
                 (A) (A) (A) (A) (A) (A) (A) (A) (A) (A) (A) (A)
                 (A) (A) (A) (A) (A) (A) (A) (A) (A) (A) (A) (A)
                 (A) (A) (A) (A) (A) (A) (A) (A) (A) (A) (A) (A)
                 (A) (A) (A) (A) (A) (A) (A) (A) (A) (A) (A) (A)
                 (A) (A) (A) (A) (A) (A) (A) (A) (A) (A) (A) (A)
                 (A) (A) (A) (A) (A) (A) (A) (A) (A) (A) (A) (A)
                 (A) (A) (A) (A) (A) (A) (A) (A) (A) (A) (A) (A)
                 (A) (A) (A) (A) (A) (A) (A) (A) (A) (A) (A) (A)
                 (A) (A) (A) (A) (A) (A) (A) (A) (A) (A) (A) (A)
                 (A) (A) (A) (A) (A) (A) (A) (A) (A) (A) (A) (A)
                 (A) (A) (A) (A) (A) (A) (A) (A) (A) (A) (A) (A)
                 (A) (A) (A) (A) (A) (A) (A) (A) (A) (A) (A) (A)
                 (A) (A) (A) (A) (A) (A) (A) (A) (A) (A) (A) (A)
                 (A) (A) (A) (A) (A) (A) (A) (A) (A) (A) (A) (A)
                 (A) (A) (A) (A) (A) (A) (A) (A) (A) (A) (A) (A)
                 (A) (A) (A) (A) (A) (A) (A) (A) (A) (A) (A) (A)
                 (A) (A) (A) (A) (A) (A) (A) (A) (A) (A) (A) (A)
                 (A) (A) (A) (A) (A) (A) (A) (A) (A) (A) (A) (A)
                 (A) (A) (A) (A) (A) (A) (A) (A) (A) (A) (A)
 Beta  Orbitals:
       Occupied  (A) (A) (A) (A) (A) (A) (A) (A) (A) (A) (A) (A)
                 (A) (A) (A) (A) (A) (A) (A) (A) (A) (A) (A) (A)
                 (A) (A) (A) (A) (A) (A) (A) (A) (A) (A) (A) (A)
                 (A) (A) (A) (A) (A) (A) (A) (A) (A) (A) (A) (A)
                 (A) (A) (A) (A) (A) (A) (A) (A) (A) (A) (A) (A)
                 (A) (A) (A) (A) (A) (A) (A) (A) (A) (A) (A) (A)
                 (A) (A) (A) (A) (A) (A) (A) (A) (A) (A) (A) (A)
                 (A) (A) (A) (A) (A) (A) (A) (A) (A) (A) (A) (A)
                 (A) (A) (A) (A) (A) (A) (A) (A) (A) (A) (A) (A)
       Virtual   (A) (A) (A) (A) (A) (A) (A) (A) (A) (A) (A) (A)
                 (A) (A) (A) (A) (A) (A) (A) (A) (A) (A) (A) (A)
                 (A) (A) (A) (A) (A) (A) (A) (A) (A) (A) (A) (A)
                 (A) (A) (A) (A) (A) (A) (A) (A) (A) (A) (A) (A)
                 (A) (A) (A) (A) (A) (A) (A) (A) (A) (A) (A) (A)
                 (A) (A) (A) (A) (A) (A) (A) (A) (A) (A) (A) (A)
                 (A) (A) (A) (A) (A) (A) (A) (A) (A) (A) (A) (A)
                 (A) (A) (A) (A) (A) (A) (A) (A) (A) (A) (A) (A)
                 (A) (A) (A) (A) (A) (A) (A) (A) (A) (A) (A) (A)
                 (A) (A) (A) (A) (A) (A) (A) (A) (A) (A) (A) (A)
                 (A) (A) (A) (A) (A) (A) (A) (A) (A) (A) (A) (A)
                 (A) (A) (A) (A) (A) (A) (A) (A) (A) (A) (A) (A)
                 (A) (A) (A) (A) (A) (A) (A) (A) (A) (A) (A) (A)
                 (A) (A) (A) (A) (A) (A) (A) (A) (A) (A) (A) (A)
                 (A) (A) (A) (A) (A) (A) (A) (A) (A) (A) (A) (A)
                 (A) (A) (A) (A) (A) (A) (A) (A) (A) (A) (A) (A)
                 (A) (A) (A) (A) (A) (A) (A) (A) (A) (A) (A) (A)
                 (A) (A) (A) (A) (A) (A) (A) (A) (A) (A) (A) (A)
                 (A) (A) (A) (A) (A) (A) (A) (A) (A) (A) (A) (A)
                 (A) (A) (A) (A) (A) (A) (A) (A) (A) (A) (A) (A)
                 (A) (A) (A) (A) (A) (A) (A) (A) (A) (A) (A) (A)
                 (A) (A) (A) (A) (A) (A) (A) (A) (A) (A) (A) (A)
                 (A) (A) (A) (A) (A) (A) (A) (A) (A) (A) (A) (A)
                 (A) (A) (A) (A) (A) (A) (A) (A) (A) (A) (A) (A)
                 (A) (A) (A) (A) (A) (A) (A) (A) (A) (A) (A) (A)
                 (A) (A) (A) (A) (A) (A) (A) (A) (A) (A) (A) (A)
                 (A) (A) (A) (A) (A) (A) (A) (A) (A) (A) (A) (A)
                 (A) (A) (A) (A) (A) (A) (A) (A) (A) (A) (A) (A)
                 (A) (A) (A) (A) (A) (A) (A) (A) (A) (A) (A) (A)
                 (A) (A) (A) (A) (A) (A) (A) (A) (A) (A) (A) (A)
                 (A) (A) (A) (A) (A) (A) (A) (A) (A) (A) (A) (A)
                 (A) (A) (A) (A) (A) (A) (A) (A) (A) (A) (A) (A)
                 (A) (A) (A) (A) (A) (A) (A) (A) (A) (A) (A) (A)
                 (A) (A) (A) (A) (A) (A) (A) (A) (A) (A) (A) (A)
                 (A) (A) (A) (A) (A) (A) (A) (A) (A) (A) (A) (A)
                 (A) (A) (A) (A) (A) (A) (A) (A) (A) (A) (A) (A)
                 (A) (A) (A) (A) (A) (A) (A) (A) (A) (A) (A) (A)
                 (A) (A) (A) (A) (A) (A) (A) (A) (A) (A) (A) (A)
                 (A) (A) (A) (A) (A) (A) (A) (A) (A) (A) (A) (A)
                 (A) (A) (A) (A) (A) (A) (A) (A) (A) (A) (A) (A)
                 (A) (A) (A) (A) (A) (A) (A) (A) (A) (A) (A) (A)
 The electronic state is 2-A.
 Alpha  occ. eigenvalues --  -19.68080 -19.67165 -19.66269 -19.65910 -19.63670
 Alpha  occ. eigenvalues --  -19.63508 -19.63425 -19.61278 -14.92500 -10.65286
 Alpha  occ. eigenvalues --  -10.63585 -10.62060 -10.61606 -10.60325 -10.60072
 Alpha  occ. eigenvalues --  -10.58859 -10.57509 -10.57434 -10.57329 -10.56677
 Alpha  occ. eigenvalues --  -10.55982 -10.55695 -10.55604 -10.55304 -10.55189
 Alpha  occ. eigenvalues --  -10.55137 -10.54928 -10.54911 -10.54852 -10.54669
 Alpha  occ. eigenvalues --   -1.35385  -1.20888  -1.20514  -1.19236  -1.17657
 Alpha  occ. eigenvalues --   -1.17442  -1.17436  -1.17083  -0.97789  -0.97431
 Alpha  occ. eigenvalues --   -0.92344  -0.91284  -0.87705  -0.86114  -0.85811
 Alpha  occ. eigenvalues --   -0.84668  -0.82588  -0.78149  -0.77973  -0.77520
 Alpha  occ. eigenvalues --   -0.75879  -0.74826  -0.71923  -0.70760  -0.67484
 Alpha  occ. eigenvalues --   -0.67070  -0.65768  -0.65232  -0.63725  -0.63293
 Alpha  occ. eigenvalues --   -0.61227  -0.59772  -0.59199  -0.58967  -0.58911
 Alpha  occ. eigenvalues --   -0.58177  -0.57942  -0.56144  -0.55397  -0.55002
 Alpha  occ. eigenvalues --   -0.54306  -0.54148  -0.54092  -0.52905  -0.51809
 Alpha  occ. eigenvalues --   -0.51234  -0.50902  -0.50451  -0.50037  -0.49964
 Alpha  occ. eigenvalues --   -0.49675  -0.49080  -0.48905  -0.48427  -0.47435
 Alpha  occ. eigenvalues --   -0.47278  -0.45114  -0.44723  -0.44408  -0.44097
 Alpha  occ. eigenvalues --   -0.43906  -0.43824  -0.43191  -0.42900  -0.41144
 Alpha  occ. eigenvalues --   -0.40759  -0.40495  -0.36832  -0.36012  -0.35706
 Alpha  occ. eigenvalues --   -0.35293  -0.35140  -0.34131  -0.33704  -0.31557
 Alpha  occ. eigenvalues --   -0.31059  -0.30732  -0.27300  -0.26758
 Alpha virt. eigenvalues --   -0.05414  -0.03162  -0.00952   0.01929   0.02247
 Alpha virt. eigenvalues --    0.04244   0.06056   0.07248   0.07396   0.08758
 Alpha virt. eigenvalues --    0.09584   0.10031   0.10356   0.10593   0.11455
 Alpha virt. eigenvalues --    0.11605   0.12261   0.13526   0.13838   0.15198
 Alpha virt. eigenvalues --    0.15959   0.15987   0.16018   0.16140   0.16991
 Alpha virt. eigenvalues --    0.17900   0.18354   0.19064   0.19920   0.20084
 Alpha virt. eigenvalues --    0.20589   0.21495   0.21949   0.22892   0.24225
 Alpha virt. eigenvalues --    0.25807   0.26104   0.26790   0.27928   0.28466
 Alpha virt. eigenvalues --    0.29606   0.30470   0.30773   0.31105   0.31918
 Alpha virt. eigenvalues --    0.32553   0.33315   0.33933   0.34259   0.34728
 Alpha virt. eigenvalues --    0.35058   0.36222   0.36419   0.36665   0.38217
 Alpha virt. eigenvalues --    0.38733   0.39480   0.40014   0.40208   0.40452
 Alpha virt. eigenvalues --    0.40725   0.41247   0.41598   0.41910   0.42061
 Alpha virt. eigenvalues --    0.42236   0.43230   0.43383   0.43638   0.44265
 Alpha virt. eigenvalues --    0.44925   0.45360   0.45531   0.46175   0.46853
 Alpha virt. eigenvalues --    0.47018   0.47307   0.48312   0.48765   0.49217
 Alpha virt. eigenvalues --    0.49348   0.49676   0.49968   0.50341   0.51207
 Alpha virt. eigenvalues --    0.51483   0.52102   0.52724   0.52936   0.53571
 Alpha virt. eigenvalues --    0.54147   0.54494   0.55273   0.56102   0.56583
 Alpha virt. eigenvalues --    0.57323   0.57448   0.58347   0.58818   0.59390
 Alpha virt. eigenvalues --    0.59754   0.60331   0.61510   0.61654   0.62264
 Alpha virt. eigenvalues --    0.62493   0.62919   0.63160   0.63788   0.64003
 Alpha virt. eigenvalues --    0.64479   0.64751   0.65530   0.65599   0.66279
 Alpha virt. eigenvalues --    0.66639   0.67004   0.67230   0.67651   0.68080
 Alpha virt. eigenvalues --    0.68339   0.68699   0.69197   0.69723   0.70534
 Alpha virt. eigenvalues --    0.71118   0.71454   0.72129   0.72575   0.73955
 Alpha virt. eigenvalues --    0.74389   0.76684   0.76898   0.77304   0.78731
 Alpha virt. eigenvalues --    0.79591   0.79755   0.79973   0.80888   0.82706
 Alpha virt. eigenvalues --    0.82766   0.83354   0.83785   0.83925   0.84542
 Alpha virt. eigenvalues --    0.85043   0.85073   0.85323   0.85625   0.86441
 Alpha virt. eigenvalues --    0.86865   0.88121   0.89031   0.89133   0.89716
 Alpha virt. eigenvalues --    0.90377   0.91125   0.91865   0.93005   0.93610
 Alpha virt. eigenvalues --    0.94346   0.94717   0.95194   0.95425   0.96086
 Alpha virt. eigenvalues --    0.96651   0.97687   0.98425   0.99039   0.99933
 Alpha virt. eigenvalues --    1.00713   1.01512   1.02373   1.02528   1.03514
 Alpha virt. eigenvalues --    1.03722   1.04130   1.05305   1.05827   1.07360
 Alpha virt. eigenvalues --    1.07532   1.09192   1.10085   1.10573   1.11202
 Alpha virt. eigenvalues --    1.11828   1.13948   1.15495   1.16083   1.17285
 Alpha virt. eigenvalues --    1.18993   1.19496   1.20140   1.20260   1.20570
 Alpha virt. eigenvalues --    1.21726   1.23413   1.23936   1.25409   1.25651
 Alpha virt. eigenvalues --    1.26978   1.27885   1.28076   1.28137   1.28545
 Alpha virt. eigenvalues --    1.30591   1.31404   1.32431   1.33278   1.33989
 Alpha virt. eigenvalues --    1.36376   1.38723   1.40224   1.41131   1.41510
 Alpha virt. eigenvalues --    1.43683   1.45830   1.48130   1.48689   1.49966
 Alpha virt. eigenvalues --    1.50055   1.50697   1.50909   1.52319   1.53658
 Alpha virt. eigenvalues --    1.54756   1.54955   1.55519   1.56179   1.56485
 Alpha virt. eigenvalues --    1.57347   1.57882   1.58793   1.58862   1.60224
 Alpha virt. eigenvalues --    1.60426   1.60922   1.61637   1.62529   1.63566
 Alpha virt. eigenvalues --    1.65111   1.66940   1.67460   1.68385   1.70204
 Alpha virt. eigenvalues --    1.71723   1.73001   1.73473   1.73740   1.74763
 Alpha virt. eigenvalues --    1.75177   1.75551   1.75864   1.76789   1.79204
 Alpha virt. eigenvalues --    1.79625   1.80218   1.80949   1.81277   1.82738
 Alpha virt. eigenvalues --    1.83766   1.84013   1.84880   1.85830   1.86693
 Alpha virt. eigenvalues --    1.87897   1.88491   1.88567   1.89289   1.90313
 Alpha virt. eigenvalues --    1.90434   1.92035   1.93538   1.94484   1.94808
 Alpha virt. eigenvalues --    1.97110   1.99127   1.99645   2.00836   2.01203
 Alpha virt. eigenvalues --    2.04963   2.06678   2.07388   2.07596   2.10921
 Alpha virt. eigenvalues --    2.11708   2.13766   2.14915   2.16547   2.17972
 Alpha virt. eigenvalues --    2.18565   2.19539   2.20808   2.22126   2.23379
 Alpha virt. eigenvalues --    2.27232   2.27871   2.29690   2.30125   2.32308
 Alpha virt. eigenvalues --    2.32341   2.33702   2.34712   2.34766   2.35230
 Alpha virt. eigenvalues --    2.36411   2.37203   2.37456   2.38904   2.39772
 Alpha virt. eigenvalues --    2.41586   2.44881   2.45017   2.45533   2.46103
 Alpha virt. eigenvalues --    2.47998   2.49200   2.51584   2.53030   2.57112
 Alpha virt. eigenvalues --    2.57552   2.58453   2.58773   2.63996   2.65380
 Alpha virt. eigenvalues --    2.67347   2.67636   2.69009   2.71748   2.72396
 Alpha virt. eigenvalues --    2.72618   2.73646   2.75144   2.76433   2.79110
 Alpha virt. eigenvalues --    2.81714   2.82823   2.83225   2.83976   2.84732
 Alpha virt. eigenvalues --    2.85466   2.88179   2.89401   2.89704   2.90202
 Alpha virt. eigenvalues --    2.91495   2.92477   2.94226   2.94525   2.97052
 Alpha virt. eigenvalues --    2.97166   2.99178   2.99686   3.00713   3.01134
 Alpha virt. eigenvalues --    3.02877   3.03298   3.03807   3.04460   3.05413
 Alpha virt. eigenvalues --    3.06109   3.07327   3.08369   3.09765   3.10125
 Alpha virt. eigenvalues --    3.10704   3.12049   3.14755   3.16277   3.16438
 Alpha virt. eigenvalues --    3.18626   3.20385   3.21156   3.21893   3.22071
 Alpha virt. eigenvalues --    3.22375   3.22677   3.22796   3.23930   3.24992
 Alpha virt. eigenvalues --    3.25245   3.25706   3.26300   3.27893   3.29307
 Alpha virt. eigenvalues --    3.32532   3.32849   3.33852   3.35482   3.35985
 Alpha virt. eigenvalues --    3.36208   3.36318   3.36720   3.38163   3.38954
 Alpha virt. eigenvalues --    3.39464   3.39836   3.40037   3.41533   3.42125
 Alpha virt. eigenvalues --    3.46060   3.46725   3.49962   3.51680   3.52844
 Alpha virt. eigenvalues --    3.54245   3.54721   3.55113   3.57333   3.58285
 Alpha virt. eigenvalues --    3.60039   3.61225   3.64672   3.67601   3.69066
 Alpha virt. eigenvalues --    3.69793   3.76819   3.77205   3.83688   3.89502
 Alpha virt. eigenvalues --    3.93652   3.93763   3.94868   3.95014   3.99434
 Alpha virt. eigenvalues --    3.99990   4.05881   4.09972   4.10568   4.13081
 Alpha virt. eigenvalues --    4.13287   4.21732   4.39734   4.47539   4.57622
 Alpha virt. eigenvalues --    4.81639   4.82096   4.90893   4.94129   4.94455
 Alpha virt. eigenvalues --    4.95972   4.98095   5.00453   5.02355   5.04425
 Alpha virt. eigenvalues --    5.09129   5.09400   5.18652   5.24194   5.24304
 Alpha virt. eigenvalues --    5.25323   5.29462   5.29584   5.48532   5.60488
 Alpha virt. eigenvalues --    5.60702   5.69516   5.73729   5.77824   5.78001
 Alpha virt. eigenvalues --    5.95653  23.32018  23.34582  23.52325  23.52452
 Alpha virt. eigenvalues --   23.61721  23.65411  23.79013  23.87730  23.88387
 Alpha virt. eigenvalues --   23.91009  23.94140  23.94508  23.95544  24.07842
 Alpha virt. eigenvalues --   24.08446  24.13927  24.14058  24.20354  24.20734
 Alpha virt. eigenvalues --   24.23221  24.25210  35.37055  49.87714  49.96598
 Alpha virt. eigenvalues --   49.98325  49.98623  50.04645  50.04829  50.06179
 Alpha virt. eigenvalues --   50.10236
  Beta  occ. eigenvalues --  -19.68077 -19.67152 -19.66268 -19.65910 -19.63670
  Beta  occ. eigenvalues --  -19.63508 -19.63288 -19.60907 -14.92471 -10.65347
  Beta  occ. eigenvalues --  -10.63682 -10.62060 -10.61606 -10.60325 -10.60072
  Beta  occ. eigenvalues --  -10.58321 -10.57501 -10.57434 -10.57329 -10.56679
  Beta  occ. eigenvalues --  -10.55981 -10.55694 -10.55603 -10.55303 -10.55189
  Beta  occ. eigenvalues --  -10.55137 -10.54928 -10.54900 -10.54852 -10.54661
  Beta  occ. eigenvalues --   -1.35364  -1.20887  -1.20512  -1.18846  -1.17656
  Beta  occ. eigenvalues --   -1.17442  -1.17304  -1.16122  -0.97778  -0.97423
  Beta  occ. eigenvalues --   -0.91862  -0.91149  -0.86332  -0.86080  -0.85804
  Beta  occ. eigenvalues --   -0.84569  -0.81522  -0.78148  -0.77972  -0.77479
  Beta  occ. eigenvalues --   -0.75800  -0.74709  -0.71839  -0.70639  -0.67427
  Beta  occ. eigenvalues --   -0.67008  -0.65574  -0.65135  -0.63698  -0.63270
  Beta  occ. eigenvalues --   -0.60770  -0.59521  -0.59105  -0.58952  -0.58801
  Beta  occ. eigenvalues --   -0.58106  -0.57547  -0.55960  -0.54882  -0.54821
  Beta  occ. eigenvalues --   -0.54304  -0.54109  -0.53805  -0.52729  -0.51372
  Beta  occ. eigenvalues --   -0.51190  -0.50872  -0.50343  -0.49918  -0.49709
  Beta  occ. eigenvalues --   -0.49491  -0.48830  -0.48398  -0.47846  -0.47068
  Beta  occ. eigenvalues --   -0.46482  -0.45053  -0.44612  -0.44335  -0.44006
  Beta  occ. eigenvalues --   -0.43865  -0.43701  -0.43169  -0.42741  -0.41028
  Beta  occ. eigenvalues --   -0.40750  -0.40470  -0.36272  -0.35496  -0.35277
  Beta  occ. eigenvalues --   -0.35245  -0.34930  -0.33828  -0.33010  -0.31112
  Beta  occ. eigenvalues --   -0.30787  -0.27242  -0.26746
  Beta virt. eigenvalues --   -0.08985  -0.05057  -0.01799  -0.00846   0.01959
  Beta virt. eigenvalues --    0.02305   0.04500   0.06864   0.07252   0.07422
  Beta virt. eigenvalues --    0.08916   0.09579   0.10099   0.10383   0.10744
  Beta virt. eigenvalues --    0.11457   0.11725   0.12355   0.13777   0.14752
  Beta virt. eigenvalues --    0.15358   0.15996   0.16019   0.16061   0.16186
  Beta virt. eigenvalues --    0.17491   0.17944   0.18454   0.19202   0.19952
  Beta virt. eigenvalues --    0.20153   0.20757   0.21541   0.21990   0.23254
  Beta virt. eigenvalues --    0.24774   0.25892   0.26412   0.26906   0.27980
  Beta virt. eigenvalues --    0.28618   0.29849   0.30534   0.30799   0.31211
  Beta virt. eigenvalues --    0.32375   0.32708   0.33521   0.34172   0.34287
  Beta virt. eigenvalues --    0.34917   0.35319   0.36297   0.36510   0.36785
[...]
 269,-0.00036581,0.00020624,-0.00006926,0.00045676,-0.00005937,0.000056
 66,-0.00001965,-0.00001374,-0.00000032,-0.00009798,0.00056601,-0.00006
 974,-0.00007042,-0.00001848,-0.00000490,-0.00056520,-0.00031632,-0.000
 03994,0.00003386,0.00003901,-0.00000194,0.00067593,0.00043661,0.000032
 87,-0.00002671,-0.00010165,0.00000456,0.00031267,-0.00014437,-0.000041
 02,-0.00009873,0.00002110,0.00012850,-0.00000193,-0.00000206,-0.000020
 15,0.00002479,-0.00001350,-0.00000709,-0.00000788,0.00001258,-0.000003
 87,-0.00150002,0.00019815,0.00008398,0.00004058,-0.00057884,0.00088249
 ,0.06143055,0.06628105,0.00005401,0.00010438,-0.00004422,-0.00006538,-
 0.00004866,0.00009551,0.00000752,-0.00005859,-0.00009892,0.00002535,-0
 .00003101,0.00000856,0.00002096,0.00021770,0.00052551,-0.00015468,-0.0
 0015200,-0.00044798,0.00001471,-0.00001375,-0.00001573,0.00000618,0.00
 001845,-0.00000949,0.00000363,0.00000388,0.00000483,0.00000368,-0.0000
 0174,-0.00001062,-0.00001265,-0.00000586,0.00000876,0.00000346,0.00000
 680,0.00000651,-0.00000335,-0.00000506,0.00000429,-0.00001286,-0.00000
 051,0.00000363,-0.00000203,-0.00000225,0.00000496,0.00001608,0.0000006
 1,-0.00000598,-0.00000355,-0.00000372,0.00000506,0.00000516,-0.0000053
 9,-0.00001250,-0.00000215,-0.00000420,0.00000434,0.00000198,0.00000147
 ,0.00000045,0.00000084,-0.00000100,-0.00000106,-0.00000161,0.00000035,
 -0.00000003,-0.00011772,-0.00002440,0.00014380,-0.00000228,0.00001528,
 0.00007651,-0.00018768,-0.00013865,0.00178367,0.00001095,0.00000659,-0
 .00002269,0.00010164,0.00065104,0.00022519,-0.00069242,-0.00066744,-0.
 00891987,0.00005357,-0.00004408,-0.00022304,-0.00001338,-0.00000394,-0
 .00003921,-0.00000125,-0.00000737,0.00000466,-0.00000785,-0.00000035,0
 .00001967,0.00000098,0.00000219,-0.00000211,0.00001039,-0.00001246,0.0
 0000889,0.00000721,0.00000150,0.00001089,0.00001786,0.00001270,0.00000
 047,-0.00000316,-0.00000136,0.00000816,-0.00002237,-0.00001670,-0.0000
 0904,0.00000158,0.00000442,0.00000581,-0.00001350,0.00000427,-0.000010
 77,0.00000213,0.00000423,0.00000892,-0.00000106,-0.00000275,-0.0000019
 2,-0.00000202,0.00000092,-0.00000069,0.00000132,0.00000016,-0.00000032
 ,0.00063396,-0.00035875,-0.00068783,-0.00039209,0.00057927,-0.00035033
 ,-0.02014676,0.02115151,0.05828812,-0.00029290,-0.00023839,-0.00039844
 ,-0.00079926,-0.00035595,0.00067086,0.00076829,0.00000654,-0.00020547,
 0.00012816,-0.00015127,0.00007272,-0.00109999,0.00152214,0.00183853,0.
 00027507,-0.00038481,-0.00082191,0.00025873,-0.00001886,0.00002262,-0.
 00000493,-0.00001402,-0.00015664,0.00000495,0.00003051,-0.00001950,0.0
 0012409,0.00001136,-0.00004480,-0.00000395,-0.00005539,0.00015460,0.00
 006736,-0.00006415,-0.00003902,-0.00001751,-0.00001615,0.00003078,0.00
 002946,0.00000129,0.00006324,0.00000650,-0.00002223,0.00002655,0.00001
 439,0.00003559,-0.00002691,0.00001394,-0.00003260,0.00002403,-0.000055
 60,0.00015215,0.00001028,0.00001473,-0.00008919,0.00005885,0.00000976,
 0.00000982,-0.00001245,-0.00000462,0.00001042,0.00000078,-0.00000380,0
 .00000269,-0.00000739,0.00040229,0.00258891,-0.00015819,0.00007600,0.0
 0003574,-0.00007191,-0.00217595,-0.00598698,-0.00027869,0.00008796,0.0
 0012602,-0.00000385,-0.00239819,0.01476488,-0.00043572,-0.02719715,-0.
 02322433,0.00163005,-0.00100196,-0.00090849,0.00009358,-0.00002056,0.0
 0065238,-0.00007422,0.00049151,-0.00023356,0.00008270,-0.00057739,0.00
 005980,-0.00007697,0.00002719,0.00001181,0.00000705,0.00011341,-0.0007
 1209,0.00008237,0.00008513,0.00002930,0.00001285,0.00072083,0.00041311
 ,0.00005301,-0.00004802,-0.00005324,0.00000347,-0.00086424,-0.00056856
 ,-0.00004427,0.00003199,0.00013328,-0.00000332,-0.00037409,0.00015703,
 0.00004599,0.00012294,-0.00001688,-0.00014683,-0.00000111,0.00000380,0
 .00001848,-0.00002699,0.00001914,0.00000910,0.00000962,-0.00001946,0.0
 0000320,0.00130157,-0.00213288,-0.00009084,-0.00028798,-0.00044088,-0.
 00035320,-0.38090730,-0.10624738,-0.02664916,0.58769299,0.00003099,-0.
 00113500,-0.00039272,0.00159614,-0.00080936,0.00020231,-0.00000722,-0.
 00024753,0.00045039,0.00001788,0.00010051,0.00000548,0.00019961,-0.000
 35539,-0.00075828,0.00001441,0.00009787,0.00035963,-0.00004299,0.00018
 465,0.00015405,-0.00005566,-0.00002535,0.00006566,-0.00008413,0.000017
 92,0.00003335,-0.00003646,-0.00005893,-0.00000925,-0.00000083,0.000052
 51,-0.00013003,-0.00000596,0.00009974,0.00008368,0.00001095,0.00002832
 ,-0.00001458,-0.00012124,0.00003378,-0.00004414,0.00000689,0.00000949,
 -0.00001147,0.00012727,-0.00004707,0.00003705,-0.00002494,0.00000710,-
 0.00002938,0.00004705,-0.00011889,0.00000139,-0.00002220,0.00008029,-0
 .00005046,-0.00000606,-0.00000948,0.00000755,0.00000171,-0.00000907,-0
 .00000186,0.00000533,0.00000078,0.00000739,-0.00005600,-0.00036730,0.0
 0000164,-0.00000293,0.00001059,-0.00000022,0.00034529,0.00049319,-0.00
 003299,0.00005905,0.00002140,0.00000104,0.00037889,-0.00055826,-0.0001
 8377,-0.00504087,0.00364513,0.00072971,0.00014170,0.00012917,0.0000100
 5,-0.00000235,-0.00008764,0.00001574,-0.00006611,0.00001789,-0.0000050
 6,0.00007489,-0.00000306,0.00001389,-0.00000440,-0.00000126,-0.0000060
 0,-0.00000418,0.00008581,-0.00000938,-0.00001103,-0.00000499,-0.000008
 87,-0.00009524,-0.00005770,-0.00001203,0.00000728,0.00000814,-0.000003
 99,0.00011361,0.00007694,0.00001277,-0.00000392,-0.00001704,-0.0000045
 4,0.00003062,-0.00000545,0.00000510,-0.00001072,-0.00000509,-0.0000000
 2,0.00000244,0.00000018,0.00000362,0.00000131,-0.00000416,-0.00000061,
 -0.00000147,0.00000379,0.00000068,-0.00035361,-0.00080973,-0.00008013,
 -0.00205407,-0.00232137,0.00007090,-0.08019994,-0.06359083,-0.02507406
 ,0.08243409,0.17229127,-0.00063489,0.00017487,-0.00008334,-0.00010653,
 -0.00009368,-0.00088883,-0.00023502,0.00002331,0.00075718,-0.00005796,
 0.00013569,-0.00008112,0.00129303,-0.00107374,-0.00190614,0.00009468,0
 .00040269,0.00116515,-0.00007289,-0.00004883,0.00001304,-0.00010714,-0
 .00025996,-0.00005419,-0.00002258,0.00007028,0.00015176,-0.00000819,-0
 .00007129,0.00003860,0.00006465,0.00001208,-0.00011478,0.00005752,0.00
 018982,0.00015085,-0.00000141,0.00005783,-0.00002502,-0.00028456,0.000
 03633,-0.00010294,0.00004211,0.00001454,-0.00002358,0.00030270,-0.0000
 9331,0.00007925,-0.00003900,0.00000680,-0.00005946,0.00010104,-0.00023
 394,0.00000545,-0.00003112,0.00015113,-0.00009791,-0.00001400,-0.00001
 812,0.00001373,0.00000309,-0.00001856,-0.00000094,0.00001137,0.0000013
 6,0.00001311,-0.00020875,-0.00110465,0.00000087,-0.00000804,0.00001062
 ,-0.00001169,0.00106241,0.00240279,-0.00052105,-0.00003862,-0.00003805
 ,-0.00001282,-0.00043984,-0.00710787,0.00004410,0.00737327,0.00789206,
 0.00443195,0.00039963,0.00038806,0.00005168,0.00000812,-0.00027903,0.0
 0005464,-0.00021158,0.00009270,-0.00002727,0.00024481,-0.00002263,0.00
 003535,-0.00001091,-0.00000569,-0.00001324,-0.00004573,0.00029927,-0.0
 0003663,-0.00003655,-0.00001335,-0.00002253,-0.00031137,-0.00018101,-0
 .00003093,0.00002115,0.00002277,-0.00001061,0.00037045,0.00024568,0.00
 003361,-0.00001415,-0.00005727,-0.00000925,0.00014434,-0.00005776,0.00
 000336,-0.00004480,-0.00000159,0.00003255,0.00000287,0.00000213,-0.000
 00110,0.00001115,-0.00000956,-0.00000221,-0.00000549,0.00000767,-0.000
 00014,-0.00166409,0.00071088,-0.00014057,0.00093558,-0.00007482,0.0004
 1683,0.00642920,-0.01864403,-0.04221583,-0.05772157,0.13989334,0.18186
 744,-0.00013365,-0.00053580,-0.00062325,-0.00040293,0.00035438,0.00060
 639,0.00104855,-0.00003514,-0.00020928,0.00011908,-0.00025182,0.000125
 44,-0.00248601,0.00272202,0.00196641,0.00066876,-0.00068298,-0.0009232
 7,0.00047555,-0.00018955,0.00018676,-0.00007549,-0.00005737,-0.0001053
 4,-0.00002410,0.00006373,0.00001061,0.00018223,-0.00003807,-0.00008673
 ,-0.00003278,-0.00008393,0.00021133,0.00012182,-0.00007241,-0.00002951
 ,-0.00002340,-0.00004408,0.00004033,0.00002306,0.00000137,0.00008310,-
 0.00000123,-0.00002609,0.00003926,0.00004921,0.00003882,-0.00004542,0.
 00001240,-0.00004450,0.00003649,-0.00006692,0.00018499,-0.00001204,0.0
 0001832,-0.00011360,0.00007899,0.00001283,0.00001338,-0.00001315,-0.00
 000426,0.00001198,-0.00000204,-0.00000691,0.00000436,-0.00000972,0.000
 43662,0.00175928,-0.00001589,0.00006705,0.00008484,-0.00002718,-0.0017
 1132,-0.00317122,-0.00007481,-0.00003993,0.00000750,-0.00002983,0.0023
 6122,0.00806361,-0.00032284,-0.00895577,-0.00861855,0.00043906,-0.0007
 0975,-0.00056204,-0.00001451,0.00000521,0.00045290,-0.00005903,0.00032
 852,-0.00016973,0.00005402,-0.00040174,0.00004489,-0.00005442,0.000019
 90,0.00001177,0.00000820,0.00008305,-0.00049398,0.00006318,0.00006405,
 0.00002114,0.00001264,0.00051135,0.00030174,0.00003800,-0.00003316,-0.
 00003620,0.00000682,-0.00061284,-0.00041166,-0.00003558,0.00002352,0.0
 0009897,0.00000107,-0.00026872,0.00010255,0.00002951,0.00009263,-0.000
 00585,-0.00009810,-0.00000306,0.00000118,0.00001065,-0.00001980,0.0000
 1556,0.00000510,0.00000726,-0.00001541,0.00000258,0.00112202,-0.001454
 34,0.00001952,-0.00016201,0.00024055,-0.00057100,0.01948544,0.00951366
 ,0.00596927,-0.10041943,0.07107353,0.10092571,0.91027981,-0.00033498,-
 0.00007547,0.00032394,-0.00000360,-0.00002532,0.00000071,-0.00014126,-
 0.00033280,0.00014908,0.00002957,0.00007054,-0.00003171,-0.00000495,0.
 00006498,-0.00020261,-0.00002422,-0.00009220,0.00004046,-0.00007501,0.
 00012120,-0.00007252,-0.00009344,0.00000016,-0.00006827,0.00001190,0.0
 0001084,-0.00001245,0.00003855,-0.00001024,-0.00001278,-0.00001757,0.0
 0003154,0.00000060,-0.00002175,0.00001514,0.00000841,-0.00000591,0.000
 01161,0.00000410,-0.00003402,0.00002575,0.00001132,0.00000661,-0.00000
 345,0.00000538,0.00004878,-0.00000486,0.00000325,-0.00000627,-0.000007
 42,-0.00000057,0.00001229,-0.00001217,0.00000146,-0.00000420,0.0000058
 4,-0.00000431,0.00000045,-0.00000020,-0.00000069,-0.00000050,-0.000001
 41,-0.00000006,0.00000099,0.00000033,0.00000155,0.00004849,0.00002833,
 0.00001511,0.00000907,0.00001425,-0.00000987,-0.00000702,0.00009472,-0
 .00004729,-0.00001482,-0.00000986,-0.00001271,0.00048696,-0.00013188,-
 0.00005924,0.00126172,0.00095767,0.00052839,-0.00001634,0.00000631,-0.
 00000374,0.00000381,0.00001046,0.00000260,0.00000323,-0.00000507,0.000
 00429,-0.00000932,0.00000287,0.00000021,0.00000005,0.00000068,-0.00000
 201,0.00000718,-0.00001419,0.00000294,0.00000394,-0.00000024,-0.000003
 55,0.00001579,0.00001130,-0.00000094,-0.00000032,-0.00000087,-0.000000
 95,-0.00001908,-0.00001332,0.00000108,0.00000176,0.00000333,-0.0000016
 4,-0.00001506,0.00000434,0.00000536,0.00000630,-0.00000103,-0.00000893
 ,0.00000009,0.00000048,0.00000125,-0.00000097,0.00000064,0.00000032,0.
 00000001,-0.00000081,0.00000051,-0.00001538,0.00012250,-0.00018679,-0.
 00007762,-0.00010356,0.00008204,0.00142711,-0.00052386,-0.01222295,0.0
 6757062,0.02044387,0.01689134,0.07334977,0.06600882,-0.00037190,0.0001
 0653,-0.00010427,0.00001109,0.00022420,-0.00039935,0.00026471,-0.00004
 745,0.00016397,0.00000153,-0.00003992,0.00001617,-0.00023822,0.0004786
 0,-0.00003514,0.00018072,-0.00006736,0.00009815,0.00015580,-0.00004168
 ,-0.00008340,0.00003223,-0.00008855,-0.00006179,0.00000879,0.00003163,
 0.00003659,0.00005464,-0.00002675,-0.00001740,-0.00000611,-0.00002512,
 -0.00001443,0.00004807,0.00003502,0.00003741,-0.00000631,0.00001379,0.
 00000196,-0.00008144,0.00000668,-0.00001066,0.00001746,-0.00000645,0.0
 0000649,0.00011032,-0.00001859,0.00001688,-0.00000798,-0.00001113,-0.0
 0001171,0.00001423,-0.00002151,0.00001053,-0.00000601,0.00002214,-0.00
 001249,-0.00000122,-0.00000295,0.00000054,-0.00000052,-0.00000237,-0.0
 0000093,0.00000257,0.00000115,0.00000209,-0.00001295,-0.00021954,0.000
 01337,0.00000950,0.00003258,0.00000215,0.00015424,0.00070080,-0.000021
 72,-0.00004022,-0.00002163,-0.00001041,0.00097485,-0.00215747,-0.00007
 738,0.00284316,0.00330308,0.00025242,0.00006641,0.00008967,-0.00001722
 ,0.00000626,-0.00005111,0.00000989,-0.00004284,0.00001086,-0.00000456,
 0.00004223,-0.00000193,0.00000865,-0.00000196,0.00000029,-0.00000416,-
 0.00000336,0.00005215,-0.00000371,-0.00000419,-0.00000214,-0.00000543,
 -0.00005193,-0.00002940,-0.00000708,0.00000351,0.00000404,-0.00000200,
 0.00006166,0.00003994,0.00000719,-0.00000219,-0.00000906,-0.00000242,0
 .00001680,-0.00000824,0.00000303,-0.00000474,-0.00000040,0.00000125,0.
 00000045,0.00000025,0.00000070,0.00000132,-0.00000157,-0.00000032,-0.0
 0000088,0.00000112,0.00000031,-0.00035425,-0.00023664,0.00007360,0.000
 09489,0.00008098,-0.00016725,0.00023488,-0.01444690,-0.00404236,0.0939
 0470,0.01617354,-0.01461309,-0.13026330,0.04358637,0.08747033,0.000238
 23,0.00075198,0.00073540,0.00065999,-0.00045686,-0.00060471,-0.0014314
 6,-0.00006498,0.00016275,-0.00014037,0.00033944,-0.00018389,0.00247940
 ,-0.00368818,-0.00242362,-0.00064957,0.00095457,0.00136436,-0.00058394
 ,0.00025980,-0.00013820,0.00000305,-0.00005987,0.00027723,-0.00003113,
 -0.00006864,0.00004658,-0.00023691,0.00001821,0.00009705,0.00002739,0.
 00007680,-0.00031427,-0.00011377,0.00012556,0.00007534,0.00002852,0.00
 005402,-0.00005558,-0.00007380,-0.00001993,-0.00013202,0.00000708,0.00
 003327,-0.00004602,-0.00000343,-0.00005958,0.00005859,-0.00002451,0.00
 005231,-0.00004852,0.00010523,-0.00026918,-0.00000373,-0.00002965,0.00
 015852,-0.00010909,-0.00001715,-0.00001813,0.00001863,0.00000603,-0.00
 001822,0.00000173,0.00000946,-0.00000487,0.00001383,-0.00056027,-0.002
 14014,0.00003772,-0.00007122,-0.00007644,0.00003972,0.00207724,0.00373
 282,0.00013866,0.00003542,-0.00000635,0.00002971,-0.00309775,-0.010220
 73,0.00048462,0.01037179,0.00947302,-0.00152399,0.00084680,0.00067208,
 -0.00000282,-0.00001164,-0.00053853,0.00006760,-0.00039811,0.00019366,
 -0.00006003,0.00047352,-0.00005375,0.00006760,-0.00002370,-0.00001318,
 -0.00001250,-0.00009264,0.00057596,-0.00007182,-0.00007367,-0.00002524
 ,-0.00001676,-0.00059612,-0.00034991,-0.00004676,0.00003833,0.00004211
 ,-0.00000830,0.00071212,0.00047965,0.00004258,-0.00002631,-0.00011534,
 -0.00000224,0.00030447,-0.00011545,-0.00003095,-0.00010471,0.00000522,
 0.00010866,0.00000402,-0.00000108,-0.00001104,0.00002196,-0.00001794,-
 0.00000591,-0.00000865,0.00001795,-0.00000251,-0.00254854,0.00055769,0
 .00028283,0.00028925,-0.00024539,0.00086635,-0.03775052,0.03007995,0.0
 4153657,-0.07429594,-0.06840635,-0.05752205,-0.82102413,-0.14340141,0.
 03218551,0.92528021,-0.00048871,-0.00038601,-0.00035990,0.00005141,-0.
 00077174,0.00075907,0.00045276,-0.00053741,-0.00003470,0.00008573,-0.0
 0008845,0.00005135,-0.00130897,0.00018083,0.00141252,0.00043921,-0.000
 04574,-0.00050751,0.00013865,-0.00000547,0.00012543,0.00001951,0.00011
 693,-0.00014222,0.00000432,-0.00001392,-0.00005968,0.00006764,0.000010
 92,-0.00002733,-0.00002772,-0.00006246,0.00016968,-0.00000451,-0.00006
 803,-0.00006874,-0.00000974,-0.00003307,0.00002829,0.00010696,0.000013
 46,0.00007906,-0.00001521,-0.00000879,0.00001166,-0.00009930,0.0000330
 9,-0.00003807,0.00002006,-0.00000801,0.00002891,-0.00006404,0.00012987
 ,-0.00000703,0.00001994,-0.00008528,0.00005830,0.00000788,0.00001065,-
 0.00000804,-0.00000128,0.00000949,-0.00000005,-0.00000673,0.00000063,-
 0.00000829,0.00015863,0.00092402,-0.00005036,0.00002073,0.00002113,0.0
 0000291,-0.00094488,-0.00206872,-0.00003726,0.00000899,0.00003906,0.00
 002625,0.00047161,0.00499131,0.00002449,-0.00736886,-0.00694638,-0.000
 76987,-0.00037392,-0.00032245,0.00000639,0.00000001,0.00023552,-0.0000
 3843,0.00017701,-0.00008461,0.00002057,-0.00021102,0.00001939,-0.00003
 418,0.00000934,0.00000541,0.00000936,0.00003255,-0.00025159,0.00002925
 ,0.00002710,0.00001287,0.00001673,0.00025966,0.00014576,0.00002576,-0.
 00001800,-0.00001938,0.00000677,-0.00030963,-0.00020136,-0.00002571,0.
 00001057,0.00004566,0.00000611,-0.00012014,0.00005178,0.00000005,0.000
 03535,-0.00000141,-0.00003155,-0.00000167,-0.00000092,0.00000231,-0.00
 000928,0.00000734,0.00000249,0.00000438,-0.00000591,0.00000003,0.00001
 577,-0.00200964,0.00096959,0.00001840,0.00035446,-0.00026052,0.0071371
 8,0.00635607,0.01612125,-0.02879471,-0.12729039,-0.14062731,-0.1514242
 2,-0.08669825,-0.04740954,0.18180117,0.21429975,0.00132481,0.00019339,
 0.00046277,-0.00032617,0.00103062,0.00036330,0.00000042,-0.00015284,-0
 .00107150,-0.00001275,-0.00011798,0.00005303,-0.00085009,0.00016202,0.
 00091160,-0.00009993,-0.00021410,-0.00075951,-0.00005681,0.00006034,-0
 .00017356,0.00017287,0.00029862,0.00017307,0.00006326,-0.00013951,-0.0
 0018222,-0.00006195,0.00011124,-0.00000582,-0.00004687,-0.00004246,0.0
 0010868,-0.00011604,-0.00026292,-0.00021354,0.00001184,-0.00006502,0.0
 0001351,0.00041049,-0.00006516,0.00010499,-0.00005197,-0.00001046,0.00
 001526,-0.00045860,0.00012220,-0.00009262,0.00005398,0.00000642,0.0000
 6720,-0.00011694,0.00027318,0.00000151,0.00003976,-0.00017268,0.000107
 55,0.00001346,0.00001979,-0.00001521,-0.00000376,0.00002313,0.00000336
 ,-0.00001200,-0.00000383,-0.00001536,0.00023023,0.00123866,-0.00004854
 ,-0.00001358,-0.00007207,-0.00001274,-0.00107405,-0.00287380,0.0000177
 7,0.00008794,0.00005124,0.00002835,-0.00104931,0.00888038,0.00001560,-
 0.00993787,-0.01065919,-0.00034018,-0.00043171,-0.00043973,0.00003988,
 -0.00001220,0.00030120,-0.00004655,0.00023539,-0.00008486,0.00003098,-
 0.00025591,0.00002153,-0.00004309,0.00001128,0.00000210,0.00001527,0.0
 0003769,-0.00031379,0.00003181,0.00003478,0.00001292,0.00001966,0.0003
 1985,0.00018502,0.00003271,-0.00002138,-0.00002385,0.00000784,-0.00038
 034,-0.00025129,-0.00003183,0.00001375,0.00005803,0.00000712,-0.000136
 38,0.00005574,0.00000061,0.00004359,0.00000005,-0.00003497,-0.00000252
 ,-0.00000036,0.00000094,-0.00000977,0.00000963,0.00000271,0.00000494,-
 0.00000834,-0.00000018,0.00220667,0.00063944,0.00000711,-0.00026299,0.
 00007535,-0.00032362,0.01427046,0.01177187,-0.00408465,-0.01107911,-0.
 13147611,-0.12825328,0.02265578,-0.04870549,-0.06850298,-0.01536232,0.
 17055174,0.20160775\\-0.00000065,0.00000254,0.00000002,-0.00000128,0.0
 0000215,0.00000026,-0.00000002,0.00000188,-0.00000001,0.00000059,0.000
 00216,-0.00000016,-0.00000058,0.00000079,0.00000053,-0.00000042,0.0000
 0005,-0.00000019,-0.00000013,0.00000373,-0.00000010,-0.00000077,0.0000
 0441,0.00000009,0.00000084,0.00000441,-0.00000025,-0.00000044,0.000005
 66,-0.00000004,-0.00000157,0.00000401,0.00000026,0.00000115,0.00000562
 ,-0.00000042,0.00000140,0.00000401,-0.00000044,0.00000049,0.00000630,-
 0.00000022,-0.00000101,0.00000612,0.00000012,0.00000086,0.00000737,-0.
 00000026,0.00000038,0.00000784,-0.00000035,0.00000208,0.00000626,-0.00
 000055,0.00000316,0.00000638,-0.00000085,0.00000357,0.00000541,-0.0000
 0096,0.00000385,0.00000681,-0.00000107,0.00000305,0.00000687,-0.000000
 79,-0.00000037,-0.00000258,0.00000015,0.00000018,-0.00000183,0.,-0.000
 00155,-0.00000233,0.00000038,-0.00000226,-0.00000308,0.00000057,-0.000
 00230,-0.00000159,0.00000058,-0.00000324,-0.00000090,0.00000075,0.0000
 0026,-0.00000375,0.00000003,0.00000151,-0.00000376,-0.00000031,-0.0000
 0035,-0.00000480,0.00000018,0.00000220,-0.00000488,-0.00000040,0.00000
 206,-0.00000299,-0.00000034,0.00000030,-0.00000590,0.00000011,-0.00000
 136,-0.00000491,0.00000039,0.00000158,-0.00000597,-0.00000023,0.000003
 21,-0.00000485,-0.00000061,0.00000218,-0.00000703,-0.00000030,0.000003
 08,-0.00000690,-0.00000057,-0.00000032,-0.00000692,0.00000011,-0.00000
 034,-0.00000795,0.00000042,-0.00000084,-0.00000774,0.00000027,-0.00000
 095,-0.00000869,0.00000045,0.00000063,-0.00000832,0.00000003,-0.000001
 44,-0.00000010,0.00000018,-0.00000159,0.00000030,0.00000036,-0.0000038
 4,0.00000042,0.00000088,-0.00000416,0.00000144,0.00000073,-0.00000366,
 0.00000307,0.00000058,-0.00000318,0.00000174,0.00000102\\\@


 The arm of the moral universe is long, but it bends toward justice.
 -- Martin Luther King, Jr.
 Job cpu time:       0 days  3 hours 38 minutes 40.0 seconds.
 Elapsed time:       0 days  3 hours 39 minutes  2.1 seconds.
 File lengths (MBytes):  RWF=   3748 Int=      0 D2E=      0 Chk=     63 Scr=      1
 Normal termination of Gaussian 16 at Thu Nov 21 03:53:59 2024.
