 Entering Gaussian System, Link 0=g16
 Initial command:
 /sw/cluster/pub/apps//g16/l1.exe "/data/mmaximo/25496/Gau-208934.inp" -scrdir="/data/mmaximo/25496/"
 Entering Link 1 = /sw/cluster/pub/apps//g16/l1.exe PID=    208935.
  
 Copyright (c) 1988,1990,1992,1993,1995,1998,2003,2009,2016,
            Gaussian, Inc.  All Rights Reserved.
  
 This is part of the Gaussian(R) 16 program.  It is based on
 the Gaussian(R) 09 system (copyright 2009, Gaussian, Inc.),
 the Gaussian(R) 03 system (copyright 2003, Gaussian, Inc.),
 the Gaussian(R) 98 system (copyright 1998, Gaussian, Inc.),
 the Gaussian(R) 94 system (copyright 1995, Gaussian, Inc.),
 the Gaussian 92(TM) system (copyright 1992, Gaussian, Inc.),
 the Gaussian 90(TM) system (copyright 1990, Gaussian, Inc.),
 the Gaussian 88(TM) system (copyright 1988, Gaussian, Inc.),
 the Gaussian 86(TM) system (copyright 1986, Carnegie Mellon
 University), and the Gaussian 82(TM) system (copyright 1983,
 Carnegie Mellon University). Gaussian is a federally registered
 trademark of Gaussian, Inc.
  
 This software contains proprietary and confidential information,
 including trade secrets, belonging to Gaussian, Inc.
  
 This software is provided under written license and may be
 used, copied, transmitted, or stored only in accord with that
 written license.
  
 The following legend is applicable only to US Government
 contracts under FAR:
  
                    RESTRICTED RIGHTS LEGEND
  
 Use, reproduction and disclosure by the US Government is
 subject to restrictions as set forth in subparagraphs (a)
 and (c) of the Commercial Computer Software - Restricted
 Rights clause in FAR 52.227-19.
  
 Gaussian, Inc.
 340 Quinnipiac St., Bldg. 40, Wallingford CT 06492
  
  
 ---------------------------------------------------------------
 Warning -- This program may not be used in any manner that
 competes with the business of Gaussian, Inc. or will provide
 assistance to any competitor of Gaussian, Inc.  The licensee
 of this program is prohibited from giving any competitor of
 Gaussian, Inc. access to this program.  By using this program,
 the user acknowledges that Gaussian, Inc. is engaged in the
 business of creating and licensing software in the field of
 computational chemistry and represents and warrants to the
 licensee that it is not a competitor of Gaussian, Inc. and that
 it will not use this program in any manner prohibited above.
 ---------------------------------------------------------------
  

 Cite this work as:
 Gaussian 16, Revision A.03,
 M. J. Frisch, G. W. Trucks, H. B. Schlegel, G. E. Scuseria, 
 M. A. Robb, J. R. Cheeseman, G. Scalmani, V. Barone, 
 G. A. Petersson, H. Nakatsuji, X. Li, M. Caricato, A. V. Marenich, 
 J. Bloino, B. G. Janesko, R. Gomperts, B. Mennucci, H. P. Hratchian, 
 J. V. Ortiz, A. F. Izmaylov, J. L. Sonnenberg, D. Williams-Young, 
 F. Ding, F. Lipparini, F. Egidi, J. Goings, B. Peng, A. Petrone, 
 T. Henderson, D. Ranasinghe, V. G. Zakrzewski, J. Gao, N. Rega, 
 G. Zheng, W. Liang, M. Hada, M. Ehara, K. Toyota, R. Fukuda, 
 J. Hasegawa, M. Ishida, T. Nakajima, Y. Honda, O. Kitao, H. Nakai, 
 T. Vreven, K. Throssell, J. A. Montgomery, Jr., J. E. Peralta, 
 F. Ogliaro, M. J. Bearpark, J. J. Heyd, E. N. Brothers, K. N. Kudin, 
 V. N. Staroverov, T. A. Keith, R. Kobayashi, J. Normand, 
 K. Raghavachari, A. P. Rendell, J. C. Burant, S. S. Iyengar, 
 J. Tomasi, M. Cossi, J. M. Millam, M. Klene, C. Adamo, R. Cammi, 
 J. W. Ochterski, R. L. Martin, K. Morokuma, O. Farkas, 
 J. B. Foresman, and D. J. Fox, Gaussian, Inc., Wallingford CT, 2016.
 
 ******************************************
 Gaussian 16:  ES64L-G16RevA.03 25-Dec-2016
                11-Nov-2024 
 ******************************************
 %chk=CURCUMIN-OPT-FREQ-Reag-M06-2X-6-311+G-D-363.chk
 ----------------------------------------------------------------------
 # opt=(calcfc) freq=noraman M062X/6-311+g(d) scrf=(smd,solvent=generic
 ,read) temperature=363.15
 ----------------------------------------------------------------------
 1/10=4,18=20,19=15,26=3,38=1,40=2,112=363150/1,3;
 2/9=110,12=2,17=6,18=5,40=1/2;
 3/5=4,6=6,7=11,11=2,25=1,30=1,70=32203,71=2,72=-2,74=-55,140=1/1,2,3;
 4//1;
 5/5=2,38=5/2;
 8/6=4,10=90,11=11/1;
 11/6=1,8=1,9=11,15=111,16=1/1,2,10;
 10/6=1,13=1/2;
 6/7=2,8=2,9=2,10=2,28=1/1;
 7/10=1,18=20,25=1/1,2,3,16;
 1/10=4,18=20,19=15,26=3/3(2);
 2/9=110/2;
 99//99;
 2/9=110/2;
 3/5=4,6=6,7=11,11=2,25=1,30=1,70=32205,71=1,72=-2,74=-55/1,2,3;
 4/5=5,16=3,69=1/1;
 5/5=2,38=5/2;
 7//1,2,3,16;
 1/18=20,19=15,26=3/3(-5);
 2/9=110/2;
 6/7=2,8=2,9=2,10=2,19=2,28=1/1;
 99/9=1/99;
 ---
 XXX
 ---
 Symbolic Z-matrix:
 Charge =  0 Multiplicity = 2
 C                    -2.67215   0.26119  -0.56096 
 H                    -2.26039   0.52712  -1.53241 
 C                    -1.92883   0.46656   0.53764 
 H                    -2.29008   0.22124   1.53191 
 C                    -0.57135   1.03889   0.52036 
 O                     0.03869   1.20401   1.55869 
 C                    -4.02153  -0.30092  -0.61178 
 C                    -4.64321  -0.44818  -1.85476 
 C                    -4.7242   -0.70425   0.53507 
 C                    -5.9257   -0.97228  -1.95791 
 H                    -4.11942  -0.14512  -2.75519 
 C                    -6.00022  -1.2254    0.44506 
 H                    -4.29248  -0.61158   1.52567 
 C                    -6.61564  -1.35736  -0.81394 
 H                    -6.40024  -1.07595  -2.92919 
 O                    -7.87392  -1.85322  -0.83884 
 H                    -8.20062  -1.89433  -1.74764 
 O                    -6.67914  -1.56673   1.57873 
 C                    -6.79062  -2.97592   1.77965 
 H                    -5.79777  -3.42045   1.89495 
 H                    -7.36037  -3.11475   2.69679 
 H                    -7.31523  -3.4506    0.94836 
 C                     2.68754   0.09291  -0.35852 
 H                     1.77589  -0.49614  -0.43449 
 C                     2.61149   1.42924  -0.45248 
 H                     3.49111   2.06012  -0.36713 
 C                     1.35494   2.16851  -0.63545 
 O                     1.35296   3.3868   -0.63716 
 C                     3.89891  -0.6996   -0.14963 
 C                     3.79121  -2.09133  -0.08739 
 C                     5.1725   -0.12457  -0.01406 
 C                     4.91132  -2.88984   0.10734 
 H                     2.81687  -2.55747  -0.18948 
 C                     6.29338  -0.90812   0.18034 
 H                     5.3138    0.95026  -0.04888 
 C                     6.16632  -2.30829   0.24725 
 H                     4.81221  -3.96982   0.16133 
 O                     7.29565  -3.02337   0.45835 
 H                     7.09264  -3.96763   0.49514 
 O                     7.51367  -0.32164   0.35407 
 C                     8.3787   -0.45101  -0.77421 
 H                     7.93793   0.04039  -1.64657 
 H                     9.3109    0.04504  -0.50947 
 H                     8.57484  -1.5009   -1.00002 
 C                     0.04395   1.42512  -0.82158 
 H                     0.15957   0.52662  -1.43314 
 H                    -0.63878   2.09001  -1.35385 
 O                    -1.73185   4.2683   -0.19372 
 O                    -0.46075   4.74351   1.51141 
 N                    -0.96481   4.07007   0.68584 
 
 Add virtual bond connecting atoms O48        and H47        Dist= 5.10D+00.
 Add virtual bond connecting atoms N50        and O28        Dist= 5.21D+00.

 GradGradGradGradGradGradGradGradGradGradGradGradGradGradGradGradGradGrad
 Berny optimization.
 Initialization pass.
                           ----------------------------
                           !    Initial Parameters    !
                           ! (Angstroms and Degrees)  !
 --------------------------                            --------------------------
 ! Name  Definition              Value          Derivative Info.                !
 --------------------------------------------------------------------------------
 ! R1    R(1,2)                  1.0881         calculate D2E/DX2 analytically  !
 ! R2    R(1,3)                  1.3422         calculate D2E/DX2 analytically  !
 ! R3    R(1,7)                  1.4627         calculate D2E/DX2 analytically  !
 ! R4    R(3,4)                  1.0859         calculate D2E/DX2 analytically  !
 ! R5    R(3,5)                  1.4733         calculate D2E/DX2 analytically  !
 ! R6    R(5,6)                  1.2155         calculate D2E/DX2 analytically  !
 ! R7    R(5,45)                 1.526          calculate D2E/DX2 analytically  !
 ! R8    R(7,8)                  1.3976         calculate D2E/DX2 analytically  !
 ! R9    R(7,9)                  1.4042         calculate D2E/DX2 analytically  !
 ! R10   R(8,10)                 1.3893         calculate D2E/DX2 analytically  !
 ! R11   R(8,11)                 1.0849         calculate D2E/DX2 analytically  !
 ! R12   R(9,12)                 1.3813         calculate D2E/DX2 analytically  !
 ! R13   R(9,13)                 1.0846         calculate D2E/DX2 analytically  !
 ! R14   R(10,14)                1.3903         calculate D2E/DX2 analytically  !
 ! R15   R(10,15)                1.086          calculate D2E/DX2 analytically  !
 ! R16   R(12,14)                1.4076         calculate D2E/DX2 analytically  !
 ! R17   R(12,18)                1.3648         calculate D2E/DX2 analytically  !
 ! R18   R(14,16)                1.3527         calculate D2E/DX2 analytically  !
 ! R19   R(16,17)                0.9666         calculate D2E/DX2 analytically  !
 ! R20   R(18,19)                1.4278         calculate D2E/DX2 analytically  !
 ! R21   R(19,20)                1.0939         calculate D2E/DX2 analytically  !
 ! R22   R(19,21)                1.0886         calculate D2E/DX2 analytically  !
 ! R23   R(19,22)                1.0916         calculate D2E/DX2 analytically  !
 ! R24   R(23,24)                1.088          calculate D2E/DX2 analytically  !
 ! R25   R(23,25)                1.3418         calculate D2E/DX2 analytically  !
 ! R26   R(23,29)                1.4626         calculate D2E/DX2 analytically  !
 ! R27   R(25,26)                1.0858         calculate D2E/DX2 analytically  !
 ! R28   R(25,27)                1.4693         calculate D2E/DX2 analytically  !
 ! R29   R(27,28)                1.2183         calculate D2E/DX2 analytically  !
 ! R30   R(27,45)                1.5185         calculate D2E/DX2 analytically  !
 ! R31   R(28,50)                2.7549         calculate D2E/DX2 analytically  !
 ! R32   R(29,30)                1.3973         calculate D2E/DX2 analytically  !
 ! R33   R(29,31)                1.404          calculate D2E/DX2 analytically  !
 ! R34   R(30,32)                1.3893         calculate D2E/DX2 analytically  !
 ! R35   R(30,33)                1.0849         calculate D2E/DX2 analytically  !
 ! R36   R(31,34)                1.3813         calculate D2E/DX2 analytically  !
 ! R37   R(31,35)                1.0846         calculate D2E/DX2 analytically  !
 ! R38   R(32,36)                1.3903         calculate D2E/DX2 analytically  !
 ! R39   R(32,37)                1.0859         calculate D2E/DX2 analytically  !
 ! R40   R(34,36)                1.4075         calculate D2E/DX2 analytically  !
 ! R41   R(34,40)                1.365          calculate D2E/DX2 analytically  !
 ! R42   R(36,38)                1.3532         calculate D2E/DX2 analytically  !
 ! R43   R(38,39)                0.9665         calculate D2E/DX2 analytically  !
 ! R44   R(40,41)                1.4276         calculate D2E/DX2 analytically  !
 ! R45   R(41,42)                1.094          calculate D2E/DX2 analytically  !
 ! R46   R(41,43)                1.0886         calculate D2E/DX2 analytically  !
 ! R47   R(41,44)                1.0917         calculate D2E/DX2 analytically  !
 ! R48   R(45,46)                1.093          calculate D2E/DX2 analytically  !
 ! R49   R(45,47)                1.0916         calculate D2E/DX2 analytically  !
 ! R50   R(47,48)                2.6992         calculate D2E/DX2 analytically  !
 ! R51   R(48,50)                1.1837         calculate D2E/DX2 analytically  !
 ! R52   R(49,50)                1.1786         calculate D2E/DX2 analytically  !
 ! A1    A(2,1,3)              118.9318         calculate D2E/DX2 analytically  !
 ! A2    A(2,1,7)              114.3315         calculate D2E/DX2 analytically  !
 ! A3    A(3,1,7)              126.7367         calculate D2E/DX2 analytically  !
 ! A4    A(1,3,4)              122.046          calculate D2E/DX2 analytically  !
 ! A5    A(1,3,5)              124.062          calculate D2E/DX2 analytically  !
 ! A6    A(4,3,5)              113.8917         calculate D2E/DX2 analytically  !
 ! A7    A(3,5,6)              120.342          calculate D2E/DX2 analytically  !
 ! A8    A(3,5,45)             118.696          calculate D2E/DX2 analytically  !
 ! A9    A(6,5,45)             120.961          calculate D2E/DX2 analytically  !
 ! A10   A(1,7,8)              118.8016         calculate D2E/DX2 analytically  !
 ! A11   A(1,7,9)              122.9338         calculate D2E/DX2 analytically  !
 ! A12   A(8,7,9)              118.2645         calculate D2E/DX2 analytically  !
 ! A13   A(7,8,10)             121.0929         calculate D2E/DX2 analytically  !
 ! A14   A(7,8,11)             119.6019         calculate D2E/DX2 analytically  !
 ! A15   A(10,8,11)            119.3047         calculate D2E/DX2 analytically  !
 ! A16   A(7,9,12)             121.1602         calculate D2E/DX2 analytically  !
 ! A17   A(7,9,13)             121.4836         calculate D2E/DX2 analytically  !
 ! A18   A(12,9,13)            117.354          calculate D2E/DX2 analytically  !
 ! A19   A(8,10,14)            120.0988         calculate D2E/DX2 analytically  !
 ! A20   A(8,10,15)            120.3848         calculate D2E/DX2 analytically  !
 ! A21   A(14,10,15)           119.514          calculate D2E/DX2 analytically  !
 ! A22   A(9,12,14)            119.839          calculate D2E/DX2 analytically  !
 ! A23   A(9,12,18)            119.9853         calculate D2E/DX2 analytically  !
 ! A24   A(14,12,18)           120.1349         calculate D2E/DX2 analytically  !
 ! A25   A(10,14,12)           119.5402         calculate D2E/DX2 analytically  !
 ! A26   A(10,14,16)           123.2297         calculate D2E/DX2 analytically  !
 ! A27   A(12,14,16)           117.2284         calculate D2E/DX2 analytically  !
 ! A28   A(14,16,17)           110.3217         calculate D2E/DX2 analytically  !
 ! A29   A(12,18,19)           113.7388         calculate D2E/DX2 analytically  !
 ! A30   A(18,19,20)           110.184          calculate D2E/DX2 analytically  !
 ! A31   A(18,19,21)           106.5765         calculate D2E/DX2 analytically  !
 ! A32   A(18,19,22)           111.0721         calculate D2E/DX2 analytically  !
 ! A33   A(20,19,21)           109.5362         calculate D2E/DX2 analytically  !
 ! A34   A(20,19,22)           109.8617         calculate D2E/DX2 analytically  !
 ! A35   A(21,19,22)           109.548          calculate D2E/DX2 analytically  !
 ! A36   A(24,23,25)           119.1301         calculate D2E/DX2 analytically  !
 ! A37   A(24,23,29)           114.2415         calculate D2E/DX2 analytically  !
 ! A38   A(25,23,29)           126.6273         calculate D2E/DX2 analytically  !
 ! A39   A(23,25,26)           121.8184         calculate D2E/DX2 analytically  !
 ! A40   A(23,25,27)           123.9374         calculate D2E/DX2 analytically  !
 ! A41   A(26,25,27)           114.2196         calculate D2E/DX2 analytically  !
 ! A42   A(25,27,28)           120.3118         calculate D2E/DX2 analytically  !
 ! A43   A(25,27,45)           120.4813         calculate D2E/DX2 analytically  !
 ! A44   A(28,27,45)           119.2068         calculate D2E/DX2 analytically  !
 ! A45   A(27,28,50)           104.4017         calculate D2E/DX2 analytically  !
 ! A46   A(23,29,30)           118.8317         calculate D2E/DX2 analytically  !
 ! A47   A(23,29,31)           122.9013         calculate D2E/DX2 analytically  !
 ! A48   A(30,29,31)           118.2664         calculate D2E/DX2 analytically  !
 ! A49   A(29,30,32)           121.1028         calculate D2E/DX2 analytically  !
 ! A50   A(29,30,33)           119.5365         calculate D2E/DX2 analytically  !
 ! A51   A(32,30,33)           119.3604         calculate D2E/DX2 analytically  !
 ! A52   A(29,31,34)           121.1549         calculate D2E/DX2 analytically  !
 ! A53   A(29,31,35)           121.3964         calculate D2E/DX2 analytically  !
 ! A54   A(34,31,35)           117.4465         calculate D2E/DX2 analytically  !
 ! A55   A(30,32,36)           120.098          calculate D2E/DX2 analytically  !
 ! A56   A(30,32,37)           120.3329         calculate D2E/DX2 analytically  !
 ! A57   A(36,32,37)           119.5663         calculate D2E/DX2 analytically  !
 ! A58   A(31,34,36)           119.8491         calculate D2E/DX2 analytically  !
 ! A59   A(31,34,40)           119.9737         calculate D2E/DX2 analytically  !
 ! A60   A(36,34,40)           120.1369         calculate D2E/DX2 analytically  !
 ! A61   A(32,36,34)           119.5269         calculate D2E/DX2 analytically  !
 ! A62   A(32,36,38)           123.2297         calculate D2E/DX2 analytically  !
 ! A63   A(34,36,38)           117.2415         calculate D2E/DX2 analytically  !
 ! A64   A(36,38,39)           110.2977         calculate D2E/DX2 analytically  !
 ! A65   A(34,40,41)           113.714          calculate D2E/DX2 analytically  !
 ! A66   A(40,41,42)           110.2054         calculate D2E/DX2 analytically  !
 ! A67   A(40,41,43)           106.5809         calculate D2E/DX2 analytically  !
 ! A68   A(40,41,44)           111.0695         calculate D2E/DX2 analytically  !
 ! A69   A(42,41,43)           109.5274         calculate D2E/DX2 analytically  !
 ! A70   A(42,41,44)           109.8436         calculate D2E/DX2 analytically  !
 ! A71   A(43,41,44)           109.5525         calculate D2E/DX2 analytically  !
 ! A72   A(5,45,27)            111.3597         calculate D2E/DX2 analytically  !
 ! A73   A(5,45,46)            109.0642         calculate D2E/DX2 analytically  !
 ! A74   A(5,45,47)            109.3168         calculate D2E/DX2 analytically  !
 ! A75   A(27,45,46)           112.3141         calculate D2E/DX2 analytically  !
 ! A76   A(27,45,47)           107.551          calculate D2E/DX2 analytically  !
 ! A77   A(46,45,47)           107.1007         calculate D2E/DX2 analytically  !
 ! A78   A(45,47,48)           122.3625         calculate D2E/DX2 analytically  !
 ! A79   A(47,48,50)            85.5152         calculate D2E/DX2 analytically  !
 ! A80   A(28,50,48)           103.2894         calculate D2E/DX2 analytically  !
 ! A81   A(28,50,49)            96.7934         calculate D2E/DX2 analytically  !
 ! A82   A(48,50,49)           134.5783         calculate D2E/DX2 analytically  !
 ! D1    D(2,1,3,4)            179.9052         calculate D2E/DX2 analytically  !
 ! D2    D(2,1,3,5)              0.103          calculate D2E/DX2 analytically  !
 ! D3    D(7,1,3,4)             -0.1906         calculate D2E/DX2 analytically  !
 ! D4    D(7,1,3,5)           -179.9928         calculate D2E/DX2 analytically  !
 ! D5    D(2,1,7,8)              0.2117         calculate D2E/DX2 analytically  !
 ! D6    D(2,1,7,9)           -179.9283         calculate D2E/DX2 analytically  !
 ! D7    D(3,1,7,8)           -179.6964         calculate D2E/DX2 analytically  !
 ! D8    D(3,1,7,9)              0.1637         calculate D2E/DX2 analytically  !
 ! D9    D(1,3,5,6)            179.5035         calculate D2E/DX2 analytically  !
 ! D10   D(1,3,5,45)            -0.1272         calculate D2E/DX2 analytically  !
 ! D11   D(4,3,5,6)             -0.3131         calculate D2E/DX2 analytically  !
 ! D12   D(4,3,5,45)          -179.9438         calculate D2E/DX2 analytically  !
 ! D13   D(3,5,45,27)          172.1645         calculate D2E/DX2 analytically  !
 ! D14   D(3,5,45,46)          -63.3292         calculate D2E/DX2 analytically  !
 ! D15   D(3,5,45,47)           53.4664         calculate D2E/DX2 analytically  !
 ! D16   D(6,5,45,27)           -7.4638         calculate D2E/DX2 analytically  !
 ! D17   D(6,5,45,46)          117.0425         calculate D2E/DX2 analytically  !
 ! D18   D(6,5,45,47)         -126.1619         calculate D2E/DX2 analytically  !
 ! D19   D(1,7,8,10)          -179.7732         calculate D2E/DX2 analytically  !
 ! D20   D(1,7,8,11)            -0.0315         calculate D2E/DX2 analytically  !
 ! D21   D(9,7,8,10)             0.3602         calculate D2E/DX2 analytically  !
 ! D22   D(9,7,8,11)          -179.8982         calculate D2E/DX2 analytically  !
 ! D23   D(1,7,9,12)           179.7126         calculate D2E/DX2 analytically  !
 ! D24   D(1,7,9,13)             0.2665         calculate D2E/DX2 analytically  !
 ! D25   D(8,7,9,12)            -0.4266         calculate D2E/DX2 analytically  !
 ! D26   D(8,7,9,13)          -179.8728         calculate D2E/DX2 analytically  !
 ! D27   D(7,8,10,14)            0.1865         calculate D2E/DX2 analytically  !
 ! D28   D(7,8,10,15)          179.6219         calculate D2E/DX2 analytically  !
 ! D29   D(11,8,10,14)        -179.5559         calculate D2E/DX2 analytically  !
 ! D30   D(11,8,10,15)          -0.1205         calculate D2E/DX2 analytically  !
 ! D31   D(7,9,12,14)           -0.0509         calculate D2E/DX2 analytically  !
 ! D32   D(7,9,12,18)         -177.732          calculate D2E/DX2 analytically  !
 ! D33   D(13,9,12,14)         179.4173         calculate D2E/DX2 analytically  !
 ! D34   D(13,9,12,18)           1.7362         calculate D2E/DX2 analytically  !
 ! D35   D(8,10,14,12)          -0.67           calculate D2E/DX2 analytically  !
 ! D36   D(8,10,14,16)         178.8389         calculate D2E/DX2 analytically  !
 ! D37   D(15,10,14,12)        179.8897         calculate D2E/DX2 analytically  !
 ! D38   D(15,10,14,16)         -0.6014         calculate D2E/DX2 analytically  !
 ! D39   D(9,12,14,10)           0.6033         calculate D2E/DX2 analytically  !
 ! D40   D(9,12,14,16)        -178.9347         calculate D2E/DX2 analytically  !
 ! D41   D(18,12,14,10)        178.2808         calculate D2E/DX2 analytically  !
 ! D42   D(18,12,14,16)         -1.2572         calculate D2E/DX2 analytically  !
 ! D43   D(9,12,18,19)        -107.1759         calculate D2E/DX2 analytically  !
 ! D44   D(14,12,18,19)         75.1499         calculate D2E/DX2 analytically  !
 ! D45   D(10,14,16,17)          0.0346         calculate D2E/DX2 analytically  !
 ! D46   D(12,14,16,17)        179.5541         calculate D2E/DX2 analytically  !
 ! D47   D(12,18,19,20)         62.162          calculate D2E/DX2 analytically  !
 ! D48   D(12,18,19,21)       -179.0769         calculate D2E/DX2 analytically  !
 ! D49   D(12,18,19,22)        -59.8141         calculate D2E/DX2 analytically  !
 ! D50   D(24,23,25,26)        179.0148         calculate D2E/DX2 analytically  !
 ! D51   D(24,23,25,27)          0.9235         calculate D2E/DX2 analytically  !
 ! D52   D(29,23,25,26)         -0.582          calculate D2E/DX2 analytically  !
 ! D53   D(29,23,25,27)       -178.6733         calculate D2E/DX2 analytically  !
 ! D54   D(24,23,29,30)          0.8991         calculate D2E/DX2 analytically  !
 ! D55   D(24,23,29,31)       -179.4006         calculate D2E/DX2 analytically  !
 ! D56   D(25,23,29,30)       -179.4872         calculate D2E/DX2 analytically  !
 ! D57   D(25,23,29,31)          0.2131         calculate D2E/DX2 analytically  !
 ! D58   D(23,25,27,28)        175.8515         calculate D2E/DX2 analytically  !
 ! D59   D(23,25,27,45)         -4.0193         calculate D2E/DX2 analytically  !
 ! D60   D(26,25,27,28)         -2.3702         calculate D2E/DX2 analytically  !
 ! D61   D(26,25,27,45)        177.759          calculate D2E/DX2 analytically  !
 ! D62   D(25,27,28,50)       -142.0064         calculate D2E/DX2 analytically  !
 ! D63   D(45,27,28,50)         37.866          calculate D2E/DX2 analytically  !
 ! D64   D(25,27,45,5)          84.5105         calculate D2E/DX2 analytically  !
 ! D65   D(25,27,45,46)        -38.1469         calculate D2E/DX2 analytically  !
 ! D66   D(25,27,45,47)       -155.7393         calculate D2E/DX2 analytically  !
 ! D67   D(28,27,45,5)         -95.3617         calculate D2E/DX2 analytically  !
 ! D68   D(28,27,45,46)        141.9809         calculate D2E/DX2 analytically  !
 ! D69   D(28,27,45,47)         24.3886         calculate D2E/DX2 analytically  !
 ! D70   D(27,28,50,48)        -96.8475         calculate D2E/DX2 analytically  !
 ! D71   D(27,28,50,49)        124.1767         calculate D2E/DX2 analytically  !
 ! D72   D(23,29,30,32)        179.9022         calculate D2E/DX2 analytically  !
 ! D73   D(23,29,30,33)         -0.2969         calculate D2E/DX2 analytically  !
 ! D74   D(31,29,30,32)          0.1879         calculate D2E/DX2 analytically  !
 ! D75   D(31,29,30,33)        179.9888         calculate D2E/DX2 analytically  !
 ! D76   D(23,29,31,34)       -179.9095         calculate D2E/DX2 analytically  !
 ! D77   D(23,29,31,35)          0.6422         calculate D2E/DX2 analytically  !
 ! D78   D(30,29,31,34)         -0.2076         calculate D2E/DX2 analytically  !
 ! D79   D(30,29,31,35)       -179.6559         calculate D2E/DX2 analytically  !
 ! D80   D(29,30,32,36)          0.1462         calculate D2E/DX2 analytically  !
 ! D81   D(29,30,32,37)        179.5294         calculate D2E/DX2 analytically  !
 ! D82   D(33,30,32,36)       -179.655          calculate D2E/DX2 analytically  !
 ! D83   D(33,30,32,37)         -0.2719         calculate D2E/DX2 analytically  !
 ! D84   D(29,31,34,36)         -0.1043         calculate D2E/DX2 analytically  !
 ! D85   D(29,31,34,40)       -177.7984         calculate D2E/DX2 analytically  !
 ! D86   D(35,31,34,36)        179.365          calculate D2E/DX2 analytically  !
 ! D87   D(35,31,34,40)          1.6709         calculate D2E/DX2 analytically  !
 ! D88   D(30,32,36,34)         -0.4604         calculate D2E/DX2 analytically  !
 ! D89   D(30,32,36,38)        179.0218         calculate D2E/DX2 analytically  !
 ! D90   D(37,32,36,34)       -179.8482         calculate D2E/DX2 analytically  !
 ! D91   D(37,32,36,38)         -0.366          calculate D2E/DX2 analytically  !
 ! D92   D(31,34,36,32)          0.44           calculate D2E/DX2 analytically  !
 ! D93   D(31,34,36,38)       -179.0729         calculate D2E/DX2 analytically  !
 ! D94   D(40,34,36,32)        178.1303         calculate D2E/DX2 analytically  !
 ! D95   D(40,34,36,38)         -1.3826         calculate D2E/DX2 analytically  !
 ! D96   D(31,34,40,41)       -106.9282         calculate D2E/DX2 analytically  !
 ! D97   D(36,34,40,41)         75.3844         calculate D2E/DX2 analytically  !
 ! D98   D(32,36,38,39)         -0.0584         calculate D2E/DX2 analytically  !
 ! D99   D(34,36,38,39)        179.4349         calculate D2E/DX2 analytically  !
 ! D100  D(34,40,41,42)         61.6815         calculate D2E/DX2 analytically  !
 ! D101  D(34,40,41,43)       -179.554          calculate D2E/DX2 analytically  !
 ! D102  D(34,40,41,44)        -60.2845         calculate D2E/DX2 analytically  !
 ! D103  D(5,45,47,48)          49.8423         calculate D2E/DX2 analytically  !
 ! D104  D(27,45,47,48)        -71.1989         calculate D2E/DX2 analytically  !
 ! D105  D(46,45,47,48)        167.8741         calculate D2E/DX2 analytically  !
 ! D106  D(45,47,48,50)         10.5913         calculate D2E/DX2 analytically  !
 ! D107  D(47,48,50,28)         41.2643         calculate D2E/DX2 analytically  !
 ! D108  D(47,48,50,49)        155.0541         calculate D2E/DX2 analytically  !
 --------------------------------------------------------------------------------
 Trust Radius=3.00D-01 FncErr=1.00D-07 GrdErr=1.00D-06 EigMax=2.50D+02 EigMin=1.00D-04
 Number of steps in this run=    252 maximum allowed number of steps=    300.
 GradGradGradGradGradGradGradGradGradGradGradGradGradGradGradGradGradGrad

                          Input orientation:                          
 ---------------------------------------------------------------------
 Center     Atomic      Atomic             Coordinates (Angstroms)
 Number     Number       Type             X           Y           Z
 ---------------------------------------------------------------------
      1          6           0       -2.672154    0.261194   -0.560955
      2          1           0       -2.260391    0.527123   -1.532406
      3          6           0       -1.928833    0.466564    0.537644
      4          1           0       -2.290079    0.221244    1.531907
      5          6           0       -0.571350    1.038889    0.520359
      6          8           0        0.038690    1.204008    1.558693
      7          6           0       -4.021531   -0.300923   -0.611776
      8          6           0       -4.643214   -0.448180   -1.854759
      9          6           0       -4.724197   -0.704253    0.535071
     10          6           0       -5.925704   -0.972282   -1.957913
     11          1           0       -4.119417   -0.145121   -2.755193
     12          6           0       -6.000217   -1.225401    0.445059
     13          1           0       -4.292477   -0.611584    1.525672
     14          6           0       -6.615640   -1.357356   -0.813944
     15          1           0       -6.400238   -1.075951   -2.929190
     16          8           0       -7.873923   -1.853219   -0.838843
     17          1           0       -8.200621   -1.894331   -1.747641
     18          8           0       -6.679137   -1.566730    1.578728
     19          6           0       -6.790615   -2.975919    1.779650
     20          1           0       -5.797765   -3.420447    1.894953
     21          1           0       -7.360369   -3.114753    2.696785
     22          1           0       -7.315230   -3.450604    0.948357
     23          6           0        2.687542    0.092908   -0.358524
     24          1           0        1.775893   -0.496136   -0.434486
     25          6           0        2.611487    1.429236   -0.452482
     26          1           0        3.491114    2.060124   -0.367126
     27          6           0        1.354938    2.168513   -0.635445
     28          8           0        1.352956    3.386795   -0.637157
     29          6           0        3.898905   -0.699604   -0.149629
     30          6           0        3.791213   -2.091330   -0.087394
     31          6           0        5.172503   -0.124567   -0.014060
     32          6           0        4.911318   -2.889838    0.107342
     33          1           0        2.816873   -2.557473   -0.189483
     34          6           0        6.293382   -0.908121    0.180343
     35          1           0        5.313801    0.950261   -0.048880
     36          6           0        6.166320   -2.308285    0.247249
     37          1           0        4.812211   -3.969816    0.161325
     38          8           0        7.295645   -3.023369    0.458345
     39          1           0        7.092637   -3.967625    0.495140
     40          8           0        7.513668   -0.321637    0.354068
     41          6           0        8.378703   -0.451010   -0.774214
     42          1           0        7.937929    0.040390   -1.646571
     43          1           0        9.310895    0.045035   -0.509474
     44          1           0        8.574845   -1.500899   -1.000017
     45          6           0        0.043948    1.425123   -0.821581
     46          1           0        0.159568    0.526622   -1.433138
     47          1           0       -0.638777    2.090010   -1.353846
     48          8           0       -1.731848    4.268303   -0.193717
     49          8           0       -0.460748    4.743513    1.511410
     50          7           0       -0.964809    4.070069    0.685837
 ---------------------------------------------------------------------
                    Distance matrix (angstroms):
                    1          2          3          4          5
     1  C    0.000000
     2  H    1.088110   0.000000
     3  C    1.342245   2.097309   0.000000
     4  H    2.127827   3.079685   1.085928   0.000000
     5  C    2.487454   2.707140   1.473301   2.155412   0.000000
     6  O    3.567980   3.911373   2.336132   2.527787   1.215545
     7  C    1.462661   2.152866   2.507905   2.804632   3.870475
     8  C    2.462157   2.594797   3.732052   4.177904   4.942938
     9  C    2.518778   3.443993   3.030657   2.788397   4.503876
    10  C    3.749472   3.982937   4.926770   5.178911   6.233438
    11  H    2.659764   2.324456   4.001949   4.675460   4.971911
    12  C    3.781274   4.579084   4.409930   4.127850   5.882625
    13  H    2.782301   3.844199   2.779463   2.168695   4.193030
    14  C    4.270221   4.799546   5.207651   5.167734   6.637454
    15  H    4.614662   4.653943   5.864448   6.203024   7.095623
    16  O    5.621954   6.136677   6.528415   6.411175   7.971154
    17  H    6.051319   6.418419   7.080373   7.082768   8.482534
    18  O    4.896474   5.795575   5.271008   4.739501   6.724170
    19  C    5.737513   6.615433   6.085244   5.526125   7.508912
    20  H    5.418063   6.312140   5.649759   5.069278   7.006468
    21  H    6.632439   7.560363   6.854875   6.180102   8.251082
    22  H    6.132995   6.894048   6.672793   6.251011   8.112869
    23  C    5.366157   5.103781   4.717378   5.326060   3.505380
    24  H    4.513830   4.306283   3.949281   4.573124   2.962698
    25  C    5.412296   5.071020   4.745692   5.424241   3.351006
    26  H    6.423363   6.065293   5.721352   6.356886   4.281841
    27  C    4.456555   4.070541   3.880196   4.666414   2.514462
    28  O    5.096734   4.694195   4.547312   5.291243   3.248917
    29  C    6.653656   6.430697   5.982877   6.479124   4.842977
    30  C    6.894472   6.750279   6.297017   6.704644   5.403665
    31  C    7.873154   7.614328   7.147222   7.628875   5.884818
    32  C    8.239215   8.111585   7.631400   7.972975   6.757598
    33  H    6.181609   6.090713   5.674085   6.063449   4.991768
    34  C    9.071806   8.840841   8.343994   8.762305   7.143599
    35  H    8.031968   7.729701   7.282425   7.800599   5.913281
    36  C    9.239807   9.067313   8.562454   8.919616   7.528238
    37  H    8.627795   8.550607   8.078661   8.359785   7.361981
    38  O   10.544399  10.386862   9.862906  10.176746   8.854117
    39  H   10.693427  10.573213  10.052401  10.327481   9.154371
    40  O   10.243433   9.990566   9.477119   9.889160   8.200378
    41  C   11.075837  10.710832  10.431117  10.935860   9.165106
    42  H   10.667763  10.210567  10.114614  10.712030   8.837444
    43  H   11.985109  11.626412  11.296266  11.780530   9.985343
    44  H   11.392661  11.036243  10.796414  11.288179   9.613269
    45  C    2.966457   2.573258   2.580347   3.526459   1.525966
    46  H    2.974862   2.421994   2.872109   3.858175   2.147745
    47  H    2.847431   2.259232   2.806698   3.814008   2.149894
    48  O    4.132307   4.008475   3.876456   4.434872   3.505107
    49  O    5.410748   5.502861   4.625558   4.878298   3.836490
    50  N    4.356265   4.376254   3.733169   4.157599   3.061086
                    6          7          8          9         10
     6  O    0.000000
     7  C    4.843671   0.000000
     8  C    6.025081   1.397563   0.000000
     9  C    5.232051   1.404163   2.404874   0.000000
    10  C    7.257875   2.426661   1.389282   2.780365   0.000000
    11  H    6.141630   2.151300   1.084891   3.391788   2.140683
    12  C    6.603833   2.426264   2.781132   1.381276   2.417415
    13  H    4.696432   2.176834   3.402504   1.084555   3.864311
    14  C    7.514659   2.808260   2.408394   2.413284   1.390309
    15  H    8.173072   3.410179   2.153052   3.866313   1.085960
    16  O    8.815002   4.159580   3.666565   3.623332   2.413281
    17  H    9.403074   4.614535   3.841611   4.325804   2.463663
    18  O    7.266814   3.669257   4.145476   2.377999   3.664541
    19  C    8.009995   4.532367   4.920338   3.313537   4.328049
    20  H    7.454050   4.378370   4.922164   3.221729   4.566668
    21  H    8.642513   5.478326   5.933810   4.175275   5.321152
    22  H    8.724567   4.816945   4.900171   3.798250   4.064390
    23  C    3.453503   6.725392   7.501432   7.507853   8.825003
    24  H    3.143426   5.803418   6.574527   6.575296   7.865249
    25  C    3.273353   6.856803   7.623763   7.703200   8.995401
    26  H    4.044866   7.878720   8.641292   8.714762  10.020107
    27  C    2.734414   5.916510   6.656699   6.824864   8.038735
    28  O    3.363571   6.518053   7.221056   7.419069   8.586317
    29  C    4.630698   7.943918   8.714269   8.650244   9.993357
    30  C    5.258354   8.032403   8.772860   8.650067   9.958393
    31  C    5.531248   9.215130   9.992057   9.928860  11.298999
    32  C    6.527519   9.328205  10.054880   9.889534  11.197470
    33  H    4.992310   7.213468   7.929386   7.799176   9.059405
    34  C    6.744043  10.363087  11.133837  11.025173  12.404931
    35  H    5.520460   9.435610  10.215624  10.190182  11.561447
    36  C    7.183588  10.419200  11.168010  11.011772  12.363846
    37  H    7.176879   9.596534  10.289391  10.086955  11.348092
    38  O    8.470235  11.689112  12.430543  12.241764  13.595931
    39  H    8.811078  11.755624  12.475525  12.259232  13.581854
    40  O    7.723601  11.575582  12.356565  12.245183  13.652301
    41  C    8.816879  12.402206  13.066672  13.170586  14.362762
    42  H    8.603819  12.008996  12.592347  12.870256  13.904055
    43  H    9.570492  13.337306  14.027481  14.093840  15.339063
    44  H    9.312865  12.659359  13.287433  13.411027  14.541765
    45  C    2.390528   4.421693   5.152301   5.395364   6.532652
    46  H    3.069937   4.340628   4.918813   5.407408   6.289089
    47  H    3.118789   4.208355   4.767477   5.297789   6.139554
    48  O    3.949133   5.127889   5.786218   5.849068   6.940068
    49  O    3.574880   6.529428   7.468453   6.986300   8.635523
    50  N    3.159619   5.489346   6.356089   6.078641   7.551503
                   11         12         13         14         15
    11  H    0.000000
    12  C    3.866009   0.000000
    13  H    4.309680   2.112078   0.000000
    14  C    3.386605   1.407567   3.380394   0.000000
    15  H    2.469588   3.401163   4.950160   2.144727   0.000000
    16  O    4.548221   2.356551   4.467588   1.352692   2.673096
    17  H    4.553144   3.177606   5.256768   1.916324   2.303732
    18  O    5.230297   1.364787   2.571238   2.402654   4.543124
    19  C    5.976079   2.338841   3.448953   3.062204   5.092686
    20  H    5.930301   2.638448   3.208110   3.501912   5.397406
    21  H    7.003324   3.238817   4.129082   3.996033   6.060541
    22  H    5.903873   2.633267   4.186928   2.824326   4.638055
    23  C    7.220483   8.823879   7.264101   9.426551   9.516423
    24  H    6.345358   7.859600   6.378139   8.444141   8.567897
    25  C    7.286024   9.056165   7.466107   9.645498   9.675807
    26  H    8.275636  10.076690   8.444229  10.678263  10.688217
    27  C    6.309897   8.172175   6.655273   8.717438   8.713815
    28  O    6.848896   8.747154   7.248157   9.275599   9.234800
    29  C    8.449255   9.930898   8.361407  10.556022  10.674265
    30  C    8.572220   9.844056   8.374824  10.457972  10.628851
    31  C    9.687828  11.236205   9.601761  11.879390  11.972111
    32  C    9.863151  11.042916   9.587072  11.664820  11.851667
    33  H    7.779102   8.939694   7.567767   9.529036   9.729133
    34  C   10.845549  12.300541  10.675123  12.955048  13.070017
    35  H    9.874695  11.531890   9.858963  12.174645  12.231943
    36  C   10.931163  12.216235  10.672375  12.861139  13.020245
    37  H   10.144375  11.158894   9.799720  11.763158  11.985189
    38  O   12.203064  13.416885  11.884463  14.068339  14.242368
    39  H   12.283581  13.377037  11.914102  14.015850  14.217788
    40  O   12.042729  13.544377  11.867678  14.215284  14.315920
    41  C   12.657837  14.451285  12.879210  15.021763  14.948297
    42  H   12.109626  14.150938  12.651918  14.644225  14.438641
    43  H   13.618102  15.393352  13.770428  15.991057  15.935851
    44  H   12.886546  14.649115  13.142981  15.192303  15.104814
    45  C    4.851611   6.720237   5.335012   7.217504   7.226681
    46  H    4.528662   6.673841   5.465416   7.059477   6.916463
    47  H    4.367429   6.555383   5.379569   6.920890   6.760137
    48  O    5.633823   6.986257   5.772904   7.475570   7.605112
    49  O    7.449061   8.212841   6.584787   8.972768   9.426698
    50  N    6.289679   7.311314   5.804875   7.977354   8.312270
                   16         17         18         19         20
    16  O    0.000000
    17  H    0.966610   0.000000
    18  O    2.711870   3.672461   0.000000
    19  C    3.048035   3.949650   1.427799   0.000000
    20  H    3.773629   4.622904   2.076796   1.093915   0.000000
    21  H    3.788914   4.684909   2.027438   1.088591   1.782727
    22  H    2.461272   3.236404   2.085896   1.091602   1.788758
    23  C   10.750007  11.154858   9.707833  10.189453   9.456334
    24  H    9.753160  10.159240   8.757096   9.188949   8.446193
    25  C   10.993981  11.385307   9.970823  10.620138   9.987262
    26  H   12.029166  12.419348  10.971528  11.648362  11.019843
    27  C   10.069140  10.442815   9.132413   9.932165   9.423404
    28  O   10.612903  10.972434   9.693404  10.613333  10.192298
    29  C   11.849275  12.262934  10.753330  11.098178  10.276610
    30  C   11.691739  12.107820  10.615055  10.781625   9.881536
    31  C   13.186271  13.600655  12.044840  12.428346  11.612663
    32  C   12.862046  13.279870  11.758156  11.821136  10.870214
    33  H   10.733628  11.146873   9.709910   9.816130   8.905144
    34  C   14.235325  14.654892  13.064283  13.342584  12.467859
    35  H   13.505540  13.914636  12.361833  12.855944  12.097457
    36  C   14.089539  14.510684  12.935552  13.064308  12.128115
    37  H   12.900322  13.314863  11.825182  11.757227  10.764705
    38  O   15.269831  15.693163  14.095091  14.148174  13.177970
    39  H   15.173930  15.595267  14.021420  13.977773  12.977725
    40  O   15.509569  15.932025  14.299852  14.618140  13.753952
    41  C   16.313130  16.670474  15.281352  15.588637  14.728009
    42  H   15.945308  16.254420  15.054700  15.419699  14.600996
    43  H   17.292479  17.662032  16.206156  16.541610  15.686378
    44  H   16.453330  16.796726  15.470560  15.684374  14.786394
    45  C    8.569744   8.935842   7.740319   8.535035   8.061310
    46  H    8.399631   8.709345   7.760241   8.419908   7.883233
    47  H    8.256005   8.556374   7.645763   8.563150   8.217967
    48  O    8.695649   9.068504   7.852696   9.053400   8.944892
    49  O   10.197829  10.704579   8.859574   9.986431   9.761204
    50  N    9.227451   9.687768   8.076156   9.207735   8.995958
                   21         22         23         24         25
    21  H    0.000000
    22  H    1.780964   0.000000
    23  C   10.981098  10.692047   0.000000
    24  H   10.006663   9.658657   1.088047   0.000000
    25  C   11.401913  11.149659   1.341784   2.098952   0.000000
    26  H   12.406514  12.201463   2.125027   3.079121   1.085840
    27  C   10.722557  10.452498   2.482067   2.705169   1.469327
    28  O   11.371338  11.153534   3.564891   3.911151   2.334533
    29  C   11.861967  11.598724   1.462571   2.151679   2.506217
    30  C   11.539360  11.237147   2.462214   2.593575   3.730875
    31  C   13.166730  12.958867   2.518131   3.442642   3.027428
    32  C   12.543927  12.268262   3.749531   3.981743   4.925142
    33  H   10.593269  10.234836   2.658913   2.322235   4.000650
    34  C   14.057974  13.865366   3.780809   4.577713   4.406819
    35  H   13.590350  13.410985   2.779959   3.841556   2.773953
    36  C   13.770328  13.548012   4.270197   4.798385   5.205336
    37  H   12.463202  12.164038   4.614129   4.651953   5.862568
    38  O   14.826251  14.625331   5.622550   6.136099   6.526610
    39  H   14.644590  14.424262   6.051573   6.417414   7.078475
    40  O   15.314268  15.167064   4.896032   5.794336   5.267586
    41  C   16.335904  16.070605   5.732186   6.611698   6.074505
    42  H   16.212883  15.861259   5.406328   6.302991   5.632559
    43  H   17.268335  17.052061   6.625246   7.554783   6.841150
    44  H   16.437820  16.127368   6.132868   6.896022   6.666868
    45  C    9.370874   9.003493   2.996299   2.615476   2.593937
    46  H    9.320157   8.795593   2.780927   2.157741   2.790753
    47  H    9.416845   8.976278   4.005431   3.655681   3.437047
    48  O    9.723413   9.594791   6.082113   5.921325   5.195365
    49  O   10.524364  10.697874   5.919165   6.020216   4.927467
    50  N    9.826941   9.846689   5.499833   5.442132   4.589081
                   26         27         28         29         30
    26  H    0.000000
    27  C    2.155688   0.000000
    28  O    2.530749   1.218285   0.000000
    29  C    2.798160   3.864438   4.839235   0.000000
    30  C    4.171676   4.937819   6.021394   1.397273   0.000000
    31  C    2.779316   4.496458   5.225596   1.403958   2.404474
    32  C    5.171482   6.227880   7.253436   2.426549   1.389306
    33  H    4.669942   4.966999   6.138223   2.150362   1.084919
    34  C    4.118605   5.875323   6.597152   2.426083   2.780740
    35  H    2.157606   4.183395   4.687330   2.175807   3.401622
    36  C    5.159184   6.631008   7.508967   2.808298   2.408358
    37  H    6.195541   7.089899   8.168460   3.409561   2.152442
    38  O    6.402949   7.965175   8.809420   4.160211   3.667093
    39  H    7.074477   8.476532   9.397528   4.614717   3.841774
    40  O    4.730100   6.716393   7.258744   3.669207   4.145283
    41  C    5.509995   7.497628   8.006788   4.529955   4.920105
    42  H    5.048809   6.991928   7.455147   4.370600   4.916352
    43  H    6.160414   8.235428   8.632060   5.474816   5.933725
    44  H    6.239051   8.107068   8.727938   4.819715   4.905571
    45  C    3.534503   1.518542   2.365517   4.452716   5.190999
    46  H    3.819320   2.181978   3.199742   4.139283   4.674778
    47  H    4.246235   2.120651   2.482397   5.461011   6.221922
    48  O    5.673223   3.759320   3.238782   7.509156   8.423802
    49  O    5.132902   3.812654   3.121946   7.168901   8.206730
    50  N    5.000386   3.277641   2.754852   6.863199   7.821794
                   31         32         33         34         35
    31  C    0.000000
    32  C    2.780230   0.000000
    33  H    3.390988   2.141325   0.000000
    34  C    1.381347   2.417154   3.865650   0.000000
    35  H    1.084635   3.864293   4.307971   2.113222   0.000000
    36  C    2.413416   1.390255   3.386979   1.407509   3.381213
    37  H    3.866072   1.085859   2.469646   3.401206   4.950044
    38  O    3.624079   2.413721   4.549301   2.357136   4.469308
    39  H    4.326118   2.463770   4.554053   3.177809   5.257929
    40  O    2.378110   3.664527   5.230133   1.365006   2.572840
    41  C    3.311211   4.329871   5.976040   2.338524   3.447215
    42  H    3.215569   4.563203   5.924290   2.634734   3.204143
    43  H    4.171389   5.324492   7.003411   3.238787   4.124117
    44  H    3.800307   4.071465   5.909954   2.636230   4.188944
    45  C    5.418091   6.570622   4.893846   6.745614   5.347328
    46  H    5.250462   6.051810   4.256711   6.502729   5.353668
    47  H    6.361631   7.598520   5.907314   7.706968   6.199609
    48  O    8.185331   9.770429   8.202567   9.557175   7.789194
    49  O    7.599920   9.439203   8.181701   8.906794   7.082985
    50  N    7.466688   9.127093   7.680600   8.815851   7.049394
                   36         37         38         39         40
    36  C    0.000000
    37  H    2.145153   0.000000
    38  O    1.353249   2.674215   0.000000
    39  H    1.916487   2.304730   0.966533   0.000000
    40  O    2.402817   4.543592   2.712520   3.672928   0.000000
    41  C    3.063902   5.096773   3.051106   3.953708   1.427601
    42  H    3.498775   5.396328   3.772243   4.622297   2.076925
    43  H    3.999887   6.066890   3.796447   4.693757   2.027357
    44  H    2.829936   4.647761   2.465986   3.243019   2.085738
    45  C    7.250115   7.266898   8.603162   8.972151   7.760801
    46  H    6.851384   6.663884   8.191687   8.484336   7.615539
    47  H    8.259410   8.290386   9.611750   9.994421   8.671526
    48  O   10.287226  10.526983  11.622792  12.090350  10.336691
    49  O    9.759303  10.273701  11.027014  11.574556   9.517694
    50  N    9.577513   9.914072  10.890533  11.382589   9.554147
                   41         42         43         44         45
    41  C    0.000000
    42  H    1.093966   0.000000
    43  H    1.088637   1.782708   0.000000
    44  H    1.091662   1.788649   1.781099   0.000000
    45  C    8.543434   8.056862   9.374346   9.020513   0.000000
    46  H    8.303260   7.796466   9.210422   8.666910   1.093011
    47  H    9.386570   8.823067  10.192687   9.894981   1.091556
    48  O   11.172830  10.653198  11.826997  11.838992   3.410475
    49  O   10.504430  10.130646  11.029264  11.266849   4.087698
    50  N   10.482038  10.046750  11.100440  11.175097   3.207123
                   46         47         48         49         50
    46  H    0.000000
    47  H    1.757221   0.000000
    48  O    4.371933   2.699197   0.000000
    49  O    5.180475   3.909279   2.179215   0.000000
    50  N    4.279053   2.861335   1.183749   1.178633   0.000000
 Stoichiometry    C21H20NO8(2)
 Framework group  C1[X(C21H20NO8)]
 Deg. of freedom   144
 Full point group                 C1      NOp   1
 Largest Abelian subgroup         C1      NOp   1
 Largest concise Abelian subgroup C1      NOp   1
                         Standard orientation:                         
 ---------------------------------------------------------------------
 Center     Atomic      Atomic             Coordinates (Angstroms)
 Number     Number       Type             X           Y           Z
 ---------------------------------------------------------------------
      1          6           0        2.672154    0.261194    0.560955
      2          1           0        2.260391    0.527123    1.532406
      3          6           0        1.928833    0.466564   -0.537644
      4          1           0        2.290079    0.221244   -1.531907
      5          6           0        0.571350    1.038889   -0.520359
      6          8           0       -0.038690    1.204008   -1.558693
      7          6           0        4.021531   -0.300923    0.611776
      8          6           0        4.643214   -0.448180    1.854759
      9          6           0        4.724197   -0.704253   -0.535071
     10          6           0        5.925704   -0.972282    1.957913
     11          1           0        4.119417   -0.145121    2.755193
     12          6           0        6.000217   -1.225401   -0.445059
     13          1           0        4.292477   -0.611584   -1.525672
     14          6           0        6.615640   -1.357356    0.813944
     15          1           0        6.400238   -1.075951    2.929190
     16          8           0        7.873923   -1.853219    0.838843
     17          1           0        8.200621   -1.894331    1.747641
     18          8           0        6.679137   -1.566730   -1.578728
     19          6           0        6.790615   -2.975919   -1.779650
     20          1           0        5.797765   -3.420447   -1.894953
     21          1           0        7.360369   -3.114753   -2.696785
     22          1           0        7.315230   -3.450604   -0.948357
     23          6           0       -2.687542    0.092908    0.358524
     24          1           0       -1.775893   -0.496136    0.434486
     25          6           0       -2.611487    1.429236    0.452482
     26          1           0       -3.491114    2.060124    0.367126
     27          6           0       -1.354938    2.168513    0.635445
     28          8           0       -1.352956    3.386795    0.637157
     29          6           0       -3.898905   -0.699604    0.149629
     30          6           0       -3.791213   -2.091330    0.087394
     31          6           0       -5.172503   -0.124567    0.014060
     32          6           0       -4.911318   -2.889838   -0.107342
     33          1           0       -2.816873   -2.557473    0.189483
     34          6           0       -6.293382   -0.908121   -0.180343
     35          1           0       -5.313801    0.950261    0.048880
     36          6           0       -6.166320   -2.308285   -0.247249
     37          1           0       -4.812211   -3.969816   -0.161325
     38          8           0       -7.295645   -3.023369   -0.458345
     39          1           0       -7.092637   -3.967625   -0.495140
     40          8           0       -7.513668   -0.321637   -0.354068
     41          6           0       -8.378703   -0.451010    0.774214
     42          1           0       -7.937929    0.040390    1.646571
     43          1           0       -9.310895    0.045035    0.509474
     44          1           0       -8.574845   -1.500899    1.000017
     45          6           0       -0.043948    1.425123    0.821581
     46          1           0       -0.159568    0.526622    1.433138
     47          1           0        0.638777    2.090010    1.353846
     48          8           0        1.731848    4.268303    0.193717
     49          8           0        0.460748    4.743513   -1.511410
     50          7           0        0.964809    4.070069   -0.685837
 ---------------------------------------------------------------------
 Rotational constants (GHZ):           0.2181367           0.0491086           0.0425973
 Standard basis: 6-311+G(d) (5D, 7F)
 There are   750 symmetry adapted cartesian basis functions of A   symmetry.
 There are   720 symmetry adapted basis functions of A   symmetry.
   720 basis functions,  1180 primitive gaussians,   750 cartesian basis functions
   109 alpha electrons      108 beta electrons
       nuclear repulsion energy      2606.9564662899 Hartrees.
 NAtoms=   50 NActive=   50 NUniq=   50 SFac= 1.00D+00 NAtFMM=   60 NAOKFM=F Big=F
 Integral buffers will be    131072 words long.
 Raffenetti 2 integral format.
 Two-electron integral symmetry is turned on.
 Force inversion solution in PCM.
 Using the following non-standard input for PCM:
 Eps=7
 EpsInf=1.85341
 HbondAcidity=0
 HbondBasicity=0.48
 SurfaceTensionAtInterface=60.62
 CarbonAromaticity=0
 ElectronegativeHalogenicity=0
 --- end of non-standard input.
 Force inversion solution in PCM.
 ------------------------------------------------------------------------------
 Polarizable Continuum Model (PCM)
 =================================
 Model                : PCM.
 Atomic radii         : SMD-Coulomb.
 Polarization charges : Total charges.
 Charge compensation  : None.
 Solution method      : Matrix inversion.
 Cavity type          : VdW (van der Waals Surface) (Alpha=1.000).
 Cavity algorithm     : GePol (No added spheres)
                        Default sphere list used, NSphG=   50.
                        Lebedev-Laikov grids with approx.  5.0 points / Ang**2.
                        Smoothing algorithm: York/Karplus (Gamma=1.0000).
                        Polarization charges: spherical gaussians, with
                                              point-specific exponents (IZeta= 3).
                        Self-potential: point-specific (ISelfS= 7).
                        Self-field    : sphere-specific E.n sum rule (ISelfD= 2).
 1st derivatives      : Analytical E(r).r(x)/FMM algorithm (CHGder, D1EAlg=3).
                        Cavity 1st derivative terms included.
 2nd derivatives      : Analytical E(r).r(xy)/FMM algorithm (CHGder, D2EAlg=3).
                        Cavity 2nd derivative terms included.
 Solvent              : Generic,
                        Eps                           =   7.000000
                        Eps(infinity)                 =   1.853410
                        RSolv                         =   0.000000 Ang.
                        Molar volume                  =   0.000000 cm**3/mol
                        Thermal expansion coefficient =   0.000000 K**-1
                        Absolute temperature          = 298.150000 K
                        Numeral density               =   0.000000 Ang**-3
                        Hydrogen bond acidity         =   0.000000
                        Hydrogen bond basicity        =   0.480000
                        Surface tension at interface  =  60.620000 (cal/mol)*Ang**-2
                        Carbon aromaticity            =   0.000000
                        Electronegative halogenicity  =   0.000000
 ------------------------------------------------------------------------------
 ------------------------------------------------------------------------------
 Atomic radii for non-electrostatic terms: SMD-CDS.
 ------------------------------------------------------------------------------
 Nuclear repulsion after PCM non-electrostatic terms =     2606.9528727594 Hartrees.
 One-electron integrals computed using PRISM.
 NBasis=   720 RedAO= T EigKep=  1.21D-06  NBF=   720
 NBsUse=   715 1.00D-06 EigRej=  8.36D-07 NBFU=   715
 ExpMin= 4.38D-02 ExpMax= 8.59D+03 ExpMxC= 1.30D+03 IAcc=3 IRadAn=         5 AccDes= 0.00D+00
 Harris functional with IExCor= 1009 and IRadAn=       5 diagonalized for initial guess.
 HarFok:  IExCor= 1009 AccDes= 0.00D+00 IRadAn=         5 IDoV= 1 UseB2=F ITyADJ=14
 ICtDFT=  3500011 ScaDFX=  1.000000  1.000000  1.000000  1.000000
 FoFCou: FMM=F IPFlag=           0 FMFlag=      100000 FMFlg1=           0
         NFxFlg=           0 DoJE=T BraDBF=F KetDBF=T FulRan=T
         wScrn=  0.000000 ICntrl=       500 IOpCl=  0 I1Cent=   200000004 NGrid=           0
         NMat0=    1 NMatS0=      1 NMatT0=    0 NMatD0=    1 NMtDS0=    0 NMtDT0=    0
 Petite list used in FoFCou.
 Initial guess <Sx>= 0.0000 <Sy>= 0.0000 <Sz>= 0.5000 <S**2>= 0.7500 S= 0.5000
 Requested convergence on RMS density matrix=1.00D-08 within 128 cycles.
 Requested convergence on MAX density matrix=1.00D-06.
 Requested convergence on             energy=1.00D-06.
 No special actions if energy rises.
 Inv3:  Mode=1 IEnd=    54442800.
 Iteration    1 A*A^-1 deviation from unit magnitude is 3.55D-15 for   4138.
 Iteration    1 A*A^-1 deviation from orthogonality  is 2.29D-15 for   1480   1012.
 Iteration    1 A^-1*A deviation from unit magnitude is 3.55D-15 for   4138.
 Iteration    1 A^-1*A deviation from orthogonality  is 1.81D-15 for   1849    605.
 Restarting incremental Fock formation.
 Error on total polarization charges =  0.03866
 SCF Done:  E(UM062X) =  -1468.45327802     A.U. after   23 cycles
            NFock= 23  Conv=0.60D-08     -V/T= 2.0034
 <Sx>= 0.0000 <Sy>= 0.0000 <Sz>= 0.5000 <S**2>= 0.7548 S= 0.5024
 <L.S>=  0.00000000000    
 SMD-CDS (non-electrostatic) energy       (kcal/mol) =      -2.25
 (included in total energy above)
 Annihilation of the first spin contaminant:
 S**2 before annihilation     0.7548,   after     0.7500
 DoSCS=F DFT=T ScalE2(SS,OS)=  1.000000  1.000000
 Range of M.O.s used for correlation:     1   715
 NBasis=   720 NAE=   109 NBE=   108 NFC=     0 NFV=     0
 NROrb=    715 NOA=   109 NOB=   108 NVA=   606 NVB=   607

 **** Warning!!: The largest alpha MO coefficient is  0.12263883D+03


 **** Warning!!: The largest beta MO coefficient is  0.11847850D+03

 Symmetrizing basis deriv contribution to polar:
 IMax=3 JMax=2 DiffMx= 0.00D+00
 G2DrvN: will do    26 centers at a time, making    2 passes.
 Calling FoFCou, ICntrl=  3107 FMM=F I1Cent=   0 AccDes= 0.00D+00.
 Calling FoFCou, ICntrl=  3107 FMM=F I1Cent=   0 AccDes= 0.00D+00.
 NEqPCM:  Using equilibrium solvation (IEInf=0, Eps=   7.0000, EpsInf=   1.8534)
 G2PCM: DoFxE=T DoFxN=T DoGrad=T DoDP/DQ/DG/TGxP=FFFF NFrqRd=   0 IEInf=0 SqF1=F DoCFld=F IF1Alg=4.
 End of G2Drv F.D. properties file   721 does not exist.
 End of G2Drv F.D. properties file   722 does not exist.
 End of G2Drv F.D. properties file   788 does not exist.
          IDoAtm=11111111111111111111111111111111111111111111111111
 NEqPCM:  Using equilibrium solvation (IEInf=0, Eps=   7.0000, EpsInf=   1.8534)
          Differentiating once with respect to nuclear coordinates.
 CalDSu exits because no D1Ps are significant.
          There are   153 degrees of freedom in the 1st order CPHF.  IDoFFX=6 NUNeed=     0.
    150 vectors produced by pass  0 Test12= 1.32D-13 1.00D-09 XBig12= 5.64D-01 1.39D-01.
 AX will form    38 AO Fock derivatives at one time.
    149 vectors produced by pass  1 Test12= 1.32D-13 1.00D-09 XBig12= 2.32D-02 2.58D-02.
    147 vectors produced by pass  2 Test12= 1.32D-13 1.00D-09 XBig12= 8.15D-04 4.82D-03.
    147 vectors produced by pass  3 Test12= 1.32D-13 1.00D-09 XBig12= 7.40D-06 3.95D-04.
    147 vectors produced by pass  4 Test12= 1.32D-13 1.00D-09 XBig12= 6.80D-08 4.16D-05.
    147 vectors produced by pass  5 Test12= 1.32D-13 1.00D-09 XBig12= 7.10D-10 3.66D-06.
    138 vectors produced by pass  6 Test12= 1.32D-13 1.00D-09 XBig12= 7.59D-12 4.18D-07.
     93 vectors produced by pass  7 Test12= 1.32D-13 1.00D-09 XBig12= 1.91D-13 2.80D-08.
     73 vectors produced by pass  8 Test12= 1.32D-13 1.00D-09 XBig12= 5.67D-14 8.29D-09.
     64 vectors produced by pass  9 Test12= 1.32D-13 1.00D-09 XBig12= 6.41D-14 1.02D-08.
     62 vectors produced by pass 10 Test12= 1.32D-13 1.00D-09 XBig12= 6.65D-14 9.30D-09.
     59 vectors produced by pass 11 Test12= 1.32D-13 1.00D-09 XBig12= 6.72D-14 9.45D-09.
     43 vectors produced by pass 12 Test12= 1.32D-13 1.00D-09 XBig12= 5.61D-14 9.92D-09.
     42 vectors produced by pass 13 Test12= 1.32D-13 1.00D-09 XBig12= 5.13D-14 9.33D-09.
     40 vectors produced by pass 14 Test12= 1.32D-13 1.00D-09 XBig12= 3.87D-14 7.53D-09.
     40 vectors produced by pass 15 Test12= 1.32D-13 1.00D-09 XBig12= 4.62D-14 8.12D-09.
     40 vectors produced by pass 16 Test12= 1.32D-13 1.00D-09 XBig12= 6.29D-14 8.69D-09.
     40 vectors produced by pass 17 Test12= 1.32D-13 1.00D-09 XBig12= 5.20D-14 8.01D-09.
     37 vectors produced by pass 18 Test12= 1.32D-13 1.00D-09 XBig12= 6.46D-14 8.43D-09.
     30 vectors produced by pass 19 Test12= 1.32D-13 1.00D-09 XBig12= 2.74D-14 5.66D-09.
     30 vectors produced by pass 20 Test12= 1.32D-13 1.00D-09 XBig12= 4.30D-14 6.75D-09.
     30 vectors produced by pass 21 Test12= 1.32D-13 1.00D-09 XBig12= 7.94D-14 8.55D-09.
     27 vectors produced by pass 22 Test12= 1.32D-13 1.00D-09 XBig12= 2.74D-14 5.31D-09.
     27 vectors produced by pass 23 Test12= 1.32D-13 1.00D-09 XBig12= 4.47D-14 7.13D-09.
     27 vectors produced by pass 24 Test12= 1.32D-13 1.00D-09 XBig12= 3.52D-14 5.64D-09.
     25 vectors produced by pass 25 Test12= 1.32D-13 1.00D-09 XBig12= 4.34D-14 7.82D-09.
     25 vectors produced by pass 26 Test12= 1.32D-13 1.00D-09 XBig12= 6.57D-14 7.74D-09.
     21 vectors produced by pass 27 Test12= 1.32D-13 1.00D-09 XBig12= 2.81D-14 5.30D-09.
     21 vectors produced by pass 28 Test12= 1.32D-13 1.00D-09 XBig12= 2.84D-14 5.18D-09.
     21 vectors produced by pass 29 Test12= 1.32D-13 1.00D-09 XBig12= 3.46D-14 6.19D-09.
     21 vectors produced by pass 30 Test12= 1.32D-13 1.00D-09 XBig12= 3.90D-14 5.84D-09.
     21 vectors produced by pass 31 Test12= 1.32D-13 1.00D-09 XBig12= 4.98D-14 7.22D-09.
     21 vectors produced by pass 32 Test12= 1.32D-13 1.00D-09 XBig12= 5.85D-14 7.27D-09.
     21 vectors produced by pass 33 Test12= 1.32D-13 1.00D-09 XBig12= 7.92D-14 8.75D-09.
     21 vectors produced by pass 34 Test12= 1.32D-13 1.00D-09 XBig12= 4.01D-14 6.02D-09.
     21 vectors produced by pass 35 Test12= 1.32D-13 1.00D-09 XBig12= 3.26D-14 5.22D-09.
     21 vectors produced by pass 36 Test12= 1.32D-13 1.00D-09 XBig12= 5.10D-14 7.15D-09.
     18 vectors produced by pass 37 Test12= 1.32D-13 1.00D-09 XBig12= 2.15D-14 5.33D-09.
     18 vectors produced by pass 38 Test12= 1.32D-13 1.00D-09 XBig12= 5.43D-14 7.25D-09.
     17 vectors produced by pass 39 Test12= 1.32D-13 1.00D-09 XBig12= 2.43D-14 4.67D-09.
     17 vectors produced by pass 40 Test12= 1.32D-13 1.00D-09 XBig12= 4.77D-14 7.39D-09.
     17 vectors produced by pass 41 Test12= 1.32D-13 1.00D-09 XBig12= 4.20D-14 7.15D-09.
     17 vectors produced by pass 42 Test12= 1.32D-13 1.00D-09 XBig12= 7.88D-14 9.08D-09.
     17 vectors produced by pass 43 Test12= 1.32D-13 1.00D-09 XBig12= 6.12D-14 7.64D-09.
     17 vectors produced by pass 44 Test12= 1.32D-13 1.00D-09 XBig12= 4.14D-14 6.01D-09.
     17 vectors produced by pass 45 Test12= 1.32D-13 1.00D-09 XBig12= 3.01D-14 5.44D-09.
     16 vectors produced by pass 46 Test12= 1.32D-13 1.00D-09 XBig12= 2.89D-14 5.32D-09.
     16 vectors produced by pass 47 Test12= 1.32D-13 1.00D-09 XBig12= 7.34D-14 9.00D-09.
     16 vectors produced by pass 48 Test12= 1.32D-13 1.00D-09 XBig12= 4.48D-14 5.62D-09.
     16 vectors produced by pass 49 Test12= 1.32D-13 1.00D-09 XBig12= 4.65D-14 7.75D-09.
     16 vectors produced by pass 50 Test12= 1.32D-13 1.00D-09 XBig12= 4.54D-14 6.39D-09.
     16 vectors produced by pass 51 Test12= 1.32D-13 1.00D-09 XBig12= 3.32D-14 5.53D-09.
     15 vectors produced by pass 52 Test12= 1.32D-13 1.00D-09 XBig12= 2.79D-14 5.66D-09.
     13 vectors produced by pass 53 Test12= 1.32D-13 1.00D-09 XBig12= 2.64D-14 7.78D-09.
     12 vectors produced by pass 54 Test12= 1.32D-13 1.00D-09 XBig12= 2.59D-14 4.45D-09.
     12 vectors produced by pass 55 Test12= 1.32D-13 1.00D-09 XBig12= 5.43D-14 6.83D-09.
     12 vectors produced by pass 56 Test12= 1.32D-13 1.00D-09 XBig12= 3.01D-14 4.92D-09.
     12 vectors produced by pass 57 Test12= 1.32D-13 1.00D-09 XBig12= 5.94D-14 7.51D-09.
     11 vectors produced by pass 58 Test12= 1.32D-13 1.00D-09 XBig12= 2.23D-14 4.27D-09.
     11 vectors produced by pass 59 Test12= 1.32D-13 1.00D-09 XBig12= 4.12D-14 5.35D-09.
     11 vectors produced by pass 60 Test12= 1.32D-13 1.00D-09 XBig12= 2.77D-14 4.82D-09.
     11 vectors produced by pass 61 Test12= 1.32D-13 1.00D-09 XBig12= 3.73D-14 5.03D-09.
     11 vectors produced by pass 62 Test12= 1.32D-13 1.00D-09 XBig12= 2.67D-14 4.68D-09.
     11 vectors produced by pass 63 Test12= 1.32D-13 1.00D-09 XBig12= 3.90D-14 5.74D-09.
     11 vectors produced by pass 64 Test12= 1.32D-13 1.00D-09 XBig12= 4.22D-14 5.68D-09.
     11 vectors produced by pass 65 Test12= 1.32D-13 1.00D-09 XBig12= 2.96D-14 4.90D-09.
     10 vectors produced by pass 66 Test12= 1.32D-13 1.00D-09 XBig12= 2.41D-14 4.26D-09.
     10 vectors produced by pass 67 Test12= 1.32D-13 1.00D-09 XBig12= 2.97D-14 4.68D-09.
     10 vectors produced by pass 68 Test12= 1.32D-13 1.00D-09 XBig12= 4.01D-14 6.67D-09.
      9 vectors produced by pass 69 Test12= 1.32D-13 1.00D-09 XBig12= 2.08D-14 4.77D-09.
      9 vectors produced by pass 70 Test12= 1.32D-13 1.00D-09 XBig12= 3.22D-14 5.02D-09.
      9 vectors produced by pass 71 Test12= 1.32D-13 1.00D-09 XBig12= 3.00D-14 5.15D-09.
      9 vectors produced by pass 72 Test12= 1.32D-13 1.00D-09 XBig12= 3.66D-14 6.10D-09.
      9 vectors produced by pass 73 Test12= 1.32D-13 1.00D-09 XBig12= 5.78D-14 7.05D-09.
      9 vectors produced by pass 74 Test12= 1.32D-13 1.00D-09 XBig12= 3.99D-14 5.58D-09.
      9 vectors produced by pass 75 Test12= 1.32D-13 1.00D-09 XBig12= 4.19D-14 6.69D-09.
      7 vectors produced by pass 76 Test12= 1.32D-13 1.00D-09 XBig12= 1.12D-14 3.27D-09.
      7 vectors produced by pass 77 Test12= 1.32D-13 1.00D-09 XBig12= 2.66D-14 4.26D-09.
      7 vectors produced by pass 78 Test12= 1.32D-13 1.00D-09 XBig12= 1.74D-14 3.65D-09.
      7 vectors produced by pass 79 Test12= 1.32D-13 1.00D-09 XBig12= 1.89D-14 3.86D-09.
      7 vectors produced by pass 80 Test12= 1.32D-13 1.00D-09 XBig12= 2.06D-14 3.94D-09.
      7 vectors produced by pass 81 Test12= 1.32D-13 1.00D-09 XBig12= 3.28D-14 5.12D-09.
      6 vectors produced by pass 82 Test12= 1.32D-13 1.00D-09 XBig12= 1.30D-14 3.32D-09.
      6 vectors produced by pass 83 Test12= 1.32D-13 1.00D-09 XBig12= 3.38D-14 5.11D-09.
      6 vectors produced by pass 84 Test12= 1.32D-13 1.00D-09 XBig12= 1.54D-14 3.52D-09.
      6 vectors produced by pass 85 Test12= 1.32D-13 1.00D-09 XBig12= 3.27D-14 5.66D-09.
      6 vectors produced by pass 86 Test12= 1.32D-13 1.00D-09 XBig12= 2.96D-14 4.95D-09.
      6 vectors produced by pass 87 Test12= 1.32D-13 1.00D-09 XBig12= 3.89D-14 7.07D-09.
      6 vectors produced by pass 88 Test12= 1.32D-13 1.00D-09 XBig12= 2.11D-14 3.83D-09.
      6 vectors produced by pass 89 Test12= 1.32D-13 1.00D-09 XBig12= 3.68D-14 5.85D-09.
      6 vectors produced by pass 90 Test12= 1.32D-13 1.00D-09 XBig12= 3.00D-14 4.96D-09.
      6 vectors produced by pass 91 Test12= 1.32D-13 1.00D-09 XBig12= 3.15D-14 6.91D-09.
      5 vectors produced by pass 92 Test12= 1.32D-13 1.00D-09 XBig12= 1.02D-14 2.97D-09.
      5 vectors produced by pass 93 Test12= 1.32D-13 1.00D-09 XBig12= 2.65D-14 4.65D-09.
      5 vectors produced by pass 94 Test12= 1.32D-13 1.00D-09 XBig12= 2.63D-14 5.01D-09.
      5 vectors produced by pass 95 Test12= 1.32D-13 1.00D-09 XBig12= 3.05D-14 4.67D-09.
      5 vectors produced by pass 96 Test12= 1.32D-13 1.00D-09 XBig12= 2.57D-14 5.21D-09.
      5 vectors produced by pass 97 Test12= 1.32D-13 1.00D-09 XBig12= 3.19D-14 4.85D-09.
      5 vectors produced by pass 98 Test12= 1.32D-13 1.00D-09 XBig12= 4.35D-14 5.69D-09.
      5 vectors produced by pass 99 Test12= 1.32D-13 1.00D-09 XBig12= 2.28D-14 4.24D-09.
      3 vectors produced by pass100 Test12= 1.32D-13 1.00D-09 XBig12= 8.58D-15 2.68D-09.
      3 vectors produced by pass101 Test12= 1.32D-13 1.00D-09 XBig12= 2.26D-14 4.63D-09.
      3 vectors produced by pass102 Test12= 1.32D-13 1.00D-09 XBig12= 1.81D-14 4.13D-09.
      3 vectors produced by pass103 Test12= 1.32D-13 1.00D-09 XBig12= 2.19D-14 4.06D-09.
      3 vectors produced by pass104 Test12= 1.32D-13 1.00D-09 XBig12= 1.10D-14 3.07D-09.
      3 vectors produced by pass105 Test12= 1.32D-13 1.00D-09 XBig12= 1.86D-14 3.72D-09.
      3 vectors produced by pass106 Test12= 1.32D-13 1.00D-09 XBig12= 4.42D-14 5.63D-09.
      3 vectors produced by pass107 Test12= 1.32D-13 1.00D-09 XBig12= 3.39D-14 5.40D-09.
      3 vectors produced by pass108 Test12= 1.32D-13 1.00D-09 XBig12= 4.90D-14 6.73D-09.
      3 vectors produced by pass109 Test12= 1.32D-13 1.00D-09 XBig12= 2.43D-14 4.71D-09.
      3 vectors produced by pass110 Test12= 1.32D-13 1.00D-09 XBig12= 3.14D-14 5.71D-09.
      3 vectors produced by pass111 Test12= 1.32D-13 1.00D-09 XBig12= 1.47D-14 3.65D-09.
      3 vectors produced by pass112 Test12= 1.32D-13 1.00D-09 XBig12= 2.24D-14 3.94D-09.
      3 vectors produced by pass113 Test12= 1.32D-13 1.00D-09 XBig12= 2.69D-14 4.72D-09.
      3 vectors produced by pass114 Test12= 1.32D-13 1.00D-09 XBig12= 3.96D-14 5.38D-09.
      3 vectors produced by pass115 Test12= 1.32D-13 1.00D-09 XBig12= 4.37D-14 5.84D-09.
      3 vectors produced by pass116 Test12= 1.32D-13 1.00D-09 XBig12= 1.53D-14 3.44D-09.
      3 vectors produced by pass117 Test12= 1.32D-13 1.00D-09 XBig12= 2.72D-14 4.48D-09.
      3 vectors produced by pass118 Test12= 1.32D-13 1.00D-09 XBig12= 1.89D-14 4.15D-09.
      3 vectors produced by pass119 Test12= 1.32D-13 1.00D-09 XBig12= 4.53D-14 5.33D-09.
      3 vectors produced by pass120 Test12= 1.32D-13 1.00D-09 XBig12= 1.60D-14 3.54D-09.
      3 vectors produced by pass121 Test12= 1.32D-13 1.00D-09 XBig12= 2.70D-14 4.43D-09.
      3 vectors produced by pass122 Test12= 1.32D-13 1.00D-09 XBig12= 1.76D-14 3.73D-09.
      3 vectors produced by pass123 Test12= 1.32D-13 1.00D-09 XBig12= 2.56D-14 4.35D-09.
      3 vectors produced by pass124 Test12= 1.32D-13 1.00D-09 XBig12= 1.96D-14 3.98D-09.
      3 vectors produced by pass125 Test12= 1.32D-13 1.00D-09 XBig12= 1.28D-14 2.96D-09.
      3 vectors produced by pass126 Test12= 1.32D-13 1.00D-09 XBig12= 1.30D-14 3.15D-09.
      3 vectors produced by pass127 Test12= 1.32D-13 1.00D-09 XBig12= 4.16D-14 5.61D-09.
      3 vectors produced by pass128 Test12= 1.32D-13 1.00D-09 XBig12= 1.62D-14 3.41D-09.
      3 vectors produced by pass129 Test12= 1.32D-13 1.00D-09 XBig12= 2.23D-14 3.83D-09.
      3 vectors produced by pass130 Test12= 1.32D-13 1.00D-09 XBig12= 1.23D-14 3.33D-09.
      3 vectors produced by pass131 Test12= 1.32D-13 1.00D-09 XBig12= 2.45D-14 4.38D-09.
      3 vectors produced by pass132 Test12= 1.32D-13 1.00D-09 XBig12= 1.89D-14 3.68D-09.
      3 vectors produced by pass133 Test12= 1.32D-13 1.00D-09 XBig12= 2.47D-14 4.08D-09.
      3 vectors produced by pass134 Test12= 1.32D-13 1.00D-09 XBig12= 3.82D-14 5.01D-09.
      3 vectors produced by pass135 Test12= 1.32D-13 1.00D-09 XBig12= 1.54D-14 3.80D-09.
      3 vectors produced by pass136 Test12= 1.32D-13 1.00D-09 XBig12= 4.23D-14 5.45D-09.
      3 vectors produced by pass137 Test12= 1.32D-13 1.00D-09 XBig12= 1.11D-14 3.11D-09.
      3 vectors produced by pass138 Test12= 1.32D-13 1.00D-09 XBig12= 1.95D-14 4.79D-09.
      3 vectors produced by pass139 Test12= 1.32D-13 1.00D-09 XBig12= 3.97D-14 5.57D-09.
      3 vectors produced by pass140 Test12= 1.32D-13 1.00D-09 XBig12= 2.50D-14 5.03D-09.
      3 vectors produced by pass141 Test12= 1.32D-13 1.00D-09 XBig12= 2.65D-14 4.58D-09.
      3 vectors produced by pass142 Test12= 1.32D-13 1.00D-09 XBig12= 3.28D-14 4.42D-09.
      3 vectors produced by pass143 Test12= 1.32D-13 1.00D-09 XBig12= 1.17D-14 3.02D-09.
      3 vectors produced by pass144 Test12= 1.32D-13 1.00D-09 XBig12= 3.48D-14 4.77D-09.
      3 vectors produced by pass145 Test12= 1.32D-13 1.00D-09 XBig12= 2.87D-14 4.43D-09.
      3 vectors produced by pass146 Test12= 1.32D-13 1.00D-09 XBig12= 2.56D-14 4.66D-09.
      3 vectors produced by pass147 Test12= 1.32D-13 1.00D-09 XBig12= 1.41D-14 3.46D-09.
      3 vectors produced by pass148 Test12= 1.32D-13 1.00D-09 XBig12= 1.10D-14 3.08D-09.
      3 vectors produced by pass149 Test12= 1.32D-13 1.00D-09 XBig12= 1.98D-14 4.14D-09.
      3 vectors produced by pass150 Test12= 1.32D-13 1.00D-09 XBig12= 2.09D-14 3.69D-09.
      3 vectors produced by pass151 Test12= 1.32D-13 1.00D-09 XBig12= 1.72D-14 3.35D-09.
      3 vectors produced by pass152 Test12= 1.32D-13 1.00D-09 XBig12= 1.99D-14 4.55D-09.
      3 vectors produced by pass153 Test12= 1.32D-13 1.00D-09 XBig12= 3.20D-14 6.03D-09.
      3 vectors produced by pass154 Test12= 1.32D-13 1.00D-09 XBig12= 2.84D-14 4.67D-09.
      3 vectors produced by pass155 Test12= 1.32D-13 1.00D-09 XBig12= 9.46D-15 2.82D-09.
      3 vectors produced by pass156 Test12= 1.32D-13 1.00D-09 XBig12= 5.07D-14 6.45D-09.
      3 vectors produced by pass157 Test12= 1.32D-13 1.00D-09 XBig12= 2.72D-14 4.49D-09.
      3 vectors produced by pass158 Test12= 1.32D-13 1.00D-09 XBig12= 3.11D-14 5.94D-09.
      3 vectors produced by pass159 Test12= 1.32D-13 1.00D-09 XBig12= 4.32D-14 5.94D-09.
      3 vectors produced by pass160 Test12= 1.32D-13 1.00D-09 XBig12= 1.78D-14 4.83D-09.
      3 vectors produced by pass161 Test12= 1.32D-13 1.00D-09 XBig12= 2.93D-14 4.51D-09.
      3 vectors produced by pass162 Test12= 1.32D-13 1.00D-09 XBig12= 2.30D-14 4.13D-09.
      3 vectors produced by pass163 Test12= 1.32D-13 1.00D-09 XBig12= 2.76D-14 4.94D-09.
      3 vectors produced by pass164 Test12= 1.32D-13 1.00D-09 XBig12= 3.32D-14 4.99D-09.
      3 vectors produced by pass165 Test12= 1.32D-13 1.00D-09 XBig12= 2.52D-14 4.37D-09.
      3 vectors produced by pass166 Test12= 1.32D-13 1.00D-09 XBig12= 7.00D-15 2.10D-09.
      3 vectors produced by pass167 Test12= 1.32D-13 1.00D-09 XBig12= 1.62D-14 3.66D-09.
      3 vectors produced by pass168 Test12= 1.32D-13 1.00D-09 XBig12= 1.50D-14 3.89D-09.
      3 vectors produced by pass169 Test12= 1.32D-13 1.00D-09 XBig12= 1.90D-14 4.15D-09.
      3 vectors produced by pass170 Test12= 1.32D-13 1.00D-09 XBig12= 3.21D-14 5.11D-09.
      3 vectors produced by pass171 Test12= 1.32D-13 1.00D-09 XBig12= 1.18D-14 2.86D-09.
      3 vectors produced by pass172 Test12= 1.32D-13 1.00D-09 XBig12= 3.94D-14 6.39D-09.
      3 vectors produced by pass173 Test12= 1.32D-13 1.00D-09 XBig12= 1.61D-14 3.39D-09.
      3 vectors produced by pass174 Test12= 1.32D-13 1.00D-09 XBig12= 4.30D-14 5.99D-09.
      3 vectors produced by pass175 Test12= 1.32D-13 1.00D-09 XBig12= 1.47D-14 3.22D-09.
      3 vectors produced by pass176 Test12= 1.32D-13 1.00D-09 XBig12= 3.14D-14 5.53D-09.
      3 vectors produced by pass177 Test12= 1.32D-13 1.00D-09 XBig12= 2.12D-14 4.28D-09.
      3 vectors produced by pass178 Test12= 1.32D-13 1.00D-09 XBig12= 1.49D-14 3.41D-09.
      3 vectors produced by pass179 Test12= 1.32D-13 1.00D-09 XBig12= 1.80D-14 3.79D-09.
      3 vectors produced by pass180 Test12= 1.32D-13 1.00D-09 XBig12= 2.12D-14 4.09D-09.
      3 vectors produced by pass181 Test12= 1.32D-13 1.00D-09 XBig12= 3.12D-14 4.45D-09.
      3 vectors produced by pass182 Test12= 1.32D-13 1.00D-09 XBig12= 1.76D-14 3.37D-09.
      3 vectors produced by pass183 Test12= 1.32D-13 1.00D-09 XBig12= 1.22D-14 2.83D-09.
      3 vectors produced by pass184 Test12= 1.32D-13 1.00D-09 XBig12= 1.38D-14 3.39D-09.
      3 vectors produced by pass185 Test12= 1.32D-13 1.00D-09 XBig12= 2.02D-14 3.68D-09.
      3 vectors produced by pass186 Test12= 1.32D-13 1.00D-09 XBig12= 2.76D-14 3.97D-09.
      3 vectors produced by pass187 Test12= 1.32D-13 1.00D-09 XBig12= 8.24D-15 2.59D-09.
      3 vectors produced by pass188 Test12= 1.32D-13 1.00D-09 XBig12= 4.39D-14 5.61D-09.
      3 vectors produced by pass189 Test12= 1.32D-13 1.00D-09 XBig12= 2.54D-14 4.83D-09.
      3 vectors produced by pass190 Test12= 1.32D-13 1.00D-09 XBig12= 1.50D-14 3.87D-09.
      3 vectors produced by pass191 Test12= 1.32D-13 1.00D-09 XBig12= 3.01D-14 4.50D-09.
      3 vectors produced by pass192 Test12= 1.32D-13 1.00D-09 XBig12= 1.41D-14 3.05D-09.
      3 vectors produced by pass193 Test12= 1.32D-13 1.00D-09 XBig12= 7.50D-15 2.40D-09.
      3 vectors produced by pass194 Test12= 1.32D-13 1.00D-09 XBig12= 1.53D-14 3.35D-09.
      3 vectors produced by pass195 Test12= 1.32D-13 1.00D-09 XBig12= 1.36D-14 3.38D-09.
      3 vectors produced by pass196 Test12= 1.32D-13 1.00D-09 XBig12= 1.88D-14 4.01D-09.
      3 vectors produced by pass197 Test12= 1.32D-13 1.00D-09 XBig12= 2.11D-14 4.49D-09.
      3 vectors produced by pass198 Test12= 1.32D-13 1.00D-09 XBig12= 2.93D-14 4.29D-09.
      3 vectors produced by pass199 Test12= 1.32D-13 1.00D-09 XBig12= 2.53D-14 4.19D-09.
      3 vectors produced by pass200 Test12= 1.32D-13 1.00D-09 XBig12= 2.47D-14 4.11D-09.
      3 vectors produced by pass201 Test12= 1.32D-13 1.00D-09 XBig12= 1.03D-14 2.85D-09.
      3 vectors produced by pass202 Test12= 1.32D-13 1.00D-09 XBig12= 4.15D-14 5.55D-09.
      3 vectors produced by pass203 Test12= 1.32D-13 1.00D-09 XBig12= 1.75D-14 3.58D-09.
      3 vectors produced by pass204 Test12= 1.32D-13 1.00D-09 XBig12= 3.46D-14 5.12D-09.
      3 vectors produced by pass205 Test12= 1.32D-13 1.00D-09 XBig12= 1.95D-14 3.73D-09.
      3 vectors produced by pass206 Test12= 1.32D-13 1.00D-09 XBig12= 3.42D-14 5.09D-09.
      3 vectors produced by pass207 Test12= 1.32D-13 1.00D-09 XBig12= 1.40D-14 3.20D-09.
      3 vectors produced by pass208 Test12= 1.32D-13 1.00D-09 XBig12= 1.32D-14 3.55D-09.
      3 vectors produced by pass209 Test12= 1.32D-13 1.00D-09 XBig12= 3.87D-14 5.38D-09.
      3 vectors produced by pass210 Test12= 1.32D-13 1.00D-09 XBig12= 2.05D-14 3.89D-09.
      2 vectors produced by pass211 Test12= 1.32D-13 1.00D-09 XBig12= 5.57D-15 2.04D-09.
 InvSVY:  IOpt=1 It=  1 EMax= 1.11D-15
 Solved reduced A of dimension  3074 with   153 vectors.
 End of Minotr F.D. properties file   721 does not exist.
[...]
 ,-0.00001621,-0.00001607,0.00000403,0.00004197,-0.00006981,-0.00000475
 ,-0.00002016,-0.00000228,-0.00000776,-0.00000455,0.00001114,0.00000176
 ,0.00002077,0.00004567,-0.00000575,0.00001256,0.00001622,0.00001202,0.
 00001372,-0.00000360,0.00000076,0.00000016,-0.00000076,0.00000080,-0.0
 0001815,0.00001612,-0.00000329,-0.00000156,-0.00000160,0.00000245,0.00
 001370,-0.00000208,-0.00000044,-0.00000089,-0.00000047,0.00000694,-0.0
 0000045,0.00000027,-0.00000186,0.00000034,-0.00000009,-0.00000074,0.00
 000061,-0.00000025,-0.00000085,0.10601888,-0.14987858,0.08520550,0.015
 01138,-0.01493026,0.01319680,-0.11082373,0.16234187,-0.00013063,0.0000
 9238,0.00043703,-0.00022692,-0.00022592,-0.00000985,0.00083829,-0.0019
 2928,0.00037408,-0.00009404,-0.00031581,-0.00005107,-0.02161988,0.0177
 8223,-0.01410340,0.00412524,-0.00122718,-0.00554390,0.00013990,0.00012
 246,0.00006534,-0.00004279,0.00001347,0.00000954,-0.00006069,-0.000061
 17,0.00002129,-0.00000075,-0.00001104,-0.00001492,-0.00000631,-0.00001
 195,-0.00000887,-0.00000310,0.00002954,0.00001459,0.00000730,-0.000008
 28,-0.00001699,-0.00000957,0.00000824,-0.00000819,-0.00000452,-0.00000
 573,0.00000277,-0.00000955,-0.00000634,-0.00000640,-0.00000032,-0.0000
 0359,0.00000453,0.00000086,-0.00000163,-0.00001193,0.00000007,-0.00000
 014,0.00000081,-0.00000057,0.00000039,0.00000004,0.00000005,0.00000007
 ,-0.00000065,-0.00000106,0.00000004,0.00000040,0.00030951,-0.00062533,
 0.00003529,0.00019337,0.00019491,-0.00007552,-0.00006499,-0.00015298,0
 .00044145,-0.00003456,0.00006564,0.00012871,-0.00097807,0.00378167,-0.
 00188649,0.00127674,-0.00081866,0.00024899,0.00003225,0.00018703,0.000
 00524,-0.00000023,-0.00002609,0.00000037,0.00006391,-0.00004309,0.0000
 0769,-0.00001588,-0.00000256,-0.00000173,-0.00000043,0.00000308,0.0000
 0061,0.00001058,0.00002057,-0.00001489,0.00000077,-0.00000247,0.000010
 28,0.00001221,-0.00000453,0.00000275,0.00000191,-0.00000068,0.00000216
 ,-0.00001043,0.00000721,-0.00000145,-0.00000089,-0.00000164,0.00000109
 ,0.00001426,-0.00000083,-0.00000168,-0.00000008,-0.00000147,0.00000739
 ,-0.00000075,0.00000069,-0.00000127,0.00000013,-0.00000012,-0.00000137
 ,0.00000053,0.00000032,-0.00000022,-0.08718516,0.08531800,-0.10876060,
 0.01204705,-0.01149568,0.01063758,0.09170482,-0.09004689,0.11909593,0.
 00008839,-0.00005717,-0.00016544,-0.00003897,0.00012155,0.00009171,0.0
 0035656,-0.00030150,-0.00006017,-0.00005279,0.00004829,0.00001797,-0.0
 0110458,0.00014531,-0.00226651,0.00032744,0.00137404,0.00136865,0.0000
 2532,0.00007704,0.00005305,0.00000624,-0.00006099,0.00001126,-0.000011
 23,-0.00002722,-0.00002218,0.00002787,-0.00001714,0.00000721,-0.000004
 92,0.00004343,0.00003507,0.00008281,0.00001898,-0.00014015,-0.00000345
 ,0.00002589,-0.00001250,0.00009097,0.00007812,0.00005741,-0.00000661,0
 .00001701,-0.00000361,-0.00011836,-0.00008175,-0.00001982,0.00001119,0
 .00002862,0.00000869,-0.00007717,-0.00010729,0.00011881,0.00000375,0.0
 0009017,-0.00001921,0.00000881,-0.00000942,-0.00000082,-0.00000699,-0.
 00000866,0.00000911,0.00000005,-0.00000641,-0.00000404,-0.00001735,-0.
 00010017,0.00000378,0.00000664,0.00003233,-0.00001466,0.00013706,0.000
 28037,0.00005809,0.00007317,-0.00003971,-0.00002366,-0.00107547,-0.000
 57072,-0.00013107,0.00017970,0.00090469,0.00051346,-0.00000764,0.00005
 583,-0.00000059,-0.00002385,-0.00002985,0.00001834,0.00001223,-0.00000
 916,0.00003345,0.00000914,0.00000900,0.00000204,-0.00000210,0.00000074
 ,-0.00001026,0.00001739,0.00000555,-0.00003416,0.00000706,0.00000397,-
 0.00001876,0.00001518,-0.00001616,0.00001615,-0.00000326,0.00000664,-0
 .00000337,-0.00003852,0.00002489,0.00000815,0.00000338,-0.00000170,-0.
 00001457,-0.00001666,0.00000874,0.00002729,0.00001562,-0.00000418,-0.0
 0002745,0.00000055,-0.00000483,0.00000167,0.00000127,-0.00000087,0.000
 00212,-0.00000204,0.00000584,0.00000312,-0.00041841,-0.00001423,-0.000
 33874,0.00017151,-0.00016779,0.00012343,-0.00056272,0.00086964,0.00063
 994,0.33790619,0.00037717,0.00004312,0.00031886,0.00003327,0.00005023,
 0.00001437,-0.00020570,-0.00026744,-0.00027289,-0.00005112,0.00001418,
 0.00001348,0.00049257,0.00091101,0.00009075,-0.00020032,-0.00074399,-0
 .00016592,-0.00010989,-0.00000870,-0.00002541,0.00001853,0.00001587,0.
 00008768,0.00001574,0.00000565,-0.00005560,-0.00008894,-0.00001860,0.0
 0003893,0.00001052,-0.00000503,-0.00000339,-0.00002682,0.00001600,-0.0
 0008814,0.00001287,0.00000208,-0.00000528,0.00013272,0.00002502,-0.000
 00249,-0.00001040,-0.00000842,-0.00000578,-0.00014687,-0.00004803,-0.0
 0001927,0.00001645,-0.00000037,0.00001493,-0.00002765,-0.00002307,0.00
 003629,0.00000395,0.00002061,-0.00000255,0.00000002,-0.00000254,-0.000
 00027,0.00000024,-0.00000255,0.00000370,-0.00000052,0.00000045,-0.0000
 0324,-0.00006077,0.00024608,-0.00001369,-0.00001240,0.00003536,0.00001
 801,0.00017784,-0.00038359,0.00015370,0.00003381,0.00000048,0.00000822
 ,-0.00045150,0.00085512,0.00012381,0.00093121,-0.00044595,-0.00095748,
 0.00009895,-0.00008150,-0.00000891,0.00001750,0.00007556,-0.00001388,-
 0.00004077,-0.00003942,-0.00002462,0.00006140,-0.00000156,0.00001511,-
 0.00000531,0.00000391,0.00000248,-0.00004203,-0.00009489,0.00002675,-0
 .00000906,-0.00000025,0.00000152,-0.00007853,0.00006397,-0.00002852,0.
 00000493,-0.00000982,0.00000186,0.00011059,-0.00008152,0.00001764,-0.0
 0000275,0.00001803,0.00000177,0.00006409,0.00001814,-0.00001561,-0.000
 02378,0.00000528,0.00002783,-0.00000118,0.00000145,-0.00000399,0.00000
 518,0.00000069,-0.00000066,0.,-0.00000442,-0.00000187,0.00001650,-0.00
 010472,-0.00054484,0.00021477,-0.00013554,0.00014155,0.00049727,-0.001
 25331,0.00011271,-0.07254041,0.08669567,0.00018576,0.00002771,0.000067
 84,-0.00001579,0.00013259,0.00010111,0.00031105,-0.00035479,-0.0000149
 5,-0.00005613,0.00001920,0.00001609,-0.00096013,0.00052491,-0.00221497
 ,0.00052685,0.00106734,0.00132337,-0.00002245,-0.00001318,0.00000750,0
 .00003902,-0.00007319,0.00007274,-0.00001797,-0.00000298,-0.00006574,-
 0.00002508,-0.00002145,0.00004008,0.00000583,0.00004908,0.00003420,0.0
 0005017,0.00003158,-0.00019692,0.00001057,0.00001885,-0.00000364,0.000
 16942,0.00008071,0.00006056,-0.00000908,0.00001375,-0.00000683,-0.0002
 0115,-0.00010743,-0.00003623,0.00002570,0.00003080,0.00002074,-0.00008
 956,-0.00011309,0.00014194,0.00000537,0.00009324,-0.00001664,0.0000091
 5,-0.00001005,-0.00000334,-0.00000746,-0.00001043,0.00000929,-0.000000
 15,-0.00000204,-0.00000462,0.00001407,-0.00011187,0.00002567,0.0000069
 8,0.00006957,-0.00003854,0.00016947,0.00019912,-0.00018339,0.00010834,
 -0.00002374,-0.00002758,-0.00064566,-0.00146495,-0.00042521,0.00085180
 ,0.00091174,0.00238901,-0.00001928,0.00006619,0.00007350,-0.00002657,-
 0.00003714,0.00000925,0.00003730,-0.00002093,-0.00000003,0.00000169,0.
 00000829,0.00000108,0.00000091,0.00000690,-0.00000917,-0.00003336,-0.0
 0000628,-0.00001642,0.00000320,-0.00000140,-0.00002705,0.00000742,-0.0
 0001237,0.00001298,-0.00000281,0.00000185,-0.00000696,-0.00001536,0.00
 002364,0.00000969,0.00000407,-0.00001008,-0.00001647,0.00000981,0.0000
 2161,0.00003489,0.00000917,0.00000359,-0.00003075,0.00000195,-0.000004
 72,0.00000281,0.00000344,-0.00000106,0.00000235,-0.00000009,0.00000324
 ,0.00000010,-0.00078196,-0.00035961,-0.00095395,0.00047633,-0.00029236
 ,0.00033219,-0.00003017,0.00008389,0.00077697,0.39078530,-0.06284288,0
 .46630627,-0.00004386,-0.00004127,-0.00011330,-0.00001074,0.00006326,0
 .00006837,0.00031607,-0.00007962,0.00012700,-0.00002233,-0.00000573,0.
 00001423,-0.00082695,-0.00027278,-0.00198294,0.00023777,0.00090194,0.0
 0134393,0.00010092,0.00000525,0.00001791,-0.00000572,-0.00004215,0.000
 00184,-0.00005055,-0.00000664,0.00000978,0.00003657,-0.00000197,-0.000
 02821,-0.00000374,0.00002821,0.00002309,0.00007978,0.00000725,-0.00003
 708,-0.00000098,0.00000299,0.00000050,0.00000527,0.00002995,0.00003690
 ,0.00000241,0.00000996,-0.00000173,-0.00000251,-0.00002518,-0.00000814
 ,0.00000545,0.00002277,-0.00000074,-0.00003117,-0.00003904,0.00005290,
 -0.00000251,0.00003218,-0.00000781,0.00000446,-0.00000425,-0.00000189,
 -0.00000235,-0.00000372,0.00000318,-0.00000071,-0.00000065,-0.00000140
 ,0.00004268,-0.00021841,0.00002655,0.00000359,0.00002003,-0.00002349,-
 0.00002095,0.00033094,-0.00013535,0.00004853,-0.00002031,-0.00001807,-
 0.00059835,-0.00101444,-0.00006352,0.00083725,0.00198204,0.00173217,-0
 .00006111,0.00008484,0.00004570,-0.00001881,-0.00005115,-0.00000673,0.
 00005107,-0.00000136,-0.00002612,-0.00003126,-0.00000709,0.00000148,0.
 00000042,0.00000072,-0.00000383,-0.00000618,0.00003131,-0.00000213,0.0
 0000511,0.00000108,-0.00001242,0.00006068,-0.00002655,0.00001659,-0.00
 000447,0.00000638,-0.00000506,-0.00007242,0.00005544,-0.00000849,0.000
 00711,-0.00000912,-0.00000611,-0.00003217,0.00000228,0.00002370,0.0000
 1310,0.00000075,-0.00003007,0.00000221,-0.00000237,0.00000289,0.000000
 06,-0.00000267,0.00000351,0.00000007,0.00000342,0.00000083,-0.00027216
 ,0.00002400,-0.00024334,0.00020934,-0.00013163,0.00016033,-0.00010144,
 0.00045360,0.00060790,-0.05518391,-0.03268737,-0.07761945,0.18860044,0
 .00036665,0.00002601,0.00024085,-0.00000162,0.00007416,0.00010154,-0.0
 0025659,-0.00033285,-0.00027937,-0.00004958,-0.00001848,0.00002343,0.0
 0008239,0.00135671,-0.00089494,0.00007995,-0.00057615,0.00052347,-0.00
 010504,-0.00004392,0.00002057,0.00003610,-0.00002809,0.00006663,0.0000
 2128,-0.00000107,-0.00006851,-0.00005056,-0.00003838,0.00005404,0.0000
 0438,0.00002729,0.00002858,0.00002014,0.00001969,-0.00019613,0.0000075
 0,0.00001468,-0.00001419,0.00017651,0.00008707,0.00002576,-0.00001212,
 0.00000820,-0.00000599,-0.00022056,-0.00010062,-0.00001735,0.00002042,
 0.00001652,0.00001333,-0.00008709,-0.00009967,0.00013545,0.00000768,0.
 00008293,-0.00001614,0.00000778,-0.00000863,-0.00000236,-0.00000725,-0
 .00000986,0.00001103,-0.00000048,-0.00000605,-0.00000521,-0.00006061,0
 .00021220,0.00001299,-0.00000610,0.00006790,-0.00000277,0.00023413,-0.
 00035843,0.00011712,0.00007141,-0.00001736,-0.00002783,-0.00098327,0.0
 0049244,-0.00027706,0.00198518,-0.00023948,0.00021548,0.00010477,-0.00
 007526,-0.00000917,0.00000695,0.00006241,-0.00000194,-0.00005896,-0.00
 005288,0.00001884,0.00008012,0.00002085,0.00001979,-0.00001036,0.00000
 362,-0.00000940,-0.00000706,-0.00009515,-0.00000470,-0.00000146,0.0000
 0578,-0.00001613,-0.00007885,0.00005122,-0.00002069,0.00000380,-0.0000
 0320,-0.00000037,0.00009146,-0.00007560,0.00002876,-0.00000219,0.00002
 226,-0.00000989,0.00004781,0.00002602,0.00000496,-0.00000773,-0.000001
 43,0.00000473,-0.00000142,-0.00000393,-0.00000214,0.00000547,0.0000007
 3,0.00000050,-0.00000388,0.00000262,0.00000236,-0.00038928,-0.00015480
 ,-0.00033904,0.00032892,-0.00019013,0.00009307,-0.00016303,0.00048522,
 0.00079099,-0.05082862,0.05614730,-0.04624480,0.17368478,0.29483013,0.
 00018435,-0.00007275,0.00004555,-0.00002868,0.00010140,0.00011026,0.00
 039792,-0.00028049,-0.00007017,-0.00003444,0.00002822,0.00001323,-0.00
 146117,0.00007866,-0.00211561,0.00080592,0.00105891,0.00176794,0.00006
 862,-0.00000531,-0.00001025,0.00001428,-0.00006362,0.00007653,-0.00005
 176,-0.00001490,-0.00003492,0.00000051,-0.00000757,-0.00000273,0.00000
 022,0.00004913,0.00003396,0.00007834,0.00004544,-0.00015712,0.00000807
 ,0.00001227,-0.00000151,0.00012882,0.00005269,0.00006123,-0.00000598,0
 .00001446,-0.00000788,-0.00012731,-0.00008223,-0.00002828,0.00002318,0
 .00003807,0.00001193,-0.00007462,-0.00009405,0.00013071,-0.00000112,0.
 00007910,-0.00001591,0.00001078,-0.00000987,-0.00000342,-0.00000570,-0
 .00000996,0.00000731,-0.00000211,-0.00000083,-0.00000361,0.00002403,-0
 .00006253,0.00003558,0.00000182,0.00003597,-0.00002223,0.00004479,0.00
 013798,-0.00001036,0.00006604,-0.00000792,-0.00004372,-0.00003078,-0.0
 0149709,-0.00073599,0.00025129,0.00072545,0.00138124,0.00000345,0.0000
 4941,0.00006542,-0.00003537,-0.00001870,-0.00000450,0.00003801,-0.0000
 2324,-0.00005564,-0.00000386,-0.00000384,0.00000192,-0.00000149,0.0000
 0260,-0.00000795,-0.00003931,-0.00001778,0.00001793,0.00000360,0.00000
 184,-0.00002486,0.00002632,-0.00000079,0.00001029,-0.00000405,0.000002
 33,-0.00000799,-0.00002806,0.00003284,0.00000438,0.00000967,-0.0000098
 9,-0.00001340,-0.00000942,0.00001695,0.00003503,0.00000648,0.00000867,
 -0.00003694,0.00000290,-0.00000253,0.00000357,0.00000298,-0.00000353,0
 .00000483,0.00000246,0.00000139,-0.00000032,-0.00025679,-0.00011112,-0
 .00026101,0.00028788,-0.00016145,0.00015072,-0.00029142,0.00042838,0.0
 0070683,-0.08578216,-0.02443468,-0.11082207,0.27860696,0.30064456,0.43
 612274,-0.00019808,0.00026789,0.00007745,0.00005249,-0.00018182,-0.000
 17619,-0.00098544,0.00063401,0.00001491,0.00005616,-0.00005721,-0.0000
 1256,0.00262662,0.00063215,0.00455887,-0.00106874,-0.00258563,-0.00300
 225,-0.00015384,-0.00004539,-0.00006621,-0.00000043,0.00010599,-0.0000
 1689,0.00007606,0.00002209,0.00000301,-0.00006122,0.00000945,0.0000288
 3,0.00001180,-0.00006915,-0.00005406,-0.00015875,-0.00002739,0.0001816
 4,0.00000628,-0.00003897,0.00001549,-0.00010619,-0.00010169,-0.0001025
 5,0.00000599,-0.00002674,0.00000666,0.00012265,0.00010748,0.00002874,-
 0.00001680,-0.00005107,-0.00000810,0.00010491,0.00014949,-0.00017026,-
 0.00000105,-0.00012744,0.00002861,-0.00001404,0.00001404,0.00000214,0.
 00000854,0.00001248,-0.00001173,0.00000146,0.00000708,0.00000551,-0.00
 007381,0.00068721,-0.00004251,-0.00001715,-0.00004666,0.00008747,0.000
 12443,-0.00137579,0.00025872,-0.00010283,0.00005346,0.00003506,0.00038
 635,0.00444298,0.00075764,-0.00498997,-0.00292673,-0.00125625,0.000199
 25,-0.00027287,-0.00006974,0.00005675,0.00017534,-0.00001058,-0.000139
 44,-0.00002392,-0.00000276,0.00011259,0.00000326,0.00000579,-0.0000021
 0,-0.00000086,0.00001082,-0.00003457,-0.00014299,0.00003801,-0.0000167
 4,-0.00000356,0.00002966,-0.00018711,0.00011401,-0.00005328,0.00001339
 ,-0.00002141,0.00001003,0.00023792,-0.00017533,0.00002209,-0.00001324,
 0.00002857,0.00002124,0.00010929,0.00000557,-0.00006332,-0.00004627,0.
 00000734,0.00008259,-0.00000281,0.00000670,-0.00000686,0.00000285,0.00
 000584,-0.00000759,-0.00000160,-0.00001212,-0.00000429,0.00073698,-0.0
 0004713,0.00078669,-0.00066045,0.00025874,-0.00045895,0.00027191,-0.00
 081859,-0.00152544,-0.28080848,0.10347598,-0.31325049,-0.13326297,-0.1
 2408187,-0.19282409,0.41779944,-0.00080171,-0.00008116,-0.00064627,-0.
 00002618,-0.00005216,-0.00012106,0.00077631,0.00079743,0.00056205,0.00
 011889,0.00006967,-0.00000423,-0.00057951,-0.00445871,0.00057829,0.000
 41000,0.00038693,-0.00030402,0.00031957,0.00011209,0.00001949,-0.00008
 720,0.00001337,-0.00019464,-0.00006595,-0.00000502,0.00015915,0.000166
 61,0.00006811,-0.00011984,-0.00001787,-0.00001632,-0.00001945,0.000028
 61,-0.00002808,0.00031818,-0.00002114,-0.00001723,0.00001713,-0.000342
 20,-0.00012532,-0.00002557,0.00002325,0.00000266,0.00001172,0.00041706
 ,0.00016426,0.00004356,-0.00003971,-0.00001324,-0.00003625,0.00011794,
 0.00012500,-0.00017612,-0.00001121,-0.00010584,0.00001810,-0.00000675,
 0.00001166,0.00000408,0.00000731,0.00001319,-0.00001527,-0.00000024,0.
 00000406,0.00001000,0.00013938,-0.00054035,0.00000425,0.00002581,-0.00
 009896,-0.00003678,-0.00052017,0.00089491,-0.00032725,-0.00011493,0.00
 002802,0.00002514,0.00257736,-0.00256271,-0.00013244,-0.00217000,0.000
 11673,0.00033358,-0.00022634,0.00019184,0.00002157,-0.00002957,-0.0001
 5972,0.00001626,0.00011243,0.00010278,0.00001758,-0.00016232,-0.000017
 08,-0.00003776,0.00001518,-0.00000819,0.00000704,0.00006045,0.00021333
 ,-0.00003008,0.00001082,-0.00000425,0.00001566,0.00018452,-0.00013076,
 0.00005662,-0.00001019,0.00001478,-0.00000060,-0.00023185,0.00017615,-
 0.00005023,0.00000517,-0.00004143,0.00000701,-0.00012585,-0.00004967,0
 .00001239,0.00003344,-0.00000496,-0.00003744,0.00000282,0.00000283,0.0
 0000620,-0.00001167,-0.00000136,0.00000078,0.00000472,0.00000215,0.000
 00012,0.00052425,-0.00055542,0.00002365,-0.00030495,0.00029181,-0.0000
 0118,0.00015107,-0.00096315,-0.00150060,0.12072926,-0.14150604,0.10865
 343,-0.14308990,-0.35161256,-0.27665006,0.02203516,0.49935589,-0.00051
 221,0.00016523,-0.00022292,0.00003398,-0.00021575,-0.00024969,-0.00076
 110,0.00065162,0.00013139,0.00012604,-0.00004517,-0.00004482,0.0025060
 2,-0.00024154,0.00503499,-0.00152964,-0.00229863,-0.00342288,-0.000041
 77,0.00001408,-0.00000560,-0.00004603,0.00012221,-0.00016345,0.0000764
 8,0.00001123,0.00011612,0.00002541,0.00003625,-0.00004418,-0.00000876,
 -0.00009257,-0.00006187,-0.00012726,-0.00006874,0.00035401,-0.00002303
 ,-0.00002691,0.00000460,-0.00029705,-0.00014194,-0.00012872,0.00001682
 ,-0.00002539,0.00001554,0.00033873,0.00019372,0.00007100,-0.00004879,-
 0.00006623,-0.00003726,0.00016053,0.00020195,-0.00026745,-0.00000331,-
 0.00016569,0.00003217,-0.00001840,0.00001971,0.00000753,0.00001318,0.0
 0001969,-0.00001541,0.00000142,0.00000106,0.00000703,-0.00005204,0.000
 07105,-0.00007476,-0.00000830,-0.00011181,0.00004864,-0.00031119,0.000
 02293,0.00023940,-0.00019471,0.00003027,0.00007123,0.00144062,0.001643
 02,0.00093945,-0.00011344,-0.00167685,-0.00524137,-0.00002273,-0.00005
 944,-0.00013484,0.00005623,0.00003207,-0.00000376,-0.00005500,0.000055
 60,0.00003977,-0.00003400,-0.00000299,-0.00001148,-0.00000049,-0.00001
 245,0.00001671,0.00009393,0.00006509,0.00001411,-0.00000391,0.00000363
 ,0.00005485,0.00001311,-0.00001594,-0.00001981,0.00000359,0.00000150,0
 .00001477,-0.00000811,-0.00001959,-0.00002609,-0.00001384,0.00001698,0
 .00003396,-0.00003244,-0.00005086,-0.00006888,-0.00000934,-0.00001210,
 0.00005862,-0.00000490,0.00000747,-0.00000494,-0.00000849,0.00000322,-
 0.00000563,-0.00000242,-0.00000317,0.00000130,0.00101437,0.00003938,0.
 00066781,-0.00063399,0.00055046,-0.00044523,0.00034913,-0.00168697,-0.
 00251835,-0.30490135,0.08826989,-0.35675077,-0.20254080,-0.25473269,-0
 .32630072,0.50609926,0.16952410,0.68829588\\-0.00000037,-0.00000187,0.
 00000098,-0.00000111,-0.00000141,0.00000079,-0.00000039,-0.00000118,0.
 00000060,0.00000008,-0.00000156,0.00000082,-0.00000086,-0.00000044,0.0
 0000002,-0.00000012,-0.00000001,0.00000013,-0.00000028,-0.00000258,0.0
 0000135,-0.00000053,-0.00000289,0.00000163,0.00000041,-0.00000304,0.00
 000154,-0.00000023,-0.00000373,0.00000205,-0.00000107,-0.00000253,0.00
 000145,0.00000074,-0.00000390,0.00000200,0.00000093,-0.00000271,0.0000
 0151,0.00000048,-0.00000400,0.00000235,-0.00000059,-0.00000398,0.00000
 217,0.00000076,-0.00000487,0.00000280,0.00000037,-0.00000523,0.0000026
 9,0.00000117,-0.00000413,0.00000215,0.00000200,-0.00000456,0.00000208,
 0.00000263,-0.00000356,0.00000202,0.00000286,-0.00000447,0.00000242,0.
 00000232,-0.00000464,0.00000285,-0.00000045,0.00000145,-0.00000074,-0.
 00000019,0.00000095,-0.00000068,-0.00000140,0.00000164,-0.00000092,-0.
 00000151,0.00000236,-0.00000123,-0.00000173,0.00000058,-0.00000041,-0.
 00000257,0.00000098,-0.00000047,0.00000038,0.00000264,-0.00000128,0.00
 000114,0.00000235,-0.00000123,-0.00000015,0.00000300,-0.00000176,0.000
 00179,0.00000298,-0.00000176,0.00000128,0.00000178,-0.00000091,0.00000
 010,0.00000398,-0.00000209,-0.00000075,0.00000337,-0.00000180,0.000001
 31,0.00000371,-0.00000210,0.00000230,0.00000290,-0.00000157,0.00000192
 ,0.00000450,-0.00000241,0.00000241,0.00000438,-0.00000242,0.00000020,0
 .00000458,-0.00000255,-0.00000013,0.00000522,-0.00000282,-0.00000078,0
 .00000492,-0.00000267,-0.00000041,0.00000578,-0.00000310,0.00000044,0.
 00000538,-0.00000294,-0.00000133,0.00000005,0.00000013,-0.00000088,0.0
 0000023,0.00000002,-0.00000196,-0.00000035,0.00000022,-0.00000306,-0.0
 0000092,0.00000049,-0.00000269,-0.00000055,0.00000007,-0.00000248,-0.0
 0000062,0.00000050\\\@


 OPTIMIST - A PESSIMIST WHO LACKS EXPERIENCE
 Job cpu time:       0 days 22 hours 39 minutes 37.6 seconds.
 Elapsed time:       0 days 22 hours 41 minutes 37.8 seconds.
 File lengths (MBytes):  RWF=   9581 Int=      0 D2E=      0 Chk=     77 Scr=      1
 Normal termination of Gaussian 16 at Wed Nov 13 07:42:02 2024.
