 Entering Gaussian System, Link 0=g16
 Initial command:
 /sw/cluster/pub/apps//g16/l1.exe "/data/mmaximo/25534/Gau-2223092.inp" -scrdir="/data/mmaximo/25534/"
 Entering Link 1 = /sw/cluster/pub/apps//g16/l1.exe PID=   2223093.
  
 Copyright (c) 1988,1990,1992,1993,1995,1998,2003,2009,2016,
            Gaussian, Inc.  All Rights Reserved.
  
 This is part of the Gaussian(R) 16 program.  It is based on
 the Gaussian(R) 09 system (copyright 2009, Gaussian, Inc.),
 the Gaussian(R) 03 system (copyright 2003, Gaussian, Inc.),
 the Gaussian(R) 98 system (copyright 1998, Gaussian, Inc.),
 the Gaussian(R) 94 system (copyright 1995, Gaussian, Inc.),
 the Gaussian 92(TM) system (copyright 1992, Gaussian, Inc.),
 the Gaussian 90(TM) system (copyright 1990, Gaussian, Inc.),
 the Gaussian 88(TM) system (copyright 1988, Gaussian, Inc.),
 the Gaussian 86(TM) system (copyright 1986, Carnegie Mellon
 University), and the Gaussian 82(TM) system (copyright 1983,
 Carnegie Mellon University). Gaussian is a federally registered
 trademark of Gaussian, Inc.
  
 This software contains proprietary and confidential information,
 including trade secrets, belonging to Gaussian, Inc.
  
 This software is provided under written license and may be
 used, copied, transmitted, or stored only in accord with that
 written license.
  
 The following legend is applicable only to US Government
 contracts under FAR:
  
                    RESTRICTED RIGHTS LEGEND
  
 Use, reproduction and disclosure by the US Government is
 subject to restrictions as set forth in subparagraphs (a)
 and (c) of the Commercial Computer Software - Restricted
 Rights clause in FAR 52.227-19.
  
 Gaussian, Inc.
 340 Quinnipiac St., Bldg. 40, Wallingford CT 06492
  
  
 ---------------------------------------------------------------
 Warning -- This program may not be used in any manner that
 competes with the business of Gaussian, Inc. or will provide
 assistance to any competitor of Gaussian, Inc.  The licensee
 of this program is prohibited from giving any competitor of
 Gaussian, Inc. access to this program.  By using this program,
 the user acknowledges that Gaussian, Inc. is engaged in the
 business of creating and licensing software in the field of
 computational chemistry and represents and warrants to the
 licensee that it is not a competitor of Gaussian, Inc. and that
 it will not use this program in any manner prohibited above.
 ---------------------------------------------------------------
  

 Cite this work as:
 Gaussian 16, Revision A.03,
 M. J. Frisch, G. W. Trucks, H. B. Schlegel, G. E. Scuseria, 
 M. A. Robb, J. R. Cheeseman, G. Scalmani, V. Barone, 
 G. A. Petersson, H. Nakatsuji, X. Li, M. Caricato, A. V. Marenich, 
 J. Bloino, B. G. Janesko, R. Gomperts, B. Mennucci, H. P. Hratchian, 
 J. V. Ortiz, A. F. Izmaylov, J. L. Sonnenberg, D. Williams-Young, 
 F. Ding, F. Lipparini, F. Egidi, J. Goings, B. Peng, A. Petrone, 
 T. Henderson, D. Ranasinghe, V. G. Zakrzewski, J. Gao, N. Rega, 
 G. Zheng, W. Liang, M. Hada, M. Ehara, K. Toyota, R. Fukuda, 
 J. Hasegawa, M. Ishida, T. Nakajima, Y. Honda, O. Kitao, H. Nakai, 
 T. Vreven, K. Throssell, J. A. Montgomery, Jr., J. E. Peralta, 
 F. Ogliaro, M. J. Bearpark, J. J. Heyd, E. N. Brothers, K. N. Kudin, 
 V. N. Staroverov, T. A. Keith, R. Kobayashi, J. Normand, 
 K. Raghavachari, A. P. Rendell, J. C. Burant, S. S. Iyengar, 
 J. Tomasi, M. Cossi, J. M. Millam, M. Klene, C. Adamo, R. Cammi, 
 J. W. Ochterski, R. L. Martin, K. Morokuma, O. Farkas, 
 J. B. Foresman, and D. J. Fox, Gaussian, Inc., Wallingford CT, 2016.
 
 ******************************************
 Gaussian 16:  ES64L-G16RevA.03 25-Dec-2016
                20-Nov-2024 
 ******************************************
 %chk=CURCUMIN-OPT-FREQ-Prod-M06-2X-6-311+G-D-363.chk
 ----------------------------------------------------------------------
 # opt=(calcfc) freq=noraman M062X/6-311+g(d) scrf=(smd,solvent=generic
 ,read) temperature=363.15 SCF=(MaxCycle=500)
 ----------------------------------------------------------------------
 1/10=4,18=20,19=15,26=3,38=1,40=2,112=363150/1,3;
 2/9=110,12=2,17=6,18=5,40=1/2;
 3/5=4,6=6,7=11,11=2,25=1,30=1,70=32203,71=2,72=-2,74=-55,140=1/1,2,3;
 4//1;
 5/5=2,7=500,38=5/2;
 8/6=4,10=90,11=11/1;
 11/6=1,8=1,9=11,15=111,16=1/1,2,10;
 10/6=1,13=1/2;
 6/7=2,8=2,9=2,10=2,28=1/1;
 7/10=1,18=20,25=1/1,2,3,16;
 1/10=4,18=20,19=15,26=3/3(2);
 2/9=110/2;
 99//99;
 2/9=110/2;
 3/5=4,6=6,7=11,11=2,25=1,30=1,70=32205,71=1,72=-2,74=-55/1,2,3;
 4/5=5,16=3,69=1/1;
 5/5=2,7=500,38=5/2;
 7//1,2,3,16;
 1/18=20,19=15,26=3/3(-5);
 2/9=110/2;
 6/7=2,8=2,9=2,10=2,19=2,28=1/1;
 99/9=1/99;
 ---
 XXX
 ---
 Symbolic Z-matrix:
 Charge =  0 Multiplicity = 2
 C                     2.49407   0.32722   0.41596 
 H                     2.08006   0.69502   1.35175 
 C                     1.79515   0.48941  -0.71874 
 H                     2.16152   0.12196  -1.67243 
 C                     0.46144   1.11261  -0.80328 
 O                    -0.18911   1.04893  -1.8424 
 C                     3.79455  -0.3267    0.55659 
 C                     4.38794  -0.37491   1.8212 
 C                     4.47628  -0.91553  -0.52046 
 C                     5.62393  -0.97985   2.01138 
 H                     3.88025   0.07329   2.66891 
 C                     5.70495  -1.52119  -0.34314 
 H                     4.06427  -0.90892  -1.52361 
 C                     6.29286  -1.55255   0.93544 
 H                     6.07882  -1.00004   2.99725 
 O                     7.50479  -2.14336   1.04502 
 H                     7.81772  -2.10086   1.95858 
 O                     6.36692  -2.04652  -1.41467 
 C                     6.36493  -3.47376  -1.44941 
 H                     5.34006  -3.84795  -1.52874 
 H                     6.92769  -3.76348  -2.33507 
 H                     6.8437   -3.88887  -0.56057 
 C                    -2.59147   0.289     0.15428 
 H                    -1.62838  -0.21404   0.21292 
 C                    -2.6225    1.63422   0.19521 
 H                    -3.54953   2.19649   0.15078 
 C                    -1.4257    2.44514   0.34992 
 O                    -1.50771   3.66286   0.52703 
 C                    -3.73707  -0.60333   0.041 
 C                    -3.51054  -1.97851  -0.07569 
 C                    -5.06435  -0.14189   0.0438 
 C                    -4.56775  -2.86883  -0.20267 
 H                    -2.49341  -2.35546  -0.07823 
 C                    -6.12353  -1.01849  -0.07702 
 H                    -5.29605   0.9134    0.13778 
 C                    -5.87709  -2.39907  -0.20944 
 H                    -4.38116  -3.93343  -0.30722 
 O                    -6.95089  -3.20686  -0.34572 
 H                    -6.6707   -4.12769  -0.43673 
 O                    -7.402    -0.54446  -0.11544 
 C                    -8.14518  -0.79368   1.07836 
 H                    -7.67548  -0.2889    1.92751 
 H                    -9.1403   -0.38363   0.91558 
 H                    -8.21981  -1.86418   1.27807 
 C                    -0.06916   1.84136   0.34773 
 H                     0.5706    2.11922   1.17682 
 H                    -0.09373   4.61079   0.44288 
 O                     0.79393   5.02843   0.30213 
 O                     2.40193   4.73935  -1.01596 
 N                     1.32434   4.35662  -0.74317 
 
 Add virtual bond connecting atoms H47        and O28        Dist= 3.22D+00.

 GradGradGradGradGradGradGradGradGradGradGradGradGradGradGradGradGradGrad
 Berny optimization.
 Initialization pass.
                           ----------------------------
                           !    Initial Parameters    !
                           ! (Angstroms and Degrees)  !
 --------------------------                            --------------------------
 ! Name  Definition              Value          Derivative Info.                !
 --------------------------------------------------------------------------------
 ! R1    R(1,2)                  1.0874         calculate D2E/DX2 analytically  !
 ! R2    R(1,3)                  1.3425         calculate D2E/DX2 analytically  !
 ! R3    R(1,7)                  1.4624         calculate D2E/DX2 analytically  !
 ! R4    R(3,4)                  1.0857         calculate D2E/DX2 analytically  !
 ! R5    R(3,5)                  1.4746         calculate D2E/DX2 analytically  !
 ! R6    R(5,6)                  1.2276         calculate D2E/DX2 analytically  !
 ! R7    R(5,45)                 1.462          calculate D2E/DX2 analytically  !
 ! R8    R(7,8)                  1.3977         calculate D2E/DX2 analytically  !
 ! R9    R(7,9)                  1.4041         calculate D2E/DX2 analytically  !
 ! R10   R(8,10)                 1.3892         calculate D2E/DX2 analytically  !
 ! R11   R(8,11)                 1.085          calculate D2E/DX2 analytically  !
 ! R12   R(9,12)                 1.3813         calculate D2E/DX2 analytically  !
 ! R13   R(9,13)                 1.0845         calculate D2E/DX2 analytically  !
 ! R14   R(10,14)                1.3904         calculate D2E/DX2 analytically  !
 ! R15   R(10,15)                1.0859         calculate D2E/DX2 analytically  !
 ! R16   R(12,14)                1.4076         calculate D2E/DX2 analytically  !
 ! R17   R(12,18)                1.3647         calculate D2E/DX2 analytically  !
 ! R18   R(14,16)                1.3527         calculate D2E/DX2 analytically  !
 ! R19   R(16,17)                0.9666         calculate D2E/DX2 analytically  !
 ! R20   R(18,19)                1.4277         calculate D2E/DX2 analytically  !
 ! R21   R(19,20)                1.0939         calculate D2E/DX2 analytically  !
 ! R22   R(19,21)                1.0886         calculate D2E/DX2 analytically  !
 ! R23   R(19,22)                1.0916         calculate D2E/DX2 analytically  !
 ! R24   R(23,24)                1.0881         calculate D2E/DX2 analytically  !
 ! R25   R(23,25)                1.3462         calculate D2E/DX2 analytically  !
 ! R26   R(23,29)                1.4565         calculate D2E/DX2 analytically  !
 ! R27   R(25,26)                1.0851         calculate D2E/DX2 analytically  !
 ! R28   R(25,27)                1.4539         calculate D2E/DX2 analytically  !
 ! R29   R(27,28)                1.2333         calculate D2E/DX2 analytically  !
 ! R30   R(27,45)                1.4848         calculate D2E/DX2 analytically  !
 ! R31   R(28,47)                1.7044         calculate D2E/DX2 analytically  !
 ! R32   R(29,30)                1.3986         calculate D2E/DX2 analytically  !
 ! R33   R(29,31)                1.4052         calculate D2E/DX2 analytically  !
 ! R34   R(30,32)                1.388          calculate D2E/DX2 analytically  !
 ! R35   R(30,33)                1.0847         calculate D2E/DX2 analytically  !
 ! R36   R(31,34)                1.3802         calculate D2E/DX2 analytically  !
 ! R37   R(31,35)                1.0845         calculate D2E/DX2 analytically  !
 ! R38   R(32,36)                1.3911         calculate D2E/DX2 analytically  !
 ! R39   R(32,37)                1.0859         calculate D2E/DX2 analytically  !
 ! R40   R(34,36)                1.4086         calculate D2E/DX2 analytically  !
 ! R41   R(34,40)                1.3641         calculate D2E/DX2 analytically  !
 ! R42   R(36,38)                1.3506         calculate D2E/DX2 analytically  !
 ! R43   R(38,39)                0.9668         calculate D2E/DX2 analytically  !
 ! R44   R(40,41)                1.4281         calculate D2E/DX2 analytically  !
 ! R45   R(41,42)                1.0938         calculate D2E/DX2 analytically  !
 ! R46   R(41,43)                1.0885         calculate D2E/DX2 analytically  !
 ! R47   R(41,44)                1.0915         calculate D2E/DX2 analytically  !
 ! R48   R(45,46)                1.0835         calculate D2E/DX2 analytically  !
 ! R49   R(47,48)                0.9911         calculate D2E/DX2 analytically  !
 ! R50   R(48,50)                1.351          calculate D2E/DX2 analytically  !
 ! R51   R(49,50)                1.1756         calculate D2E/DX2 analytically  !
 ! A1    A(2,1,3)              119.2283         calculate D2E/DX2 analytically  !
 ! A2    A(2,1,7)              114.0213         calculate D2E/DX2 analytically  !
 ! A3    A(3,1,7)              126.7458         calculate D2E/DX2 analytically  !
 ! A4    A(1,3,4)              121.7258         calculate D2E/DX2 analytically  !
 ! A5    A(1,3,5)              124.7784         calculate D2E/DX2 analytically  !
 ! A6    A(4,3,5)              113.4467         calculate D2E/DX2 analytically  !
 ! A7    A(3,5,6)              120.3925         calculate D2E/DX2 analytically  !
 ! A8    A(3,5,45)             119.5898         calculate D2E/DX2 analytically  !
 ! A9    A(6,5,45)             119.9958         calculate D2E/DX2 analytically  !
 ! A10   A(1,7,8)              118.6827         calculate D2E/DX2 analytically  !
 ! A11   A(1,7,9)              123.0601         calculate D2E/DX2 analytically  !
 ! A12   A(8,7,9)              118.2567         calculate D2E/DX2 analytically  !
 ! A13   A(7,8,10)             121.1051         calculate D2E/DX2 analytically  !
 ! A14   A(7,8,11)             119.603          calculate D2E/DX2 analytically  !
 ! A15   A(10,8,11)            119.2904         calculate D2E/DX2 analytically  !
 ! A16   A(7,9,12)             121.1511         calculate D2E/DX2 analytically  !
 ! A17   A(7,9,13)             121.502          calculate D2E/DX2 analytically  !
 ! A18   A(12,9,13)            117.346          calculate D2E/DX2 analytically  !
 ! A19   A(8,10,14)            120.0993         calculate D2E/DX2 analytically  !
 ! A20   A(8,10,15)            120.337          calculate D2E/DX2 analytically  !
 ! A21   A(14,10,15)           119.5607         calculate D2E/DX2 analytically  !
 ! A22   A(9,12,14)            119.8612         calculate D2E/DX2 analytically  !
 ! A23   A(9,12,18)            119.9652         calculate D2E/DX2 analytically  !
 ! A24   A(14,12,18)           120.1348         calculate D2E/DX2 analytically  !
 ! A25   A(10,14,12)           119.5241         calculate D2E/DX2 analytically  !
 ! A26   A(10,14,16)           123.2482         calculate D2E/DX2 analytically  !
 ! A27   A(12,14,16)           117.2263         calculate D2E/DX2 analytically  !
 ! A28   A(14,16,17)           110.3285         calculate D2E/DX2 analytically  !
 ! A29   A(12,18,19)           113.7823         calculate D2E/DX2 analytically  !
 ! A30   A(18,19,20)           110.1837         calculate D2E/DX2 analytically  !
 ! A31   A(18,19,21)           106.5671         calculate D2E/DX2 analytically  !
 ! A32   A(18,19,22)           111.0839         calculate D2E/DX2 analytically  !
 ! A33   A(20,19,21)           109.5302         calculate D2E/DX2 analytically  !
 ! A34   A(20,19,22)           109.8698         calculate D2E/DX2 analytically  !
 ! A35   A(21,19,22)           109.5431         calculate D2E/DX2 analytically  !
 ! A36   A(24,23,25)           118.7329         calculate D2E/DX2 analytically  !
 ! A37   A(24,23,29)           114.6525         calculate D2E/DX2 analytically  !
 ! A38   A(25,23,29)           126.6142         calculate D2E/DX2 analytically  !
 ! A39   A(23,25,26)           122.4274         calculate D2E/DX2 analytically  !
 ! A40   A(23,25,27)           122.793          calculate D2E/DX2 analytically  !
 ! A41   A(26,25,27)           114.7449         calculate D2E/DX2 analytically  !
 ! A42   A(25,27,28)           120.7485         calculate D2E/DX2 analytically  !
 ! A43   A(25,27,45)           121.6732         calculate D2E/DX2 analytically  !
 ! A44   A(28,27,45)           117.5464         calculate D2E/DX2 analytically  !
 ! A45   A(27,28,47)           119.1371         calculate D2E/DX2 analytically  !
 ! A46   A(23,29,30)           118.782          calculate D2E/DX2 analytically  !
 ! A47   A(23,29,31)           122.791          calculate D2E/DX2 analytically  !
 ! A48   A(30,29,31)           118.4269         calculate D2E/DX2 analytically  !
 ! A49   A(29,30,32)           120.9961         calculate D2E/DX2 analytically  !
 ! A50   A(29,30,33)           119.588          calculate D2E/DX2 analytically  !
 ! A51   A(32,30,33)           119.4123         calculate D2E/DX2 analytically  !
 ! A52   A(29,31,34)           121.0728         calculate D2E/DX2 analytically  !
 ! A53   A(29,31,35)           121.4334         calculate D2E/DX2 analytically  !
 ! A54   A(34,31,35)           117.4936         calculate D2E/DX2 analytically  !
 ! A55   A(30,32,36)           120.0501         calculate D2E/DX2 analytically  !
 ! A56   A(30,32,37)           120.4518         calculate D2E/DX2 analytically  !
 ! A57   A(36,32,37)           119.4952         calculate D2E/DX2 analytically  !
 ! A58   A(31,34,36)           119.7653         calculate D2E/DX2 analytically  !
 ! A59   A(31,34,40)           120.0674         calculate D2E/DX2 analytically  !
 ! A60   A(36,34,40)           120.1269         calculate D2E/DX2 analytically  !
 ! A61   A(32,36,34)           119.6821         calculate D2E/DX2 analytically  !
 ! A62   A(32,36,38)           123.1509         calculate D2E/DX2 analytically  !
 ! A63   A(34,36,38)           117.1661         calculate D2E/DX2 analytically  !
 ! A64   A(36,38,39)           110.4101         calculate D2E/DX2 analytically  !
 ! A65   A(34,40,41)           113.7999         calculate D2E/DX2 analytically  !
 ! A66   A(40,41,42)           110.178          calculate D2E/DX2 analytically  !
 ! A67   A(40,41,43)           106.5582         calculate D2E/DX2 analytically  !
 ! A68   A(40,41,44)           111.0803         calculate D2E/DX2 analytically  !
 ! A69   A(42,41,43)           109.5603         calculate D2E/DX2 analytically  !
 ! A70   A(42,41,44)           109.8714         calculate D2E/DX2 analytically  !
 ! A71   A(43,41,44)           109.5298         calculate D2E/DX2 analytically  !
 ! A72   A(5,45,27)            122.3721         calculate D2E/DX2 analytically  !
 ! A73   A(5,45,46)            121.0635         calculate D2E/DX2 analytically  !
 ! A74   A(27,45,46)           115.7244         calculate D2E/DX2 analytically  !
 ! A75   A(47,48,50)           104.5938         calculate D2E/DX2 analytically  !
 ! A76   A(48,50,49)           112.1787         calculate D2E/DX2 analytically  !
 ! A77   L(28,47,48,1,-1)      171.394          calculate D2E/DX2 analytically  !
 ! A78   L(28,47,48,1,-2)      174.671          calculate D2E/DX2 analytically  !
 ! D1    D(2,1,3,4)           -178.8638         calculate D2E/DX2 analytically  !
 ! D2    D(2,1,3,5)             -1.5827         calculate D2E/DX2 analytically  !
 ! D3    D(7,1,3,4)              0.3117         calculate D2E/DX2 analytically  !
 ! D4    D(7,1,3,5)            177.5927         calculate D2E/DX2 analytically  !
 ! D5    D(2,1,7,8)             -2.2466         calculate D2E/DX2 analytically  !
 ! D6    D(2,1,7,9)            177.4894         calculate D2E/DX2 analytically  !
 ! D7    D(3,1,7,8)            178.5412         calculate D2E/DX2 analytically  !
 ! D8    D(3,1,7,9)             -1.7228         calculate D2E/DX2 analytically  !
 ! D9    D(1,3,5,6)           -169.4283         calculate D2E/DX2 analytically  !
 ! D10   D(1,3,5,45)            12.2758         calculate D2E/DX2 analytically  !
 ! D11   D(4,3,5,6)              8.0509         calculate D2E/DX2 analytically  !
 ! D12   D(4,3,5,45)          -170.2449         calculate D2E/DX2 analytically  !
 ! D13   D(3,5,45,27)         -177.4628         calculate D2E/DX2 analytically  !
 ! D14   D(3,5,45,46)           13.4832         calculate D2E/DX2 analytically  !
 ! D15   D(6,5,45,27)            4.2345         calculate D2E/DX2 analytically  !
 ! D16   D(6,5,45,46)         -164.8195         calculate D2E/DX2 analytically  !
 ! D17   D(1,7,8,10)          -179.7997         calculate D2E/DX2 analytically  !
 ! D18   D(1,7,8,11)            -0.2548         calculate D2E/DX2 analytically  !
 ! D19   D(9,7,8,10)             0.4515         calculate D2E/DX2 analytically  !
 ! D20   D(9,7,8,11)           179.9963         calculate D2E/DX2 analytically  !
 ! D21   D(1,7,9,12)           179.8883         calculate D2E/DX2 analytically  !
 ! D22   D(1,7,9,13)             0.2368         calculate D2E/DX2 analytically  !
 ! D23   D(8,7,9,12)            -0.3745         calculate D2E/DX2 analytically  !
 ! D24   D(8,7,9,13)           179.9739         calculate D2E/DX2 analytically  !
 ! D25   D(7,8,10,14)           -0.0806         calculate D2E/DX2 analytically  !
 ! D26   D(7,8,10,15)          179.2867         calculate D2E/DX2 analytically  !
 ! D27   D(11,8,10,14)        -179.6269         calculate D2E/DX2 analytically  !
 ! D28   D(11,8,10,15)          -0.2596         calculate D2E/DX2 analytically  !
 ! D29   D(7,9,12,14)           -0.0706         calculate D2E/DX2 analytically  !
 ! D30   D(7,9,12,18)         -177.8083         calculate D2E/DX2 analytically  !
 ! D31   D(13,9,12,14)         179.5949         calculate D2E/DX2 analytically  !
 ! D32   D(13,9,12,18)           1.8572         calculate D2E/DX2 analytically  !
 ! D33   D(8,10,14,12)          -0.3735         calculate D2E/DX2 analytically  !
 ! D34   D(8,10,14,16)         179.1893         calculate D2E/DX2 analytically  !
 ! D35   D(15,10,14,12)       -179.7457         calculate D2E/DX2 analytically  !
 ! D36   D(15,10,14,16)         -0.1829         calculate D2E/DX2 analytically  !
 ! D37   D(9,12,14,10)           0.4484         calculate D2E/DX2 analytically  !
 ! D38   D(9,12,14,16)        -179.1405         calculate D2E/DX2 analytically  !
 ! D39   D(18,12,14,10)        178.1822         calculate D2E/DX2 analytically  !
 ! D40   D(18,12,14,16)         -1.4066         calculate D2E/DX2 analytically  !
 ! D41   D(9,12,18,19)        -107.0595         calculate D2E/DX2 analytically  !
 ! D42   D(14,12,18,19)         75.209          calculate D2E/DX2 analytically  !
 ! D43   D(10,14,16,17)         -0.1636         calculate D2E/DX2 analytically  !
 ! D44   D(12,14,16,17)        179.4086         calculate D2E/DX2 analytically  !
 ! D45   D(12,18,19,20)         61.8676         calculate D2E/DX2 analytically  !
 ! D46   D(12,18,19,21)       -179.3842         calculate D2E/DX2 analytically  !
 ! D47   D(12,18,19,22)        -60.1265         calculate D2E/DX2 analytically  !
 ! D48   D(24,23,25,26)       -179.4072         calculate D2E/DX2 analytically  !
 ! D49   D(24,23,25,27)         -1.6614         calculate D2E/DX2 analytically  !
 ! D50   D(29,23,25,26)          0.3722         calculate D2E/DX2 analytically  !
 ! D51   D(29,23,25,27)        178.118          calculate D2E/DX2 analytically  !
 ! D52   D(24,23,29,30)         -4.374          calculate D2E/DX2 analytically  !
 ! D53   D(24,23,29,31)        175.6262         calculate D2E/DX2 analytically  !
 ! D54   D(25,23,29,30)        175.8388         calculate D2E/DX2 analytically  !
 ! D55   D(25,23,29,31)         -4.161          calculate D2E/DX2 analytically  !
 ! D56   D(23,25,27,28)       -172.1414         calculate D2E/DX2 analytically  !
 ! D57   D(23,25,27,45)          5.7524         calculate D2E/DX2 analytically  !
 ! D58   D(26,25,27,28)          5.7636         calculate D2E/DX2 analytically  !
 ! D59   D(26,25,27,45)       -176.3426         calculate D2E/DX2 analytically  !
 ! D60   D(25,27,28,47)       -169.8445         calculate D2E/DX2 analytically  !
 ! D61   D(45,27,28,47)         12.1771         calculate D2E/DX2 analytically  !
 ! D62   D(25,27,45,5)          61.3907         calculate D2E/DX2 analytically  !
 ! D63   D(25,27,45,46)       -129.0109         calculate D2E/DX2 analytically  !
 ! D64   D(28,27,45,5)        -120.6508         calculate D2E/DX2 analytically  !
 ! D65   D(28,27,45,46)         48.9476         calculate D2E/DX2 analytically  !
 ! D66   D(27,28,48,50)         39.0279         calculate D2E/DX2 analytically  !
 ! D67   D(23,29,30,32)       -179.2114         calculate D2E/DX2 analytically  !
 ! D68   D(23,29,30,33)          0.1029         calculate D2E/DX2 analytically  !
 ! D69   D(31,29,30,32)          0.7884         calculate D2E/DX2 analytically  !
 ! D70   D(31,29,30,33)       -179.8972         calculate D2E/DX2 analytically  !
 ! D71   D(23,29,31,34)        179.447          calculate D2E/DX2 analytically  !
 ! D72   D(23,29,31,35)         -0.3773         calculate D2E/DX2 analytically  !
 ! D73   D(30,29,31,34)         -0.5529         calculate D2E/DX2 analytically  !
 ! D74   D(30,29,31,35)        179.6229         calculate D2E/DX2 analytically  !
 ! D75   D(29,30,32,36)         -0.2837         calculate D2E/DX2 analytically  !
 ! D76   D(29,30,32,37)        179.105          calculate D2E/DX2 analytically  !
 ! D77   D(33,30,32,36)       -179.5992         calculate D2E/DX2 analytically  !
 ! D78   D(33,30,32,37)         -0.2106         calculate D2E/DX2 analytically  !
 ! D79   D(29,31,34,36)         -0.1819         calculate D2E/DX2 analytically  !
 ! D80   D(29,31,34,40)       -177.874          calculate D2E/DX2 analytically  !
 ! D81   D(35,31,34,36)        179.649          calculate D2E/DX2 analytically  !
 ! D82   D(35,31,34,40)          1.957          calculate D2E/DX2 analytically  !
 ! D83   D(30,32,36,34)         -0.4671         calculate D2E/DX2 analytically  !
 ! D84   D(30,32,36,38)        179.1663         calculate D2E/DX2 analytically  !
 ! D85   D(37,32,36,34)       -179.8616         calculate D2E/DX2 analytically  !
 ! D86   D(37,32,36,38)         -0.2283         calculate D2E/DX2 analytically  !
 ! D87   D(31,34,36,32)          0.6976         calculate D2E/DX2 analytically  !
 ! D88   D(31,34,36,38)       -178.9574         calculate D2E/DX2 analytically  !
 ! D89   D(40,34,36,32)        178.3882         calculate D2E/DX2 analytically  !
 ! D90   D(40,34,36,38)         -1.2667         calculate D2E/DX2 analytically  !
 ! D91   D(31,34,40,41)       -107.2518         calculate D2E/DX2 analytically  !
 ! D92   D(36,34,40,41)         75.0645         calculate D2E/DX2 analytically  !
 ! D93   D(32,36,38,39)         -0.1625         calculate D2E/DX2 analytically  !
 ! D94   D(34,36,38,39)        179.4794         calculate D2E/DX2 analytically  !
 ! D95   D(34,40,41,42)         62.0027         calculate D2E/DX2 analytically  !
 ! D96   D(34,40,41,43)       -179.2215         calculate D2E/DX2 analytically  !
 ! D97   D(34,40,41,44)        -59.9871         calculate D2E/DX2 analytically  !
 ! D98   D(47,48,50,49)       -179.0788         calculate D2E/DX2 analytically  !
 --------------------------------------------------------------------------------
 Trust Radius=3.00D-01 FncErr=1.00D-07 GrdErr=1.00D-06 EigMax=2.50D+02 EigMin=1.00D-04
 Number of steps in this run=    237 maximum allowed number of steps=    300.
 GradGradGradGradGradGradGradGradGradGradGradGradGradGradGradGradGradGrad

                          Input orientation:                          
 ---------------------------------------------------------------------
 Center     Atomic      Atomic             Coordinates (Angstroms)
 Number     Number       Type             X           Y           Z
 ---------------------------------------------------------------------
      1          6           0        2.494073    0.327223    0.415957
      2          1           0        2.080055    0.695023    1.351750
      3          6           0        1.795146    0.489414   -0.718737
      4          1           0        2.161523    0.121956   -1.672430
      5          6           0        0.461436    1.112606   -0.803280
      6          8           0       -0.189113    1.048925   -1.842403
      7          6           0        3.794552   -0.326699    0.556590
      8          6           0        4.387942   -0.374913    1.821197
      9          6           0        4.476279   -0.915531   -0.520458
     10          6           0        5.623927   -0.979850    2.011379
     11          1           0        3.880254    0.073286    2.668913
     12          6           0        5.704949   -1.521192   -0.343137
     13          1           0        4.064270   -0.908916   -1.523609
     14          6           0        6.292861   -1.552554    0.935439
     15          1           0        6.078818   -1.000043    2.997249
     16          8           0        7.504791   -2.143363    1.045016
     17          1           0        7.817723   -2.100857    1.958582
     18          8           0        6.366916   -2.046523   -1.414673
     19          6           0        6.364926   -3.473760   -1.449413
     20          1           0        5.340059   -3.847950   -1.528736
     21          1           0        6.927693   -3.763477   -2.335066
     22          1           0        6.843705   -3.888865   -0.560567
     23          6           0       -2.591465    0.288998    0.154277
     24          1           0       -1.628376   -0.214043    0.212924
     25          6           0       -2.622500    1.634216    0.195210
     26          1           0       -3.549532    2.196485    0.150783
     27          6           0       -1.425702    2.445140    0.349920
     28          8           0       -1.507708    3.662863    0.527028
     29          6           0       -3.737068   -0.603329    0.041000
     30          6           0       -3.510539   -1.978508   -0.075693
     31          6           0       -5.064347   -0.141886    0.043797
     32          6           0       -4.567746   -2.868834   -0.202669
     33          1           0       -2.493413   -2.355460   -0.078229
     34          6           0       -6.123532   -1.018485   -0.077020
     35          1           0       -5.296050    0.913399    0.137781
     36          6           0       -5.877087   -2.399067   -0.209440
     37          1           0       -4.381159   -3.933427   -0.307224
     38          8           0       -6.950890   -3.206864   -0.345715
     39          1           0       -6.670698   -4.127693   -0.436734
     40          8           0       -7.402003   -0.544455   -0.115435
     41          6           0       -8.145179   -0.793681    1.078357
     42          1           0       -7.675483   -0.288901    1.927512
     43          1           0       -9.140297   -0.383628    0.915584
     44          1           0       -8.219814   -1.864176    1.278068
     45          6           0       -0.069158    1.841357    0.347731
     46          1           0        0.570604    2.119224    1.176823
     47          1           0       -0.093734    4.610789    0.442876
     48          8           0        0.793934    5.028433    0.302128
     49          8           0        2.401932    4.739348   -1.015957
     50          7           0        1.324337    4.356623   -0.743171
 ---------------------------------------------------------------------
                    Distance matrix (angstroms):
                    1          2          3          4          5
     1  C    0.000000
     2  H    1.087380   0.000000
     3  C    1.342511   2.100087   0.000000
     4  H    2.124637   3.079076   1.085720   0.000000
     5  C    2.496994   2.727354   1.474550   2.151071   0.000000
     6  O    3.580577   3.934080   2.347970   2.532519   1.227618
     7  C    1.462408   2.148417   2.508012   2.799394   3.876920
     8  C    2.460576   2.586791   3.731075   4.172439   4.951570
     9  C    2.520010   3.441066   3.033424   2.785949   4.506916
    10  C    3.748306   3.974838   4.926645   5.174231   6.241153
    11  H    2.657403   2.315641   3.999626   4.669439   4.982432
    12  C    3.781876   4.574288   4.412502   4.125872   5.885835
    13  H    2.784865   3.844141   2.784254   2.169168   4.193547
    14  C    4.270154   4.792979   5.209162   5.164583   6.643172
    15  H    4.612494   4.644461   5.863180   6.197579   7.103681
    16  O    5.621993   6.130113   6.530114   6.408330   7.976615
    17  H    6.051158   6.411398   7.081594   7.079389   8.489357
    18  O    4.897427   5.791921   5.274124   4.738573   6.725221
    19  C    5.736774   6.601923   6.092908   5.536019   7.503561
    20  H    5.414198   6.289947   5.659968   5.087622   6.995310
    21  H    6.630154   7.547876   6.858764   6.184824   8.242271
    22  H    6.135821   6.881958   6.684481   6.264643   8.112150
    23  C    5.092409   4.839617   4.477128   5.094669   3.303854
    24  H    4.162785   3.984443   3.617091   4.246268   2.675814
    25  C    5.285478   4.932919   4.654188   5.353680   3.283248
    26  H    6.331636   5.948862   5.677653   6.343810   4.262968
    27  C    4.455847   4.044367   3.916727   4.728136   2.582016
    28  O    5.210862   4.728666   4.746741   5.553278   3.485837
    29  C    6.311390   6.102680   5.690051   6.185083   4.613532
    30  C    6.450851   6.359253   5.886802   6.255702   5.085367
    31  C    7.582103   7.311199   6.930559   7.431571   5.729360
    32  C    7.776038   7.701335   7.213221   7.509200   6.442458
    33  H    5.684719   5.680396   5.186068   5.508856   4.613493
    34  C    8.735964   8.501549   8.086472   8.513993   6.959225
    35  H    7.817097   7.478525   7.155309   7.714833   5.837287
    36  C    8.826103   8.679102   8.213761   8.550740   7.270582
    37  H    8.120649   8.119238   7.607733   7.817711   7.011366
    38  O   10.113221   9.983190   9.502356   9.791695   8.591261
    39  H   10.225771  10.150514   9.647161   9.878997   8.857902
    40  O    9.948594   9.674625   9.274719   9.712331   8.065523
    41  C   10.718623  10.336653  10.182629  10.706695   9.013784
    42  H   10.299722   9.821921   9.864138  10.483085   8.696603
    43  H   11.666769  11.280515  11.091308  11.605368   9.868459
    44  H   10.969633  10.613304  10.479792  10.973710   9.410491
    45  C    2.977820   2.634626   2.537860   3.466025   1.461997
    46  H    2.736771   2.082640   2.783690   3.826009   2.223962
    47  H    5.004639   4.569971   4.680058   5.450718   3.754784
    48  O    5.000480   4.640502   4.758916   5.462847   4.082424
    49  O    4.639581   4.697468   4.303309   4.670017   4.118739
    50  N    4.352921   4.285688   3.895839   4.415519   3.357359
                    6          7          8          9         10
     6  O    0.000000
     7  C    4.849443   0.000000
     8  C    6.033135   1.397736   0.000000
     9  C    5.231874   1.404104   2.404874   0.000000
    10  C    7.263539   2.426856   1.389164   2.780545   0.000000
    11  H    6.153340   2.151567   1.085012   3.391916   2.140524
    12  C    6.602520   2.426095   2.780792   1.381267   2.417305
    13  H    4.693191   2.176913   3.402595   1.084485   3.864415
    14  C    7.516654   2.808522   2.408344   2.413587   1.390363
    15  H    8.179698   3.409997   2.152428   3.866463   1.085943
    16  O    8.816124   4.159892   3.666691   3.623557   2.413559
    17  H    9.406276   4.615097   3.842025   4.326186   2.464180
    18  O    7.262663   3.668887   4.145054   2.377661   3.664377
    19  C    7.972738   4.531541   4.920184   3.312775   4.329636
    20  H    7.392531   4.374515   4.918390   3.218978   4.564975
    21  H    8.605281   5.476284   5.933567   4.172892   5.323530
    22  H    8.688234   4.820208   4.904226   3.800925   4.070029
    23  C    3.214890   6.428231   7.206353   7.201331   8.517715
    24  H    2.809081   5.434974   6.229647   6.188437   7.511112
    25  C    3.227353   6.719698   7.471729   7.576678   8.839421
    26  H    4.072113   7.776034   8.509164   8.634168   9.884497
    27  C    2.878341   5.914123   6.626901   6.847266   8.011758
    28  O    3.766373   6.635619   7.262038   7.607037   8.638188
    29  C    4.343401   7.554314   8.320881   8.238433   9.573525
    30  C    4.828922   7.516157   8.279838   8.069510   9.422932
    31  C    5.361314   8.875652   9.620770   9.588559  10.900127
    32  C    6.099999   8.773081   9.514201   9.258011  10.599079
    33  H    4.473471   6.637573   7.408335   7.130608   8.494114
    34  C    6.527487   9.962350  10.700864  10.609582  11.931710
    35  H    5.479079   9.184350   9.913291   9.963768  11.240136
    36  C    6.848961   9.920792  10.657932  10.463737  11.799133
    37  H    6.689832   8.977578   9.700017   9.359881  10.686500
    38  O    8.128557  11.161274  11.886318  11.655940  12.986204
    39  H    8.413336  11.178359  11.894332  11.600866  12.925168
    40  O    7.585978  11.218818  11.949146  11.890977  13.205596
    41  C    8.673236  11.960246  12.562098  12.722903  13.801937
    42  H    8.488096  11.551734  12.064200  12.411710  13.317611
    43  H    9.475357  12.939955  13.558520  13.702419  14.816834
    44  H    9.094815  12.133810  12.707022  12.857893  13.891326
    45  C    2.332172   4.435352   5.191213   5.386574   6.567964
    46  H    3.292178   4.094028   4.605215   5.229225   5.986386
    47  H    4.233022   6.285737   6.844152   7.235554   8.149055
    48  O    4.626216   6.143769   6.664879   7.040385   7.896191
    49  O    4.584294   5.484262   6.176516   6.043682   7.228779
    50  N    3.799962   5.452050   6.192664   6.146539   7.385930
                   11         12         13         14         15
    11  H    0.000000
    12  C    3.865788   0.000000
    13  H    4.309968   2.111924   0.000000
    14  C    3.386585   1.407615   3.380504   0.000000
    15  H    2.468506   3.401405   4.950239   2.145261   0.000000
    16  O    4.548389   2.356586   4.467536   1.352715   2.674284
    17  H    4.553584   3.177693   5.256880   1.916419   2.305301
    18  O    5.229986   1.364684   2.570641   2.402606   4.543476
    19  C    5.976265   2.339217   3.446295   3.063290   5.096463
    20  H    5.926836   2.636777   3.203995   3.499833   5.398229
    21  H    7.003388   3.238939   4.123854   3.998424   6.065537
    22  H    5.908487   2.636269   4.187219   2.828394   4.646332
    23  C    6.946443   8.506156   6.967719   9.106743   9.215092
    24  H    6.038166   7.469638   5.992046   8.065955   8.232321
    25  C    7.130324   8.921481   7.357632   9.496689   9.513342
    26  H    8.127156   9.985514   8.391489  10.561424  10.536854
    27  C    6.257523   8.188913   6.700716   8.712095   8.671531
    28  O    6.819301   8.924911   7.493545   9.392351   9.241215
    29  C    8.086243   9.494299   7.962554  10.114372  10.259065
    30  C    8.146566   9.230703   7.785770   9.864607  10.117121
    31  C    9.324346  10.864158   9.293909  11.479163  11.559820
    32  C    9.395252  10.361667   8.949741  10.999121  11.273029
    33  H    7.353178   8.244957   6.869121   8.880923   9.207544
    34  C   10.431100  11.842149  10.290575  12.469046  12.583673
    35  H    9.555992  11.277433   9.679702  11.875186  11.883831
    36  C   10.469152  11.616028  10.137957  12.252957  12.457278
    37  H    9.652051  10.370619   9.052764  11.006701  11.354973
    38  O   11.711577  12.767606  11.313786  13.408021  13.631535
    39  H   11.773524  12.647500  11.259723  13.287892  13.569252
    40  O   11.637161  13.145267  11.558166  13.772070  13.843009
    41  C   12.161108  13.941878  12.484156  14.458676  14.354331
    42  H   11.585159  13.627558  12.252202  14.060429  13.814154
    43  H   13.146014  14.941879  13.438236  15.477375  15.373183
    44  H   12.332877  14.023016  12.635689  14.520063  14.427515
    45  C    4.910378   6.717466   5.305765   7.234592   7.272627
    46  H    4.167251   6.474906   5.354220   6.803267   6.586668
    47  H    6.429367   8.476068   7.184929   8.889208   8.723913
    48  O    6.299248   8.211700   7.020009   8.599341   8.457907
    49  O    6.126650   7.110342   5.909650   7.650837   7.909862
    50  N    6.043344   7.341560   5.986837   7.900781   8.080204
                   16         17         18         19         20
    16  O    0.000000
    17  H    0.966611   0.000000
    18  O    2.711864   3.672416   0.000000
    19  C    3.048184   3.950938   1.427661   0.000000
    20  H    3.770395   4.620881   2.076676   1.093921   0.000000
    21  H    3.792462   4.689549   2.027196   1.088588   1.782662
    22  H    2.462054   3.239104   2.085917   1.091599   1.788848
    23  C   10.423252  10.831349   9.389827   9.846172   9.102524
    24  H    9.371734   9.789595   8.362520   8.791018   8.049705
    25  C   10.842246  11.227578   9.846277  10.467570   9.819800
    26  H   11.909324  12.286162  10.899069  11.532943  10.880294
    27  C   10.064354  10.425679   9.165900   9.948108   9.429096
    28  O   10.733392  11.055925   9.918518  10.808148  10.369686
    29  C   11.391187  11.808171  10.309815  10.607120   9.766569
    30  C   11.073421  11.510116   9.968029  10.082048   9.161836
    31  C   12.766816  13.170106  11.680263  11.998306  11.156139
    32  C   12.158502  12.596056  11.032315  11.020146  10.043989
    33  H   10.063337  10.513465   8.965877   9.033322   8.105232
    34  C   13.720623  14.130598  12.603867  12.801305  11.896523
    35  H   13.191982  13.578369  12.132437  12.559646  11.771769
    36  C   13.442980  13.868564  12.308228  12.351493  11.387018
    37  H   12.095813  12.542125  10.968499  10.816387   9.798034
    38  O   14.561315  14.988161  13.410929  13.364144  12.364383
    39  H   14.390192  14.824303  13.238845  13.091243  12.063540
    40  O   15.037143  15.439041  13.911411  14.138199  13.238982
    41  C   15.708097  16.040503  14.777879  14.970491  14.070435
    42  H   15.318569  15.598833  14.541266  14.787834  13.928992
    43  H   16.738350  17.076626  15.769241  15.986059  15.088305
    44  H   15.728810  16.053713  14.834311  14.924629  13.988698
    45  C    8.586554   8.963191   7.723000   8.536840   8.071491
    46  H    8.140637   8.422646   7.593848   8.470700   8.104006
    47  H   10.184239  10.484975   9.460988  10.519267  10.245176
    48  O    9.849982  10.144172   9.168453  10.314608  10.139501
    49  O    8.812405   9.217759   7.869442   9.129532   9.090502
    50  N    9.145788   9.547910   8.177946   9.339230   9.168323
                   21         22         23         24         25
    21  H    0.000000
    22  H    1.780905   0.000000
    23  C   10.641135  10.343499   0.000000
    24  H    9.607135   9.267079   1.088131   0.000000
    25  C   11.258045  10.985657   1.346198   2.098728   0.000000
    26  H   12.307430  12.064696   2.134575   3.083074   1.085131
    27  C   10.748734  10.456180   2.458908   2.670412   1.453911
    28  O   11.597331  11.311833   3.563206   3.891481   2.338434
    29  C   11.374065  11.095467   1.456532   2.151205   2.504526
    30  C   10.828092  10.540158   2.457472   2.595992   3.730117
    31  C   12.750841  12.498272   2.512571   3.440888   3.023257
    32  C   11.725725  11.462538   3.742325   3.982528   4.921356
    33  H    9.789436   9.474479   2.656470   2.327816   4.001118
    34  C   13.526575  13.289926   3.773395   4.575765   4.400927
    35  H   13.319461  13.073755   2.775775   3.837786   2.769611
    36  C   13.051524  12.812546   4.260668   4.796276   5.198408
    37  H   11.490481  11.227811   4.609215   4.656413   5.860373
    38  O   14.031479  13.813115   5.610315   6.131738   6.516411
    39  H   13.735085  13.517080   6.041241   6.415896   7.070138
    40  O   14.853587  14.639789   4.889649   5.792388   5.261821
    41  C   15.737300  15.392624   5.733224   6.599521   6.097099
    42  H   15.604326  15.164336   5.415309   6.285930   5.677313
    43  H   16.738292  16.430278   6.627157   7.546618   6.860926
    44  H   15.687863  15.309786   6.130039   6.877829   6.688890
    45  C    9.357750   9.024861   2.968042   2.583409   2.566267
    46  H    9.346235   8.858186   3.793944   3.347947   3.375605
    47  H   11.275892  11.017217   4.999983   5.068235   3.913564
    48  O   11.039723  10.810281   5.826236   5.775734   4.817070
    49  O    9.722170   9.715080   6.790366   6.503046   6.029402
    50  N    9.993385   9.923953   5.717035   5.524818   4.885651
                   26         27         28         29         30
    26  H    0.000000
    27  C    2.147589   0.000000
    28  O    2.541824   1.233265   0.000000
    29  C    2.808234   3.838099   4.838043   0.000000
    30  C    4.181313   4.908804   6.016616   1.398589   0.000000
    31  C    2.788205   4.475059   5.230613   1.405207   2.408688
    32  C    5.178720   6.198073   7.249783   2.425266   1.387981
    33  H    4.678465   4.936505   6.128471   2.151942   1.084732
    34  C    4.124731   5.852229   6.601949   2.425179   2.783771
    35  H    2.167211   4.167832   4.697084   2.177213   3.405400
    36  C    5.163949   6.602579   7.508718   2.804831   2.407345
    37  H    6.202999   7.060643   8.164332   3.409643   2.152509
    38  O    6.404056   7.934530   8.808125   4.154106   3.663030
    39  H    7.076869   8.445765   9.395641   4.610375   3.838744
    40  O    4.735521   6.698538   7.270282   3.668745   4.147479
    41  C    5.560707   7.494795   8.013786   4.532525   4.920928
    42  H    5.133944   7.001681   7.457831   4.378231   4.920809
    43  H    6.204721   8.236315   8.647629   5.477960   5.934682
    44  H    6.290570   8.098865   8.727233   4.818203   4.901328
    45  C    3.503985   1.484847   2.327973   4.418613   5.158853
    46  H    4.246675   2.185229   2.669164   5.220960   5.917426
    47  H    4.225721   2.544173   1.704397   6.373571   7.440585
    48  O    5.187343   3.406240   2.685687   7.232905   8.232160
    49  O    6.576272   4.666883   4.338768   8.206624   8.998389
    50  N    5.405548   3.522972   3.180438   7.129787   7.997214
                   31         32         33         34         35
    31  C    0.000000
    32  C    2.782733   0.000000
    33  H    3.394776   2.140536   0.000000
    34  C    1.380179   2.420754   3.868497   0.000000
    35  H    1.084503   3.866732   4.311250   2.112591   0.000000
    36  C    2.412373   1.391079   3.386498   1.408644   3.380917
    37  H    3.868558   1.085866   2.471033   3.403784   4.952452
    38  O    3.620063   2.411245   4.545937   2.354935   4.466411
    39  H    4.324110   2.462097   4.551818   3.177414   5.256647
    40  O    2.377405   3.666519   5.232149   1.364063   2.573809
    41  C    3.314616   4.329586   5.976563   2.339335   3.452005
    42  H    3.223046   4.566372   5.928534   2.637990   3.210976
    43  H    4.175143   5.323059   7.004060   3.238700   4.131040
    44  H    3.800879   4.066881   5.905300   2.635499   4.190892
    45  C    5.383079   6.536523   4.865360   6.709289   5.312776
    46  H    6.176491   7.292898   5.566521   7.498586   6.078754
    47  H    6.888699   8.739466   7.386382   8.265439   6.389669
    48  O    7.817825   9.558727   8.091551   9.195668   7.351763
    49  O    8.983031  10.349989   8.670642  10.330430   8.673403
    50  N    7.853100   9.338951   7.750447   9.209033   7.514080
                   36         37         38         39         40
    36  C    0.000000
    37  H    2.145139   0.000000
    38  O    1.350615   2.670748   0.000000
    39  H    1.915628   2.301413   0.966808   0.000000
    40  O    2.402871   4.543942   2.710157   3.671190   0.000000
    41  C    3.062667   5.093691   3.045941   3.947813   1.428133
    42  H    3.500513   5.397146   3.769231   4.619045   2.076952
    43  H    3.997026   6.061825   3.788805   4.684624   2.027445
    44  H    2.826156   4.640067   2.459604   3.234782   2.086224
    45  C    7.212744   7.236743   8.562922   8.934499   7.725104
    46  H    7.994335   7.959707   9.341210   9.698659   8.504562
    47  H    9.111025   9.588967  10.428718  10.972294   8.960974
    48  O    9.996598  10.366669  11.323520  11.836439   9.919921
    49  O   10.961277  11.033116  12.290923  12.699312  11.173480
    50  N    9.888616  10.073116  11.218007  11.661823  10.028142
                   41         42         43         44         45
    41  C    0.000000
    42  H    1.093838   0.000000
    43  H    1.088530   1.782877   0.000000
    44  H    1.091519   1.788733   1.780648   0.000000
    45  C    8.526392   8.055426   9.357274   9.001650   0.000000
    46  H    9.190190   8.623256  10.031656   9.651382   1.083466
    47  H    9.717916   9.148444  10.344465  10.423814   2.771175
    48  O   10.696134  10.131483  11.329416  11.388950   3.302190
    49  O   12.093060  11.640515  12.774928  12.715761   4.045279
    50  N   10.932307  10.474264  11.607326  11.570418   3.075461
                   46         47         48         49         50
    46  H    0.000000
    47  H    2.681030   0.000000
    48  O    3.046057   0.991055   0.000000
    49  O    3.876480   2.893626   2.099185   0.000000
    50  N    3.043098   1.866074   1.351039   1.175628   0.000000
 Stoichiometry    C21H20NO8(2)
 Framework group  C1[X(C21H20NO8)]
 Deg. of freedom   144
 Full point group                 C1      NOp   1
 Largest Abelian subgroup         C1      NOp   1
 Largest concise Abelian subgroup C1      NOp   1
                         Standard orientation:                         
 ---------------------------------------------------------------------
 Center     Atomic      Atomic             Coordinates (Angstroms)
 Number     Number       Type             X           Y           Z
 ---------------------------------------------------------------------
      1          6           0        2.494073    0.327223    0.415957
      2          1           0        2.080055    0.695023    1.351750
      3          6           0        1.795146    0.489414   -0.718737
      4          1           0        2.161523    0.121956   -1.672430
      5          6           0        0.461436    1.112606   -0.803280
      6          8           0       -0.189113    1.048925   -1.842403
      7          6           0        3.794552   -0.326699    0.556590
      8          6           0        4.387942   -0.374913    1.821197
      9          6           0        4.476279   -0.915531   -0.520458
     10          6           0        5.623927   -0.979850    2.011379
     11          1           0        3.880254    0.073286    2.668913
     12          6           0        5.704949   -1.521192   -0.343137
     13          1           0        4.064270   -0.908916   -1.523609
     14          6           0        6.292861   -1.552554    0.935439
     15          1           0        6.078818   -1.000043    2.997249
     16          8           0        7.504791   -2.143363    1.045016
     17          1           0        7.817723   -2.100857    1.958582
     18          8           0        6.366916   -2.046523   -1.414673
     19          6           0        6.364926   -3.473760   -1.449413
     20          1           0        5.340059   -3.847950   -1.528736
     21          1           0        6.927693   -3.763477   -2.335066
     22          1           0        6.843705   -3.888865   -0.560567
     23          6           0       -2.591465    0.288998    0.154277
     24          1           0       -1.628376   -0.214043    0.212924
     25          6           0       -2.622500    1.634216    0.195210
     26          1           0       -3.549532    2.196485    0.150783
     27          6           0       -1.425702    2.445140    0.349920
     28          8           0       -1.507708    3.662863    0.527028
     29          6           0       -3.737068   -0.603329    0.041000
     30          6           0       -3.510539   -1.978508   -0.075693
     31          6           0       -5.064347   -0.141886    0.043797
     32          6           0       -4.567746   -2.868834   -0.202669
     33          1           0       -2.493413   -2.355460   -0.078229
     34          6           0       -6.123532   -1.018485   -0.077020
     35          1           0       -5.296050    0.913399    0.137781
     36          6           0       -5.877087   -2.399067   -0.209440
     37          1           0       -4.381159   -3.933427   -0.307224
     38          8           0       -6.950890   -3.206864   -0.345715
     39          1           0       -6.670698   -4.127693   -0.436734
     40          8           0       -7.402003   -0.544455   -0.115435
     41          6           0       -8.145179   -0.793681    1.078357
     42          1           0       -7.675483   -0.288901    1.927512
     43          1           0       -9.140297   -0.383628    0.915584
     44          1           0       -8.219814   -1.864176    1.278068
     45          6           0       -0.069158    1.841357    0.347731
     46          1           0        0.570604    2.119224    1.176823
     47          1           0       -0.093734    4.610789    0.442876
     48          8           0        0.793934    5.028433    0.302128
     49          8           0        2.401932    4.739348   -1.015957
     50          7           0        1.324337    4.356623   -0.743171
 ---------------------------------------------------------------------
 Rotational constants (GHZ):           0.1891358           0.0531280           0.0439784
 Standard basis: 6-311+G(d) (5D, 7F)
 There are   750 symmetry adapted cartesian basis functions of A   symmetry.
 There are   720 symmetry adapted basis functions of A   symmetry.
   720 basis functions,  1180 primitive gaussians,   750 cartesian basis functions
   109 alpha electrons      108 beta electrons
       nuclear repulsion energy      2602.8700889297 Hartrees.
 NAtoms=   50 NActive=   50 NUniq=   50 SFac= 1.00D+00 NAtFMM=   60 NAOKFM=F Big=F
 Integral buffers will be    131072 words long.
 Raffenetti 2 integral format.
 Two-electron integral symmetry is turned on.
 Force inversion solution in PCM.
 Using the following non-standard input for PCM:
 Eps=7
 EpsInf=1.85341
 HbondAcidity=0
 HbondBasicity=0.48
 SurfaceTensionAtInterface=60.62
 CarbonAromaticity=0
 ElectronegativeHalogenicity=0
 --- end of non-standard input.
 Force inversion solution in PCM.
 ------------------------------------------------------------------------------
 Polarizable Continuum Model (PCM)
 =================================
 Model                : PCM.
 Atomic radii         : SMD-Coulomb.
 Polarization charges : Total charges.
 Charge compensation  : None.
 Solution method      : Matrix inversion.
 Cavity type          : VdW (van der Waals Surface) (Alpha=1.000).
 Cavity algorithm     : GePol (No added spheres)
                        Default sphere list used, NSphG=   50.
                        Lebedev-Laikov grids with approx.  5.0 points / Ang**2.
                        Smoothing algorithm: York/Karplus (Gamma=1.0000).
                        Polarization charges: spherical gaussians, with
                                              point-specific exponents (IZeta= 3).
                        Self-potential: point-specific (ISelfS= 7).
                        Self-field    : sphere-specific E.n sum rule (ISelfD= 2).
 1st derivatives      : Analytical E(r).r(x)/FMM algorithm (CHGder, D1EAlg=3).
                        Cavity 1st derivative terms included.
 2nd derivatives      : Analytical E(r).r(xy)/FMM algorithm (CHGder, D2EAlg=3).
                        Cavity 2nd derivative terms included.
 Solvent              : Generic,
                        Eps                           =   7.000000
                        Eps(infinity)                 =   1.853410
                        RSolv                         =   0.000000 Ang.
                        Molar volume                  =   0.000000 cm**3/mol
                        Thermal expansion coefficient =   0.000000 K**-1
                        Absolute temperature          = 298.150000 K
                        Numeral density               =   0.000000 Ang**-3
                        Hydrogen bond acidity         =   0.000000
                        Hydrogen bond basicity        =   0.480000
                        Surface tension at interface  =  60.620000 (cal/mol)*Ang**-2
                        Carbon aromaticity            =   0.000000
                        Electronegative halogenicity  =   0.000000
 ------------------------------------------------------------------------------
 ------------------------------------------------------------------------------
 Atomic radii for non-electrostatic terms: SMD-CDS.
 ------------------------------------------------------------------------------
 Nuclear repulsion after PCM non-electrostatic terms =     2602.8671429372 Hartrees.
 One-electron integrals computed using PRISM.
 NBasis=   720 RedAO= T EigKep=  1.04D-06  NBF=   720
 NBsUse=   716 1.00D-06 EigRej=  4.86D-07 NBFU=   716
 ExpMin= 4.38D-02 ExpMax= 8.59D+03 ExpMxC= 1.30D+03 IAcc=3 IRadAn=         5 AccDes= 0.00D+00
 Harris functional with IExCor= 1009 and IRadAn=       5 diagonalized for initial guess.
 HarFok:  IExCor= 1009 AccDes= 0.00D+00 IRadAn=         5 IDoV= 1 UseB2=F ITyADJ=14
 ICtDFT=  3500011 ScaDFX=  1.000000  1.000000  1.000000  1.000000
 FoFCou: FMM=F IPFlag=           0 FMFlag=      100000 FMFlg1=           0
         NFxFlg=           0 DoJE=T BraDBF=F KetDBF=T FulRan=T
         wScrn=  0.000000 ICntrl=       500 IOpCl=  0 I1Cent=   200000004 NGrid=           0
         NMat0=    1 NMatS0=      1 NMatT0=    0 NMatD0=    1 NMtDS0=    0 NMtDT0=    0
 Petite list used in FoFCou.
 Initial guess <Sx>= 0.0000 <Sy>= 0.0000 <Sz>= 0.5000 <S**2>= 0.7500 S= 0.5000
 Requested convergence on RMS density matrix=1.00D-08 within 500 cycles.
 Requested convergence on MAX density matrix=1.00D-06.
 Requested convergence on             energy=1.00D-06.
 No special actions if energy rises.
 Inv3:  Mode=1 IEnd=    56454732.
 Iteration    1 A*A^-1 deviation from unit magnitude is 3.89D-15 for   3105.
 Iteration    1 A*A^-1 deviation from orthogonality  is 2.59D-15 for   1703   1482.
 Iteration    1 A^-1*A deviation from unit magnitude is 4.11D-15 for   3105.
 Iteration    1 A^-1*A deviation from orthogonality  is 5.93D-13 for   1803   1742.
 Restarting incremental Fock formation.
 Error on total polarization charges =  0.03800
 SCF Done:  E(UM062X) =  -1468.43681886     A.U. after   26 cycles
            NFock= 26  Conv=0.62D-08     -V/T= 2.0034
 <Sx>= 0.0000 <Sy>= 0.0000 <Sz>= 0.5000 <S**2>= 0.7638 S= 0.5069
 <L.S>=  0.00000000000    
 SMD-CDS (non-electrostatic) energy       (kcal/mol) =      -1.85
 (included in total energy above)
 Annihilation of the first spin contaminant:
 S**2 before annihilation     0.7638,   after     0.7501
 DoSCS=F DFT=T ScalE2(SS,OS)=  1.000000  1.000000
 Range of M.O.s used for correlation:     1   716
 NBasis=   720 NAE=   109 NBE=   108 NFC=     0 NFV=     0
 NROrb=    716 NOA=   109 NOB=   108 NVA=   607 NVB=   608

 **** Warning!!: The largest alpha MO coefficient is  0.11697330D+03


 **** Warning!!: The largest beta MO coefficient is  0.13884452D+03

 Symmetrizing basis deriv contribution to polar:
 IMax=3 JMax=2 DiffMx= 0.00D+00
 G2DrvN: will do    26 centers at a time, making    2 passes.
 Calling FoFCou, ICntrl=  3107 FMM=F I1Cent=   0 AccDes= 0.00D+00.
 Calling FoFCou, ICntrl=  3107 FMM=F I1Cent=   0 AccDes= 0.00D+00.
 NEqPCM:  Using equilibrium solvation (IEInf=0, Eps=   7.0000, EpsInf=   1.8534)
 G2PCM: DoFxE=T DoFxN=T DoGrad=T DoDP/DQ/DG/TGxP=FFFF NFrqRd=   0 IEInf=0 SqF1=F DoCFld=F IF1Alg=4.
 End of G2Drv F.D. properties file   721 does not exist.
 End of G2Drv F.D. properties file   722 does not exist.
 End of G2Drv F.D. properties file   788 does not exist.
          IDoAtm=11111111111111111111111111111111111111111111111111
 NEqPCM:  Using equilibrium solvation (IEInf=0, Eps=   7.0000, EpsInf=   1.8534)
          Differentiating once with respect to nuclear coordinates.
 CalDSu exits because no D1Ps are significant.
          There are   153 degrees of freedom in the 1st order CPHF.  IDoFFX=6 NUNeed=     0.
    150 vectors produced by pass  0 Test12= 1.32D-13 1.00D-09 XBig12= 7.61D-01 1.19D-01.
 AX will form    30 AO Fock derivatives at one time.
    150 vectors produced by pass  1 Test12= 1.32D-13 1.00D-09 XBig12= 3.06D-02 3.45D-02.
    147 vectors produced by pass  2 Test12= 1.32D-13 1.00D-09 XBig12= 9.46D-04 5.56D-03.
    147 vectors produced by pass  3 Test12= 1.32D-13 1.00D-09 XBig12= 1.45D-05 5.34D-04.
    147 vectors produced by pass  4 Test12= 1.32D-13 1.00D-09 XBig12= 1.88D-07 5.61D-05.
    147 vectors produced by pass  5 Test12= 1.32D-13 1.00D-09 XBig12= 2.19D-09 4.75D-06.
    140 vectors produced by pass  6 Test12= 1.32D-13 1.00D-09 XBig12= 1.90D-11 2.70D-07.
    100 vectors produced by pass  7 Test12= 1.32D-13 1.00D-09 XBig12= 3.06D-13 2.69D-08.
     82 vectors produced by pass  8 Test12= 1.32D-13 1.00D-09 XBig12= 9.83D-14 1.27D-08.
     74 vectors produced by pass  9 Test12= 1.32D-13 1.00D-09 XBig12= 6.03D-14 1.24D-08.
     74 vectors produced by pass 10 Test12= 1.32D-13 1.00D-09 XBig12= 8.31D-14 1.40D-08.
     71 vectors produced by pass 11 Test12= 1.32D-13 1.00D-09 XBig12= 7.18D-14 9.87D-09.
     59 vectors produced by pass 12 Test12= 1.32D-13 1.00D-09 XBig12= 9.10D-14 1.06D-08.
     59 vectors produced by pass 13 Test12= 1.32D-13 1.00D-09 XBig12= 7.17D-14 8.71D-09.
     57 vectors produced by pass 14 Test12= 1.32D-13 1.00D-09 XBig12= 5.70D-14 7.70D-09.
     56 vectors produced by pass 15 Test12= 1.32D-13 1.00D-09 XBig12= 5.38D-14 8.59D-09.
     56 vectors produced by pass 16 Test12= 1.32D-13 1.00D-09 XBig12= 6.57D-14 8.35D-09.
     56 vectors produced by pass 17 Test12= 1.32D-13 1.00D-09 XBig12= 5.21D-14 6.91D-09.
     52 vectors produced by pass 18 Test12= 1.32D-13 1.00D-09 XBig12= 3.68D-14 6.73D-09.
     46 vectors produced by pass 19 Test12= 1.32D-13 1.00D-09 XBig12= 3.81D-14 5.53D-09.
     43 vectors produced by pass 20 Test12= 1.32D-13 1.00D-09 XBig12= 4.99D-14 6.53D-09.
     39 vectors produced by pass 21 Test12= 1.32D-13 1.00D-09 XBig12= 3.54D-14 6.01D-09.
     39 vectors produced by pass 22 Test12= 1.32D-13 1.00D-09 XBig12= 8.71D-14 9.36D-09.
     39 vectors produced by pass 23 Test12= 1.32D-13 1.00D-09 XBig12= 7.75D-14 8.74D-09.
     39 vectors produced by pass 24 Test12= 1.32D-13 1.00D-09 XBig12= 4.40D-14 6.27D-09.
     38 vectors produced by pass 25 Test12= 1.32D-13 1.00D-09 XBig12= 5.57D-14 8.92D-09.
     33 vectors produced by pass 26 Test12= 1.32D-13 1.00D-09 XBig12= 3.80D-14 5.61D-09.
     32 vectors produced by pass 27 Test12= 1.32D-13 1.00D-09 XBig12= 3.86D-14 5.57D-09.
     32 vectors produced by pass 28 Test12= 1.32D-13 1.00D-09 XBig12= 5.15D-14 6.95D-09.
     26 vectors produced by pass 29 Test12= 1.32D-13 1.00D-09 XBig12= 2.29D-14 4.45D-09.
     24 vectors produced by pass 30 Test12= 1.32D-13 1.00D-09 XBig12= 2.65D-14 4.46D-09.
     24 vectors produced by pass 31 Test12= 1.32D-13 1.00D-09 XBig12= 6.65D-14 7.73D-09.
     24 vectors produced by pass 32 Test12= 1.32D-13 1.00D-09 XBig12= 3.67D-14 5.41D-09.
     24 vectors produced by pass 33 Test12= 1.32D-13 1.00D-09 XBig12= 3.10D-14 5.31D-09.
     24 vectors produced by pass 34 Test12= 1.32D-13 1.00D-09 XBig12= 5.09D-14 6.70D-09.
     20 vectors produced by pass 35 Test12= 1.32D-13 1.00D-09 XBig12= 1.81D-14 3.95D-09.
     20 vectors produced by pass 36 Test12= 1.32D-13 1.00D-09 XBig12= 3.93D-14 6.41D-09.
     17 vectors produced by pass 37 Test12= 1.32D-13 1.00D-09 XBig12= 1.62D-14 3.65D-09.
     17 vectors produced by pass 38 Test12= 1.32D-13 1.00D-09 XBig12= 2.44D-14 4.59D-09.
     17 vectors produced by pass 39 Test12= 1.32D-13 1.00D-09 XBig12= 4.12D-14 5.97D-09.
     17 vectors produced by pass 40 Test12= 1.32D-13 1.00D-09 XBig12= 2.33D-14 4.11D-09.
     17 vectors produced by pass 41 Test12= 1.32D-13 1.00D-09 XBig12= 2.42D-14 4.67D-09.
     16 vectors produced by pass 42 Test12= 1.32D-13 1.00D-09 XBig12= 1.61D-14 4.22D-09.
     16 vectors produced by pass 43 Test12= 1.32D-13 1.00D-09 XBig12= 4.08D-14 5.33D-09.
     16 vectors produced by pass 44 Test12= 1.32D-13 1.00D-09 XBig12= 5.03D-14 5.97D-09.
     16 vectors produced by pass 45 Test12= 1.32D-13 1.00D-09 XBig12= 2.25D-14 4.29D-09.
     16 vectors produced by pass 46 Test12= 1.32D-13 1.00D-09 XBig12= 2.15D-14 4.29D-09.
     16 vectors produced by pass 47 Test12= 1.32D-13 1.00D-09 XBig12= 2.61D-14 4.59D-09.
     16 vectors produced by pass 48 Test12= 1.32D-13 1.00D-09 XBig12= 3.12D-14 5.53D-09.
     10 vectors produced by pass 49 Test12= 1.32D-13 1.00D-09 XBig12= 1.40D-14 3.59D-09.
     10 vectors produced by pass 50 Test12= 1.32D-13 1.00D-09 XBig12= 2.16D-14 4.84D-09.
     10 vectors produced by pass 51 Test12= 1.32D-13 1.00D-09 XBig12= 4.29D-14 6.21D-09.
     10 vectors produced by pass 52 Test12= 1.32D-13 1.00D-09 XBig12= 3.04D-14 4.39D-09.
     10 vectors produced by pass 53 Test12= 1.32D-13 1.00D-09 XBig12= 4.32D-14 5.58D-09.
      9 vectors produced by pass 54 Test12= 1.32D-13 1.00D-09 XBig12= 2.70D-14 4.36D-09.
      9 vectors produced by pass 55 Test12= 1.32D-13 1.00D-09 XBig12= 2.29D-14 4.74D-09.
      9 vectors produced by pass 56 Test12= 1.32D-13 1.00D-09 XBig12= 2.54D-14 4.62D-09.
      9 vectors produced by pass 57 Test12= 1.32D-13 1.00D-09 XBig12= 5.82D-14 7.03D-09.
      5 vectors produced by pass 58 Test12= 1.32D-13 1.00D-09 XBig12= 8.52D-15 2.53D-09.
      5 vectors produced by pass 59 Test12= 1.32D-13 1.00D-09 XBig12= 4.37D-14 5.56D-09.
      5 vectors produced by pass 60 Test12= 1.32D-13 1.00D-09 XBig12= 2.59D-14 4.81D-09.
      5 vectors produced by pass 61 Test12= 1.32D-13 1.00D-09 XBig12= 1.91D-14 3.84D-09.
      5 vectors produced by pass 62 Test12= 1.32D-13 1.00D-09 XBig12= 2.84D-14 4.93D-09.
      5 vectors produced by pass 63 Test12= 1.32D-13 1.00D-09 XBig12= 6.27D-14 7.05D-09.
      5 vectors produced by pass 64 Test12= 1.32D-13 1.00D-09 XBig12= 2.21D-14 4.07D-09.
      5 vectors produced by pass 65 Test12= 1.32D-13 1.00D-09 XBig12= 3.25D-14 5.59D-09.
      5 vectors produced by pass 66 Test12= 1.32D-13 1.00D-09 XBig12= 2.03D-14 3.91D-09.
      5 vectors produced by pass 67 Test12= 1.32D-13 1.00D-09 XBig12= 3.39D-14 5.32D-09.
      5 vectors produced by pass 68 Test12= 1.32D-13 1.00D-09 XBig12= 2.07D-14 3.91D-09.
      5 vectors produced by pass 69 Test12= 1.32D-13 1.00D-09 XBig12= 7.34D-14 7.73D-09.
      5 vectors produced by pass 70 Test12= 1.32D-13 1.00D-09 XBig12= 2.59D-14 4.52D-09.
      5 vectors produced by pass 71 Test12= 1.32D-13 1.00D-09 XBig12= 3.49D-14 5.15D-09.
      5 vectors produced by pass 72 Test12= 1.32D-13 1.00D-09 XBig12= 3.70D-14 5.30D-09.
      5 vectors produced by pass 73 Test12= 1.32D-13 1.00D-09 XBig12= 1.09D-14 2.64D-09.
      5 vectors produced by pass 74 Test12= 1.32D-13 1.00D-09 XBig12= 3.89D-14 6.26D-09.
      5 vectors produced by pass 75 Test12= 1.32D-13 1.00D-09 XBig12= 9.66D-15 2.74D-09.
      5 vectors produced by pass 76 Test12= 1.32D-13 1.00D-09 XBig12= 1.39D-14 3.79D-09.
      5 vectors produced by pass 77 Test12= 1.32D-13 1.00D-09 XBig12= 3.98D-14 5.37D-09.
      5 vectors produced by pass 78 Test12= 1.32D-13 1.00D-09 XBig12= 3.82D-14 5.11D-09.
      5 vectors produced by pass 79 Test12= 1.32D-13 1.00D-09 XBig12= 3.00D-14 5.34D-09.
      5 vectors produced by pass 80 Test12= 1.32D-13 1.00D-09 XBig12= 2.64D-14 4.68D-09.
      5 vectors produced by pass 81 Test12= 1.32D-13 1.00D-09 XBig12= 2.90D-14 4.61D-09.
      5 vectors produced by pass 82 Test12= 1.32D-13 1.00D-09 XBig12= 4.17D-14 5.44D-09.
      5 vectors produced by pass 83 Test12= 1.32D-13 1.00D-09 XBig12= 2.15D-14 3.69D-09.
      5 vectors produced by pass 84 Test12= 1.32D-13 1.00D-09 XBig12= 3.40D-14 5.39D-09.
      5 vectors produced by pass 85 Test12= 1.32D-13 1.00D-09 XBig12= 3.10D-14 5.22D-09.
      4 vectors produced by pass 86 Test12= 1.32D-13 1.00D-09 XBig12= 1.18D-14 2.91D-09.
      4 vectors produced by pass 87 Test12= 1.32D-13 1.00D-09 XBig12= 2.92D-14 5.26D-09.
      4 vectors produced by pass 88 Test12= 1.32D-13 1.00D-09 XBig12= 3.83D-14 6.89D-09.
      4 vectors produced by pass 89 Test12= 1.32D-13 1.00D-09 XBig12= 1.82D-14 4.01D-09.
      3 vectors produced by pass 90 Test12= 1.32D-13 1.00D-09 XBig12= 1.40D-14 3.73D-09.
      3 vectors produced by pass 91 Test12= 1.32D-13 1.00D-09 XBig12= 2.89D-14 4.68D-09.
      3 vectors produced by pass 92 Test12= 1.32D-13 1.00D-09 XBig12= 6.27D-14 7.22D-09.
      3 vectors produced by pass 93 Test12= 1.32D-13 1.00D-09 XBig12= 1.19D-14 3.21D-09.
      3 vectors produced by pass 94 Test12= 1.32D-13 1.00D-09 XBig12= 3.33D-14 5.82D-09.
      3 vectors produced by pass 95 Test12= 1.32D-13 1.00D-09 XBig12= 1.50D-14 3.19D-09.
      3 vectors produced by pass 96 Test12= 1.32D-13 1.00D-09 XBig12= 3.75D-14 5.30D-09.
      3 vectors produced by pass 97 Test12= 1.32D-13 1.00D-09 XBig12= 1.74D-14 4.30D-09.
      3 vectors produced by pass 98 Test12= 1.32D-13 1.00D-09 XBig12= 2.41D-14 4.69D-09.
      3 vectors produced by pass 99 Test12= 1.32D-13 1.00D-09 XBig12= 1.70D-14 3.55D-09.
      3 vectors produced by pass100 Test12= 1.32D-13 1.00D-09 XBig12= 3.61D-14 4.93D-09.
      3 vectors produced by pass101 Test12= 1.32D-13 1.00D-09 XBig12= 2.18D-14 4.22D-09.
      3 vectors produced by pass102 Test12= 1.32D-13 1.00D-09 XBig12= 2.96D-14 5.49D-09.
      3 vectors produced by pass103 Test12= 1.32D-13 1.00D-09 XBig12= 3.95D-14 5.93D-09.
      3 vectors produced by pass104 Test12= 1.32D-13 1.00D-09 XBig12= 2.15D-14 4.07D-09.
      3 vectors produced by pass105 Test12= 1.32D-13 1.00D-09 XBig12= 1.55D-14 3.32D-09.
      3 vectors produced by pass106 Test12= 1.32D-13 1.00D-09 XBig12= 2.36D-14 3.95D-09.
      3 vectors produced by pass107 Test12= 1.32D-13 1.00D-09 XBig12= 1.41D-14 3.34D-09.
      3 vectors produced by pass108 Test12= 1.32D-13 1.00D-09 XBig12= 1.99D-14 4.21D-09.
      3 vectors produced by pass109 Test12= 1.32D-13 1.00D-09 XBig12= 2.98D-14 4.58D-09.
      3 vectors produced by pass110 Test12= 1.32D-13 1.00D-09 XBig12= 2.51D-14 4.16D-09.
      3 vectors produced by pass111 Test12= 1.32D-13 1.00D-09 XBig12= 2.47D-14 4.79D-09.
      3 vectors produced by pass112 Test12= 1.32D-13 1.00D-09 XBig12= 2.34D-14 4.54D-09.
      3 vectors produced by pass113 Test12= 1.32D-13 1.00D-09 XBig12= 9.78D-15 2.77D-09.
      3 vectors produced by pass114 Test12= 1.32D-13 1.00D-09 XBig12= 3.30D-14 4.42D-09.
      3 vectors produced by pass115 Test12= 1.32D-13 1.00D-09 XBig12= 1.80D-14 3.85D-09.
      3 vectors produced by pass116 Test12= 1.32D-13 1.00D-09 XBig12= 3.50D-14 4.83D-09.
      3 vectors produced by pass117 Test12= 1.32D-13 1.00D-09 XBig12= 2.26D-14 3.61D-09.
      3 vectors produced by pass118 Test12= 1.32D-13 1.00D-09 XBig12= 3.49D-14 5.86D-09.
      3 vectors produced by pass119 Test12= 1.32D-13 1.00D-09 XBig12= 2.92D-14 4.48D-09.
      3 vectors produced by pass120 Test12= 1.32D-13 1.00D-09 XBig12= 3.01D-14 5.19D-09.
      3 vectors produced by pass121 Test12= 1.32D-13 1.00D-09 XBig12= 2.37D-14 4.68D-09.
      3 vectors produced by pass122 Test12= 1.32D-13 1.00D-09 XBig12= 2.66D-14 5.13D-09.
      3 vectors produced by pass123 Test12= 1.32D-13 1.00D-09 XBig12= 2.48D-14 4.40D-09.
      3 vectors produced by pass124 Test12= 1.32D-13 1.00D-09 XBig12= 2.74D-14 4.76D-09.
      3 vectors produced by pass125 Test12= 1.32D-13 1.00D-09 XBig12= 1.69D-14 3.53D-09.
      3 vectors produced by pass126 Test12= 1.32D-13 1.00D-09 XBig12= 4.50D-14 5.53D-09.
      3 vectors produced by pass127 Test12= 1.32D-13 1.00D-09 XBig12= 2.83D-14 4.78D-09.
      3 vectors produced by pass128 Test12= 1.32D-13 1.00D-09 XBig12= 2.97D-14 5.29D-09.
      3 vectors produced by pass129 Test12= 1.32D-13 1.00D-09 XBig12= 2.79D-14 4.68D-09.
      3 vectors produced by pass130 Test12= 1.32D-13 1.00D-09 XBig12= 1.13D-14 3.02D-09.
      3 vectors produced by pass131 Test12= 1.32D-13 1.00D-09 XBig12= 3.23D-14 4.50D-09.
      3 vectors produced by pass132 Test12= 1.32D-13 1.00D-09 XBig12= 3.81D-14 5.91D-09.
      3 vectors produced by pass133 Test12= 1.32D-13 1.00D-09 XBig12= 2.61D-14 4.55D-09.
      3 vectors produced by pass134 Test12= 1.32D-13 1.00D-09 XBig12= 2.57D-14 4.12D-09.
      3 vectors produced by pass135 Test12= 1.32D-13 1.00D-09 XBig12= 3.24D-14 5.22D-09.
      3 vectors produced by pass136 Test12= 1.32D-13 1.00D-09 XBig12= 4.81D-14 5.69D-09.
      3 vectors produced by pass137 Test12= 1.32D-13 1.00D-09 XBig12= 2.96D-14 4.69D-09.
      3 vectors produced by pass138 Test12= 1.32D-13 1.00D-09 XBig12= 2.18D-14 3.87D-09.
      3 vectors produced by pass139 Test12= 1.32D-13 1.00D-09 XBig12= 1.98D-14 3.40D-09.
      3 vectors produced by pass140 Test12= 1.32D-13 1.00D-09 XBig12= 3.00D-14 4.84D-09.
      3 vectors produced by pass141 Test12= 1.32D-13 1.00D-09 XBig12= 3.82D-14 5.33D-09.
      3 vectors produced by pass142 Test12= 1.32D-13 1.00D-09 XBig12= 1.16D-14 2.69D-09.
      3 vectors produced by pass143 Test12= 1.32D-13 1.00D-09 XBig12= 2.16D-14 3.88D-09.
      3 vectors produced by pass144 Test12= 1.32D-13 1.00D-09 XBig12= 1.44D-14 3.33D-09.
      3 vectors produced by pass145 Test12= 1.32D-13 1.00D-09 XBig12= 2.74D-14 4.55D-09.
      3 vectors produced by pass146 Test12= 1.32D-13 1.00D-09 XBig12= 3.94D-14 6.10D-09.
      3 vectors produced by pass147 Test12= 1.32D-13 1.00D-09 XBig12= 1.80D-14 3.71D-09.
      3 vectors produced by pass148 Test12= 1.32D-13 1.00D-09 XBig12= 2.82D-14 4.69D-09.
      3 vectors produced by pass149 Test12= 1.32D-13 1.00D-09 XBig12= 1.42D-14 3.11D-09.
      3 vectors produced by pass150 Test12= 1.32D-13 1.00D-09 XBig12= 2.46D-14 4.40D-09.
      3 vectors produced by pass151 Test12= 1.32D-13 1.00D-09 XBig12= 3.01D-14 4.37D-09.
      3 vectors produced by pass152 Test12= 1.32D-13 1.00D-09 XBig12= 2.15D-14 4.15D-09.
      3 vectors produced by pass153 Test12= 1.32D-13 1.00D-09 XBig12= 1.22D-14 3.02D-09.
      3 vectors produced by pass154 Test12= 1.32D-13 1.00D-09 XBig12= 1.15D-14 3.05D-09.
      3 vectors produced by pass155 Test12= 1.32D-13 1.00D-09 XBig12= 2.06D-14 3.99D-09.
      3 vectors produced by pass156 Test12= 1.32D-13 1.00D-09 XBig12= 3.82D-14 4.72D-09.
      3 vectors produced by pass157 Test12= 1.32D-13 1.00D-09 XBig12= 1.22D-14 3.44D-09.
      3 vectors produced by pass158 Test12= 1.32D-13 1.00D-09 XBig12= 1.56D-14 3.35D-09.
      3 vectors produced by pass159 Test12= 1.32D-13 1.00D-09 XBig12= 3.45D-14 4.84D-09.
      3 vectors produced by pass160 Test12= 1.32D-13 1.00D-09 XBig12= 1.78D-14 3.52D-09.
      3 vectors produced by pass161 Test12= 1.32D-13 1.00D-09 XBig12= 1.56D-14 3.83D-09.
      3 vectors produced by pass162 Test12= 1.32D-13 1.00D-09 XBig12= 2.34D-14 4.18D-09.
      3 vectors produced by pass163 Test12= 1.32D-13 1.00D-09 XBig12= 2.61D-14 4.54D-09.
      3 vectors produced by pass164 Test12= 1.32D-13 1.00D-09 XBig12= 9.22D-15 3.27D-09.
      3 vectors produced by pass165 Test12= 1.32D-13 1.00D-09 XBig12= 1.53D-14 3.56D-09.
      3 vectors produced by pass166 Test12= 1.32D-13 1.00D-09 XBig12= 1.67D-14 3.78D-09.
      3 vectors produced by pass167 Test12= 1.32D-13 1.00D-09 XBig12= 2.01D-14 4.13D-09.
      3 vectors produced by pass168 Test12= 1.32D-13 1.00D-09 XBig12= 9.23D-15 2.52D-09.
      3 vectors produced by pass169 Test12= 1.32D-13 1.00D-09 XBig12= 1.67D-14 3.34D-09.
      3 vectors produced by pass170 Test12= 1.32D-13 1.00D-09 XBig12= 1.74D-14 5.09D-09.
      3 vectors produced by pass171 Test12= 1.32D-13 1.00D-09 XBig12= 3.20D-14 5.64D-09.
      3 vectors produced by pass172 Test12= 1.32D-13 1.00D-09 XBig12= 1.41D-14 3.56D-09.
      3 vectors produced by pass173 Test12= 1.32D-13 1.00D-09 XBig12= 2.05D-14 4.00D-09.
      3 vectors produced by pass174 Test12= 1.32D-13 1.00D-09 XBig12= 3.23D-14 5.10D-09.
      3 vectors produced by pass175 Test12= 1.32D-13 1.00D-09 XBig12= 1.09D-14 2.89D-09.
      3 vectors produced by pass176 Test12= 1.32D-13 1.00D-09 XBig12= 2.55D-14 4.51D-09.
      3 vectors produced by pass177 Test12= 1.32D-13 1.00D-09 XBig12= 2.31D-14 4.25D-09.
      3 vectors produced by pass178 Test12= 1.32D-13 1.00D-09 XBig12= 1.51D-14 3.45D-09.
      3 vectors produced by pass179 Test12= 1.32D-13 1.00D-09 XBig12= 1.75D-14 3.26D-09.
      3 vectors produced by pass180 Test12= 1.32D-13 1.00D-09 XBig12= 2.75D-14 4.58D-09.
      3 vectors produced by pass181 Test12= 1.32D-13 1.00D-09 XBig12= 1.25D-14 2.92D-09.
      3 vectors produced by pass182 Test12= 1.32D-13 1.00D-09 XBig12= 2.97D-14 5.10D-09.
      3 vectors produced by pass183 Test12= 1.32D-13 1.00D-09 XBig12= 6.66D-15 2.04D-09.
      3 vectors produced by pass184 Test12= 1.32D-13 1.00D-09 XBig12= 1.97D-14 4.15D-09.
      3 vectors produced by pass185 Test12= 1.32D-13 1.00D-09 XBig12= 3.03D-14 4.50D-09.
      3 vectors produced by pass186 Test12= 1.32D-13 1.00D-09 XBig12= 1.50D-14 3.84D-09.
      3 vectors produced by pass187 Test12= 1.32D-13 1.00D-09 XBig12= 1.54D-14 3.29D-09.
      3 vectors produced by pass188 Test12= 1.32D-13 1.00D-09 XBig12= 6.13D-15 2.02D-09.
      3 vectors produced by pass189 Test12= 1.32D-13 1.00D-09 XBig12= 2.67D-14 4.79D-09.
      3 vectors produced by pass190 Test12= 1.32D-13 1.00D-09 XBig12= 2.58D-14 4.11D-09.
      3 vectors produced by pass191 Test12= 1.32D-13 1.00D-09 XBig12= 1.79D-14 3.97D-09.
      3 vectors produced by pass192 Test12= 1.32D-13 1.00D-09 XBig12= 1.83D-14 3.72D-09.
      3 vectors produced by pass193 Test12= 1.32D-13 1.00D-09 XBig12= 8.27D-15 2.76D-09.
      3 vectors produced by pass194 Test12= 1.32D-13 1.00D-09 XBig12= 1.20D-14 2.77D-09.
      3 vectors produced by pass195 Test12= 1.32D-13 1.00D-09 XBig12= 2.49D-14 4.14D-09.
      3 vectors produced by pass196 Test12= 1.32D-13 1.00D-09 XBig12= 1.32D-14 3.01D-09.
      3 vectors produced by pass197 Test12= 1.32D-13 1.00D-09 XBig12= 2.01D-14 4.08D-09.
      3 vectors produced by pass198 Test12= 1.32D-13 1.00D-09 XBig12= 1.52D-14 3.48D-09.
      3 vectors produced by pass199 Test12= 1.32D-13 1.00D-09 XBig12= 1.53D-14 3.79D-09.
      3 vectors produced by pass200 Test12= 1.32D-13 1.00D-09 XBig12= 1.23D-14 3.09D-09.
      3 vectors produced by pass201 Test12= 1.32D-13 1.00D-09 XBig12= 1.55D-14 4.66D-09.
      3 vectors produced by pass202 Test12= 1.32D-13 1.00D-09 XBig12= 2.23D-14 4.37D-09.
      3 vectors produced by pass203 Test12= 1.32D-13 1.00D-09 XBig12= 1.56D-14 3.62D-09.
      3 vectors produced by pass204 Test12= 1.32D-13 1.00D-09 XBig12= 6.13D-15 2.32D-09.
      3 vectors produced by pass205 Test12= 1.32D-13 1.00D-09 XBig12= 1.72D-14 3.71D-09.
      3 vectors produced by pass206 Test12= 1.32D-13 1.00D-09 XBig12= 1.28D-14 3.99D-09.
      3 vectors produced by pass207 Test12= 1.32D-13 1.00D-09 XBig12= 2.50D-14 4.34D-09.
      3 vectors produced by pass208 Test12= 1.32D-13 1.00D-09 XBig12= 1.10D-14 2.77D-09.
      3 vectors produced by pass209 Test12= 1.32D-13 1.00D-09 XBig12= 1.65D-14 4.07D-09.
      3 vectors produced by pass210 Test12= 1.32D-13 1.00D-09 XBig12= 1.60D-14 3.24D-09.
      3 vectors produced by pass211 Test12= 1.32D-13 1.00D-09 XBig12= 3.92D-14 5.38D-09.
      3 vectors produced by pass212 Test12= 1.32D-13 1.00D-09 XBig12= 1.47D-14 3.14D-09.
      3 vectors produced by pass213 Test12= 1.32D-13 1.00D-09 XBig12= 1.48D-14 3.25D-09.
      3 vectors produced by pass214 Test12= 1.32D-13 1.00D-09 XBig12= 8.22D-15 2.95D-09.
      3 vectors produced by pass215 Test12= 1.32D-13 1.00D-09 XBig12= 1.34D-14 3.23D-09.
      3 vectors produced by pass216 Test12= 1.32D-13 1.00D-09 XBig12= 2.83D-14 5.61D-09.
      3 vectors produced by pass217 Test12= 1.32D-13 1.00D-09 XBig12= 1.81D-14 3.51D-09.
      3 vectors produced by pass218 Test12= 1.32D-13 1.00D-09 XBig12= 2.16D-14 3.78D-09.
      3 vectors produced by pass219 Test12= 1.32D-13 1.00D-09 XBig12= 1.17D-14 3.24D-09.
      3 vectors produced by pass220 Test12= 1.32D-13 1.00D-09 XBig12= 1.06D-14 2.80D-09.
      3 vectors produced by pass221 Test12= 1.32D-13 1.00D-09 XBig12= 1.77D-14 3.68D-09.
      3 vectors produced by pass222 Test12= 1.32D-13 1.00D-09 XBig12= 2.68D-14 5.27D-09.
      3 vectors produced by pass223 Test12= 1.32D-13 1.00D-09 XBig12= 2.06D-14 4.47D-09.
      3 vectors produced by pass224 Test12= 1.32D-13 1.00D-09 XBig12= 2.14D-14 3.75D-09.
      3 vectors produced by pass225 Test12= 1.32D-13 1.00D-09 XBig12= 5.30D-15 2.38D-09.
      3 vectors produced by pass226 Test12= 1.32D-13 1.00D-09 XBig12= 2.82D-14 4.58D-09.
      3 vectors produced by pass227 Test12= 1.32D-13 1.00D-09 XBig12= 2.77D-14 5.30D-09.
[...]
 02524,0.00071237,0.00006066,0.00001074,-0.00001362,-0.00004421,-0.0000
 0686,-0.00028840,0.00069998,0.00003052,-0.00004636,-0.00004738,-0.0000
 1394,-0.00086912,-0.00050078,-0.00005614,0.00005214,-0.00000213,-0.000
 01822,0.00090104,0.00075052,0.00009808,-0.00001517,-0.00009150,-0.0000
 0348,0.00046537,-0.00011236,-0.00010549,-0.00009408,-0.00002770,0.0001
 6023,-0.00001094,0.00000099,-0.00001629,0.00002276,-0.00000629,-0.0000
 1257,-0.00001185,0.00001077,-0.00000352,-0.00185472,0.00067094,0.00036
 541,0.00026420,-0.00030731,0.00058424,0.12008596,0.10483820,-0.0000072
 0,-0.00004740,0.00008443,-0.00000960,0.00001949,-0.00002044,0.00000858
 ,0.00000368,-0.00014531,0.00002284,-0.00004222,-0.00000049,0.00017794,
 0.00007853,0.00074099,-0.00016550,0.00015041,-0.00055153,0.00000877,0.
 00001270,-0.00002610,-0.00001696,0.00000923,0.00001024,0.00000121,-0.0
 0000503,0.00001677,0.00000978,-0.00000283,-0.00000329,-0.00000603,0.00
 000065,-0.00000785,-0.00001775,0.00002211,-0.00000796,-0.00000142,-0.0
 0000486,-0.00000423,0.00002507,-0.00001524,0.00001154,-0.00000769,0.00
 000266,-0.00001171,0.00000880,0.00000087,0.00001359,-0.00000746,0.0000
 0168,-0.00001279,0.00000661,-0.00000450,-0.00001177,-0.00000021,-0.000
 00072,0.00000173,-0.00000007,0.00000012,0.00000283,0.00000176,-0.00000
 134,-0.00000153,-0.00000156,0.00000122,-0.00000141,-0.00017671,0.00011
 386,0.00007626,0.00000427,0.00001396,0.00006186,-0.00006113,-0.0011644
 6,0.00158198,0.00003247,0.00002045,-0.00001950,-0.00173512,0.00123208,
 0.00045668,-0.00038430,-0.00237302,-0.00908949,-0.00000290,-0.00014001
 ,-0.00017591,-0.00003485,0.00006292,-0.00002298,0.00002282,-0.00001270
 ,-0.00000663,-0.00005388,-0.00002102,0.00000131,-0.00000251,0.00000582
 ,0.00000430,0.00003654,-0.00004545,0.00000062,0.00000344,0.00000915,0.
 00001350,0.00008844,0.00004000,0.00000623,-0.00000807,0.00000869,0.000
 00821,-0.00008730,-0.00007212,-0.00001946,0.00000305,0.00000952,0.0000
 0702,-0.00003660,0.00000844,0.00000081,0.00000203,0.00000327,0.0000042
 3,0.00000008,-0.00000352,-0.00000700,0.00000033,0.00000190,-0.00000021
 ,0.00000424,0.00000422,-0.00000158,0.00067779,-0.00043400,-0.00072350,
 -0.00038971,0.00030121,-0.00005345,-0.05902171,0.00099897,0.06875511,-
 0.00011197,0.00003444,-0.00026757,-0.00010175,-0.00001381,-0.00002384,
 0.00050187,-0.00014471,0.00007676,0.00009938,-0.00012979,-0.00001539,-
 0.00073493,0.00120965,0.00167905,0.00011465,-0.00026537,-0.00081375,0.
 00020525,-0.00004272,-0.00001500,-0.00007423,0.00008310,-0.00010990,-0
 .00003983,-0.00008047,0.00015713,0.00011473,-0.00003569,-0.00006717,-0
 .00002603,-0.00001901,0.00001436,0.00003513,0.00014255,-0.00002261,-0.
 00003036,-0.00002613,-0.00003186,-0.00003631,0.00000105,0.00000752,0.0
 0000097,-0.00003236,0.00000673,0.00009000,-0.00000746,0.00005870,0.000
 00575,-0.00001801,-0.00002743,0.00003916,-0.00000114,-0.00001533,-0.00
 002407,-0.00005514,0.00001576,0.00000057,-0.00000473,0.00001764,-0.000
 01144,0.00000613,0.00000672,0.00000255,0.00001155,-0.00002030,0.000016
 89,0.00256104,0.00019711,0.00003864,0.00005386,-0.00005977,-0.00120410
 ,-0.00590172,-0.00166075,0.00004103,0.00010480,-0.00000781,-0.00490496
 ,0.01307054,0.00256436,-0.02108685,-0.02891472,0.00184167,-0.00080206,
 -0.00115826,0.00024967,-0.00015760,0.00071723,0.00003063,0.00042214,-0
 .00009808,-0.00008147,-0.00065298,-0.00009291,-0.00013746,0.00003093,0
 .00001762,0.00002077,0.00026787,-0.00082237,-0.00009069,0.00004117,0.0
 0003169,0.00001653,0.00079080,0.00056636,0.00016272,-0.00002507,-0.000
 02928,-0.00000470,-0.00081694,-0.00067287,-0.00016335,0.00001070,0.000
 12140,0.00006105,-0.00037471,0.00008855,0.00011481,0.00010037,0.000031
 04,-0.00014449,-0.00000526,-0.00000108,0.00000044,-0.00003156,0.000018
 11,0.00002425,0.00002206,-0.00001033,-0.00000157,0.00156203,-0.0012094
 4,-0.00020171,0.00037357,-0.00038510,0.00000922,-0.31185086,-0.1615306
 5,0.01512597,0.49962585,-0.00038494,0.00015715,-0.00025111,0.00001377,
 -0.00000019,-0.00001183,0.00029157,-0.00037957,0.00015917,0.00002174,0
 .00005310,0.00003777,-0.00042423,0.00060082,-0.00007248,0.00006314,-0.
 00057794,0.00017035,0.00014872,-0.00010991,0.00012602,-0.00006993,-0.0
 0006021,-0.00015529,0.00002592,0.00026492,0.00004591,0.00008394,-0.000
 13499,-0.00007763,-0.00002901,0.00003475,0.00001286,0.00007340,-0.0001
 7593,0.00019914,-0.00000417,0.00002729,-0.00000405,-0.00008785,0.00001
 291,-0.00000850,-0.00000477,0.00003143,-0.00005278,0.00021799,-0.00010
 206,0.00008812,-0.00008636,0.00002287,-0.00010379,-0.00008312,0.000022
 52,0.00003228,0.00002688,0.00005642,-0.00001354,0.00000931,0.00001612,
 -0.00001671,0.00002301,-0.00001175,-0.00001814,-0.00001303,0.00000518,
 0.00002983,-0.00003174,0.00026758,-0.00000148,0.00002713,0.00002745,-0
 .00005158,-0.00000999,-0.00102320,-0.00007788,0.00006267,0.00005054,0.
 00000746,-0.00078408,0.00260976,-0.00008234,-0.01118331,-0.00449185,0.
 00163487,-0.00010732,-0.00005335,-0.00033044,0.00005286,-0.00004859,-0
 .00002685,-0.00001950,-0.00008136,0.00017031,-0.00007699,-0.00000817,0
 .00012548,-0.00003191,0.00003179,-0.00001232,0.00004970,0.00017830,0.0
 0006084,0.00000484,0.00003399,0.00000331,0.00018181,-0.00008610,-0.000
 12797,-0.00003914,0.00006701,0.00003447,-0.00012329,-0.00007827,0.0000
 7819,0.00000970,-0.00005738,-0.00006500,-0.00010278,0.00002163,-0.0000
 1093,-0.00001266,-0.00000007,-0.00001372,0.00001718,0.00000051,0.00001
 091,0.00001382,-0.00001186,-0.00001043,-0.00001232,-0.00000027,0.00000
 545,0.00086161,-0.00088394,0.00018975,-0.00042582,-0.00176680,0.000297
 48,-0.13718195,-0.11801364,-0.01285431,0.17344507,0.22628358,-0.000385
 21,0.00013917,-0.00025476,0.00007297,-0.00003667,0.00001392,-0.0001514
 1,-0.00023168,0.00027460,-0.00003235,0.00017379,0.00003969,0.00021507,
 -0.00035560,-0.00216117,0.00034872,-0.00030949,0.00155471,0.00000926,-
 0.00005688,0.00014943,0.00002455,-0.00010692,-0.00009851,0.00001731,0.
 00024591,-0.00008488,-0.00000683,-0.00006572,-0.00000279,0.00000160,0.
 00001363,0.00001987,0.00006542,-0.00025215,0.00020117,0.00001693,0.000
 04996,0.00003875,-0.00011515,0.00005117,-0.00002367,0.00001108,0.00003
 192,-0.00002078,0.00013720,-0.00008889,0.00000712,-0.00005544,0.000016
 82,-0.00003382,-0.00007887,0.00001429,0.00003707,0.00003221,0.00008398
 ,-0.00002465,0.00000565,0.00001532,-0.00002815,0.00002201,-0.00001211,
 -0.00001668,-0.00000696,-0.00000849,0.00003870,-0.00000534,-0.00134883
 ,-0.00012130,-0.00000905,-0.00000727,-0.00002538,0.00084446,0.00324002
 ,0.00040969,-0.00003761,-0.00005320,-0.00001888,0.00178422,-0.00827790
 ,-0.00148601,0.00843218,0.01256166,0.00467266,0.00038187,0.00069774,-0
 .00037671,0.00014079,-0.00048365,-0.00002475,-0.00022518,-0.00002859,0
 .00018620,0.00037266,0.00008539,0.00020963,-0.00002898,0.00000691,-0.0
 0003391,-0.00014395,0.00064066,0.00009124,-0.00001605,-0.00000857,-0.0
 0002455,-0.00044836,-0.00039064,-0.00019359,-0.00000886,0.00003325,0.0
 0001584,0.00045476,0.00035816,0.00017293,-0.00000416,-0.00009903,-0.00
 009632,0.00016599,-0.00004509,-0.00007105,-0.00005942,-0.00001940,0.00
 005896,0.00001616,0.00000476,0.00001815,0.00002707,-0.00002001,-0.0000
 2379,-0.00002542,-0.00000086,0.00000597,-0.00177644,0.00066715,0.00022
 325,0.00054889,0.00048264,0.00009707,0.04336012,0.00316884,-0.04580113
 ,-0.13080753,0.10314611,0.21064298,-0.00020745,0.00021118,-0.00010058,
 -0.00007274,-0.00007630,-0.00007940,0.00068296,-0.00006342,-0.00018368
 ,0.00011750,-0.00020693,-0.00003989,-0.00190202,0.00169943,0.00183446,
 0.00042721,-0.00073147,-0.00083496,0.00020707,-0.00011773,0.00008697,0
 .00003354,-0.00002094,-0.00001713,0.00004111,0.00027482,-0.00004302,0.
 00005516,0.00000332,-0.00005218,-0.00002389,-0.00002974,-0.00000800,0.
 00011261,-0.00023234,0.00017686,-0.00002771,-0.00008024,0.00003150,-0.
 00015062,0.00003774,0.00005424,-0.00000688,0.00000314,0.00001484,0.000
 14421,-0.00003353,-0.00008352,-0.00003686,-0.00003479,0.00004302,-0.00
 001779,0.00010244,-0.00005429,0.00001686,-0.00006152,-0.00002517,0.000
 01684,0.00002093,-0.00001342,0.00002013,-0.00000990,-0.00000928,-0.000
 01322,0.00000084,0.00001823,0.00018263,0.00187906,0.00025936,0.0000066
 8,0.00009534,-0.00005224,-0.00112937,-0.00333086,-0.00022765,-0.000039
 58,-0.00001083,-0.00006302,0.00116734,0.00755626,0.00054922,-0.0069233
 2,-0.00975451,0.00020158,-0.00072928,-0.00059759,-0.00047035,-0.000007
 81,0.00037958,0.00001477,0.00049901,-0.00023346,0.00017039,-0.00034685
 ,0.00005817,0.00014047,0.00003691,0.00002567,-0.00000627,0.00011082,-0
 .00030249,-0.00004981,0.00004595,-0.00000579,-0.00000678,0.00026388,0.
 00033707,0.00001290,-0.00003519,-0.00008551,0.00000380,-0.00046571,-0.
 00052944,-0.00001234,-0.00000379,0.00010767,-0.00004071,-0.00027430,0.
 00004418,0.00003314,0.00008315,0.00003007,-0.00010234,0.00001256,0.000
 00268,0.00003240,-0.00001220,0.00000016,-0.00000738,-0.00000330,-0.000
 02490,0.00000341,0.00082230,-0.00097118,-0.00013404,-0.00021316,0.0001
 2080,-0.00043132,0.01707752,0.01156746,0.00662264,-0.10313925,0.043407
 97,0.10604326,0.77944252,-0.00019012,0.00000761,-0.00013455,-0.0000228
 2,-0.00000014,-0.00000831,0.00032770,-0.00019755,0.00006467,0.00003920
 ,-0.00001856,-0.00000522,-0.00076788,0.00071145,0.00024112,0.00017917,
 -0.00054874,0.00000429,0.00011699,-0.00003937,0.00004206,-0.00002246,-
 0.00002133,-0.00005503,-0.00000292,0.00010464,0.00002191,0.00005697,-0
 .00001696,-0.00003290,-0.00001153,0.00000094,0.00000127,0.00004404,-0.
 00005884,0.00009532,-0.00000917,-0.00000588,0.00000512,-0.00008819,0.0
 0001895,0.00000206,-0.00000011,0.00000364,-0.00000564,0.00011764,-0.00
 004372,0.00001441,-0.00002680,-0.00000325,-0.00001682,-0.00000252,0.00
 000703,-0.00002315,0.00000532,0.00000474,-0.00000587,0.00000369,0.0000
 0605,-0.00000436,0.00000683,-0.00000493,-0.00000635,-0.00000432,0.0000
 0125,0.00000810,0.00007543,0.00049884,0.00007953,-0.00000084,0.0000336
 8,-0.00001997,-0.00030006,-0.00072224,-0.00006337,-0.00001984,-0.00001
 452,-0.00003037,0.00085097,0.00191564,0.00001087,-0.00057298,-0.001266
 95,0.00052594,-0.00019514,-0.00015038,-0.00014871,0.00000790,0.0000995
 2,0.00000316,0.00010112,-0.00005832,0.00007406,-0.00010835,0.00000654,
 0.00003952,0.00000230,0.00001201,-0.00000324,0.00004631,-0.00006431,-0
 .00001252,0.00001283,0.00000703,-0.00000356,0.00012153,0.00007920,-0.0
 0000919,-0.00001380,-0.00000388,0.00000611,-0.00015101,-0.00014951,0.0
 0000232,0.00000261,0.00001858,-0.00001610,-0.00009098,0.00001158,0.000
 01347,0.00002165,0.00000847,-0.00003220,0.00000491,0.00000074,0.000006
 96,-0.00000147,-0.00000090,-0.00000198,-0.00000133,-0.00000532,0.00000
 149,0.00038134,0.00007966,-0.00032481,-0.00008176,0.00001121,-0.000099
 34,0.00341315,0.00280549,-0.01075290,0.03890477,0.04531253,0.03342612,
 0.24594334,0.13896718,-0.00012668,0.00003704,-0.00013991,-0.00000572,0
 .00002412,-0.00001465,-0.00003322,-0.00002035,0.00019635,0.00002397,0.
 00004914,-0.00002621,-0.00011929,0.00025468,-0.00050690,0.00018092,-0.
 00012813,0.00041294,0.00002286,-0.00002872,-0.00002468,0.00003888,0.00
 002845,-0.00000257,-0.00003658,-0.00007696,-0.00001721,0.00000175,0.00
 001335,0.00001681,0.00000808,-0.00001195,-0.00000967,-0.00000948,0.000
 05273,0.00005792,-0.00000450,0.00001674,0.00001795,-0.00010906,0.00007
 081,-0.00003997,0.00001765,-0.00001835,0.00003599,0.00006764,-0.000037
 74,-0.00001543,0.00002285,-0.00000546,0.00003664,0.00007035,-0.0000738
 1,-0.00005222,-0.00001318,0.00003682,-0.00000036,-0.00000680,-0.000009
 04,0.00000223,-0.00000812,-0.00000024,0.00000171,0.00000812,-0.0000069
 6,-0.00000151,0.00004700,-0.00039274,-0.00002469,-0.00001890,0.0000248
 1,0.00002458,0.00011928,0.00109984,0.00012913,-0.00004461,-0.00003222,
 -0.00001362,0.00152003,-0.00292277,-0.00054360,0.00299222,0.00522850,0
 .00029195,0.00007956,0.00018850,0.00012188,0.00000475,-0.00006778,0.00
 001754,-0.00000530,-0.00000655,-0.00008719,0.00009561,0.00002843,-0.00
 002368,0.00001576,-0.00001054,-0.00000467,-0.00004627,0.00001157,-0.00
 000727,-0.00000055,-0.00002350,-0.00001362,-0.00017464,-0.00000510,0.0
 0003707,0.00002236,-0.00003805,-0.00002017,0.00013834,0.00009097,-0.00
 000990,-0.00000838,0.00002082,0.00001380,0.00005669,-0.00001014,0.0000
 0903,0.00000507,-0.00000407,-0.00000320,-0.00000485,-0.00000028,0.0000
 0378,-0.00000559,0.00000358,0.00000252,0.00000211,-0.00000127,-0.00000
 141,-0.00065342,-0.00005355,0.00011024,0.00002314,0.00010300,-0.000120
 54,-0.00006083,-0.01580199,-0.00477143,0.10000122,0.03027765,-0.041166
 69,-0.22533783,-0.01786327,0.13185346,0.00017151,-0.00021382,0.0002534
 9,0.00012119,0.00004463,0.00006833,-0.00072055,0.00005380,-0.00003269,
 -0.00014440,0.00021635,0.00007891,0.00180360,-0.00225837,-0.00204877,-
 0.00082270,0.00081306,0.00090798,-0.00030282,0.00007141,0.00000296,-0.
 00001672,-0.00008036,0.00000732,0.00002728,-0.00002170,-0.00004483,-0.
 00008274,-0.00002366,0.00006395,0.00001649,0.00005020,0.00001746,-0.00
 006504,-0.00000795,-0.00009229,0.00004179,0.00008328,-0.00001630,0.000
 18870,-0.00008774,-0.00003851,-0.00000662,0.00003687,-0.00005907,-0.00
 014425,0.00002804,0.00007831,-0.00002086,0.00004628,-0.00008207,-0.000
 10103,-0.00000797,0.00012032,0.00002021,0.00007115,-0.00000157,-0.0000
 0544,0.00000032,-0.00000965,0.00000421,0.00000146,-0.00000403,0.000000
 29,-0.00000123,0.00001106,-0.00025461,-0.00226548,-0.00032031,-0.00000
 328,-0.00010086,0.00004221,0.00153917,0.00390918,0.00085027,0.00005255
 ,0.00000892,0.00006143,-0.00172062,-0.00968931,-0.00126217,0.00886013,
 0.01117810,-0.00105065,0.00081965,0.00085687,0.00004208,0.00009165,-0.
 00061425,-0.00003383,-0.00055739,0.00015805,0.00001991,0.00047657,-0.0
 0001623,0.00002710,-0.00006551,-0.00000878,-0.00001214,-0.00016909,0.0
 0069942,0.00011695,-0.00004826,0.00001781,0.00000161,-0.00038972,-0.00
 055456,-0.00016469,0.00000650,0.00012616,0.00002311,0.00060219,0.00062
 447,0.00012931,0.00000256,-0.00017372,-0.00003970,0.00030337,-0.000059
 56,-0.00008312,-0.00011801,-0.00003760,0.00013077,0.00000438,0.0000002
 5,-0.00001881,0.00003450,-0.00001477,-0.00001089,-0.00001560,0.0000228
 6,0.00000072,-0.00171288,0.00021153,0.00028475,0.00036216,-0.00021863,
 0.00057642,-0.03661087,0.02073566,0.03934075,-0.05831093,-0.06780352,-
 0.02912383,-0.68584417,-0.28810131,0.12124759,0.77270349,0.00023775,0.
 00007991,0.00007982,-0.00005087,0.00001672,0.00000395,-0.00015338,0.00
 042329,-0.00014670,0.00003992,-0.00005085,-0.00003954,-0.00045482,-0.0
 0087803,0.00038608,0.00023960,0.00071600,-0.00012047,-0.00003648,0.000
 03926,-0.00009054,0.00001245,0.00005671,0.00007445,-0.00002285,-0.0001
 9613,0.00001563,-0.00002924,0.00004992,0.00002536,0.00001160,-0.000019
 34,-0.00001541,-0.00007818,0.00016340,-0.00009447,-0.00000502,-0.00001
 118,-0.00000242,0.00003108,0.00002241,-0.00000554,0.00000560,-0.000026
 42,0.00003500,-0.00008284,0.00003909,-0.00003066,0.00005396,-0.0000096
 6,0.00005279,0.00008510,-0.00005950,-0.00005037,-0.00002440,-0.0000143
 3,0.00001643,-0.00000922,-0.00001599,0.00001687,-0.00001678,0.00000678
 ,0.00001130,0.00000974,-0.00000237,-0.00002258,0.00000910,0.00054201,0
 .00009831,-0.00000696,0.00003553,0.00000967,-0.00041589,-0.00135892,-0
 .00047151,-0.00000293,0.00003158,0.00002392,-0.00051352,0.00242761,0.0
 0073165,-0.00424683,-0.00577367,-0.00098231,-0.00017191,-0.00029383,0.
 00029602,-0.00008012,0.00024211,0.00000531,0.00014691,0.00001188,-0.00
 016845,-0.00014269,-0.00002065,-0.00011778,0.00002968,-0.00001183,0.00
 001826,0.00003821,-0.00036328,-0.00005608,0.00000573,-0.00001251,0.000
 00831,0.00011512,0.00021563,0.00013339,0.00001876,-0.00005119,-0.00002
 358,-0.00015947,-0.00014308,-0.00010291,-0.00000310,0.00007283,0.00006
 265,-0.00004812,0.00001994,0.00003911,0.00003374,0.00000623,-0.0000287
 4,-0.00001186,-0.00000277,-0.00000662,-0.00001855,0.00001268,0.0000136
 4,0.00001504,0.00000020,-0.00000474,-0.00096329,-0.00233287,0.00119369
 ,-0.00003453,0.00006903,0.00000698,0.00023061,0.01312837,0.02485984,-0
 .02951720,-0.14803274,-0.14704774,-0.29636390,-0.18733860,-0.00000998,
 0.33229525,0.32859059,0.00055386,-0.00025763,0.00038322,-0.00004809,-0
 .00000116,0.00001820,0.00017929,0.00031831,-0.00040662,-0.00004204,-0.
 00017808,-0.00000092,-0.00018689,-0.00030660,0.00120355,-0.00056297,0.
 00014326,-0.00104318,-0.00003095,0.00010588,-0.00010711,-0.00009060,0.
 00009977,0.00006040,0.00001800,-0.00020096,0.00013918,0.00001541,0.000
 02889,-0.00002197,-0.00001332,0.00000559,0.00000934,-0.00004495,0.0002
 3144,-0.00034228,-0.00001319,-0.00005709,-0.00008010,0.00029810,-0.000
 16537,0.00006290,-0.00002961,-0.00001595,-0.00002919,-0.00025858,0.000
 15518,0.00004667,0.00003318,-0.00000929,-0.00003496,-0.00003150,0.0000
 9180,0.00007989,-0.00002122,-0.00014408,0.00003398,0.00000160,-0.00000
 525,0.00002842,-0.00001971,0.00001836,0.00001951,-0.00000013,0.0000213
 2,-0.00004361,-0.00001071,0.00135242,0.00005755,0.00003715,-0.00005519
 ,-0.00002344,-0.00075748,-0.00331032,-0.00098186,0.00008724,0.00007635
 ,0.00004840,-0.00300704,0.00979861,0.00199649,-0.00916839,-0.01440294,
 -0.00045945,-0.00027619,-0.00075497,0.00040331,-0.00013570,0.00045216,
 -0.00000450,0.00005254,0.00012428,-0.00009979,-0.00040653,-0.00014727,
 -0.00021432,-0.00000454,0.00000028,0.00003581,0.00018439,-0.00057471,-
 0.00006639,0.00000358,0.00004286,0.00003957,0.00062782,0.00029892,0.00
 013127,-0.00001069,0.00004856,0.00001075,-0.00051000,-0.00031609,-0.00
 015072,0.00001887,0.00002953,0.00008750,-0.00016992,0.00004709,0.00005
 538,0.00003244,0.00001657,-0.00003195,-0.00001296,-0.00000255,-0.00003
 112,-0.00001662,0.00001485,0.00002385,0.00002157,0.00000680,-0.0000028
 9,0.00247296,0.00049260,-0.00036300,-0.00009945,0.00026419,-0.00005319
 ,0.01682735,0.01270178,-0.01036157,0.01233063,-0.12249267,-0.12696567,
 0.11213914,-0.00501017,-0.08573056,-0.12995518,0.12142068,0.22267522\\
 -0.00000018,-0.00000012,0.00000224,-0.00000065,-0.00000165,0.00000259,
 0.00000024,0.00000161,0.00000210,0.00000072,0.00000312,0.00000171,0.00
 000026,0.00000145,0.00000258,0.00000063,0.00000308,0.00000212,-0.00000
 020,-0.00000016,0.00000169,-0.00000073,-0.00000205,0.00000190,0.000000
 31,0.00000157,0.00000104,-0.00000071,-0.00000217,0.00000158,-0.0000011
 8,-0.00000347,0.00000238,0.00000033,0.00000152,0.00000068,0.00000083,0
 .00000316,0.00000096,-0.00000021,-0.00000042,0.00000089,-0.00000117,-0
 .00000371,0.00000166,-0.00000017,-0.00000050,0.00000048,-0.00000055,-0
 .00000181,0.00000068,0.00000086,0.00000326,0.00000014,0.00000104,0.000
 00335,-0.00000224,0.00000119,0.00000323,-0.00000310,0.00000149,0.00000
 483,-0.00000228,0.00000086,0.00000198,-0.00000249,-0.00000006,-0.00000
 025,-0.00000001,-0.00000009,-0.00000028,-0.00000049,-0.00000028,-0.000
 00050,0.00000200,-0.00000034,-0.00000049,0.00000252,-0.00000035,-0.000
 00045,0.00000380,-0.00000077,-0.00000079,0.00000567,0.00000006,-0.0000
 0033,-0.00000204,0.00000033,-0.00000009,-0.00000399,0.00000006,-0.0000
 0050,-0.00000181,0.00000047,-0.00000004,-0.00000591,0.00000036,0.,-0.0
 0000421,0.00000018,-0.00000050,-0.00000369,-0.00000017,-0.00000069,-0.
 00000031,0.00000036,-0.00000022,-0.00000569,0.00000067,0.00000010,-0.0
 0000748,0.00000060,-0.00000010,-0.00000748,0.00000073,0.00000005,-0.00
 000878,0.00000016,-0.00000065,-0.00000346,-0.00000036,-0.00000254,-0.0
 0000419,-0.00000077,-0.00000384,-0.00000325,-0.00000032,-0.00000232,-0
 .00000399,-0.00000036,-0.00000280,-0.00000585,-0.00000046,-0.00000037,
 0.00000342,-0.00000075,-0.00000155,0.00000419,-0.00000076,-0.00000049,
 0.00000780,-0.00000079,-0.00000014,0.00000886,-0.00000015,0.00000214,0
 .00000909,-0.00000020,0.00000154,0.00000796\\\@


 THERE IS MUCH PLEASURE TO BE GAINED FROM USELESS KNOWLEDGE

                                       -- BERTRAND RUSSELL
 Job cpu time:       0 days 23 hours 56 minutes 49.3 seconds.
 Elapsed time:       0 days 23 hours 59 minutes 35.4 seconds.
 File lengths (MBytes):  RWF=   9656 Int=      0 D2E=      0 Chk=     78 Scr=      1
 Normal termination of Gaussian 16 at Fri Nov 22 21:11:28 2024.
