 Entering Gaussian System, Link 0=g16
 Initial command:
 /sw/cluster/pub/apps//g16/l1.exe "/data/natrosa/25872/Gau-317702.inp" -scrdir="/data/natrosa/25872/"
 Entering Link 1 = /sw/cluster/pub/apps//g16/l1.exe PID=    317703.
  
 Copyright (c) 1988,1990,1992,1993,1995,1998,2003,2009,2016,
            Gaussian, Inc.  All Rights Reserved.
  
 This is part of the Gaussian(R) 16 program.  It is based on
 the Gaussian(R) 09 system (copyright 2009, Gaussian, Inc.),
 the Gaussian(R) 03 system (copyright 2003, Gaussian, Inc.),
 the Gaussian(R) 98 system (copyright 1998, Gaussian, Inc.),
 the Gaussian(R) 94 system (copyright 1995, Gaussian, Inc.),
 the Gaussian 92(TM) system (copyright 1992, Gaussian, Inc.),
 the Gaussian 90(TM) system (copyright 1990, Gaussian, Inc.),
 the Gaussian 88(TM) system (copyright 1988, Gaussian, Inc.),
 the Gaussian 86(TM) system (copyright 1986, Carnegie Mellon
 University), and the Gaussian 82(TM) system (copyright 1983,
 Carnegie Mellon University). Gaussian is a federally registered
 trademark of Gaussian, Inc.
  
 This software contains proprietary and confidential information,
 including trade secrets, belonging to Gaussian, Inc.
  
 This software is provided under written license and may be
 used, copied, transmitted, or stored only in accord with that
 written license.
  
 The following legend is applicable only to US Government
 contracts under FAR:
  
                    RESTRICTED RIGHTS LEGEND
  
 Use, reproduction and disclosure by the US Government is
 subject to restrictions as set forth in subparagraphs (a)
 and (c) of the Commercial Computer Software - Restricted
 Rights clause in FAR 52.227-19.
  
 Gaussian, Inc.
 340 Quinnipiac St., Bldg. 40, Wallingford CT 06492
  
  
 ---------------------------------------------------------------
 Warning -- This program may not be used in any manner that
 competes with the business of Gaussian, Inc. or will provide
 assistance to any competitor of Gaussian, Inc.  The licensee
 of this program is prohibited from giving any competitor of
 Gaussian, Inc. access to this program.  By using this program,
 the user acknowledges that Gaussian, Inc. is engaged in the
 business of creating and licensing software in the field of
 computational chemistry and represents and warrants to the
 licensee that it is not a competitor of Gaussian, Inc. and that
 it will not use this program in any manner prohibited above.
 ---------------------------------------------------------------
  

 Cite this work as:
 Gaussian 16, Revision A.03,
 M. J. Frisch, G. W. Trucks, H. B. Schlegel, G. E. Scuseria, 
 M. A. Robb, J. R. Cheeseman, G. Scalmani, V. Barone, 
 G. A. Petersson, H. Nakatsuji, X. Li, M. Caricato, A. V. Marenich, 
 J. Bloino, B. G. Janesko, R. Gomperts, B. Mennucci, H. P. Hratchian, 
 J. V. Ortiz, A. F. Izmaylov, J. L. Sonnenberg, D. Williams-Young, 
 F. Ding, F. Lipparini, F. Egidi, J. Goings, B. Peng, A. Petrone, 
 T. Henderson, D. Ranasinghe, V. G. Zakrzewski, J. Gao, N. Rega, 
 G. Zheng, W. Liang, M. Hada, M. Ehara, K. Toyota, R. Fukuda, 
 J. Hasegawa, M. Ishida, T. Nakajima, Y. Honda, O. Kitao, H. Nakai, 
 T. Vreven, K. Throssell, J. A. Montgomery, Jr., J. E. Peralta, 
 F. Ogliaro, M. J. Bearpark, J. J. Heyd, E. N. Brothers, K. N. Kudin, 
 V. N. Staroverov, T. A. Keith, R. Kobayashi, J. Normand, 
 K. Raghavachari, A. P. Rendell, J. C. Burant, S. S. Iyengar, 
 J. Tomasi, M. Cossi, J. M. Millam, M. Klene, C. Adamo, R. Cammi, 
 J. W. Ochterski, R. L. Martin, K. Morokuma, O. Farkas, 
 J. B. Foresman, and D. J. Fox, Gaussian, Inc., Wallingford CT, 2016.
 
 ******************************************
 Gaussian 16:  ES64L-G16RevA.03 25-Dec-2016
                 2-Dec-2024 
 ******************************************
 %oldchk=/home/natrosa/MOSSRI/REACAO-2/CURCUMIN-OPT-FREQ-Reag-M06-2X-6-311G-D-298
 .chk
 %chk=CURCUMIN-Reag-2-M062X-6-311G-D-298-NBO.chk
 Copying data from "/home/natrosa/MOSSRI/REACAO-2/CURCUMIN-OPT-FREQ-Reag-M06-2X-6-311G-D-298.chk" to current chk file "CURCUMIN-Reag-2-M062X-6-311G-D-298-NBO.chk"
 IOpt=  2 FromEx=T IUOpen= 4 IOptOp= 5 NList=   0 IFRang= 0 IUIn= 4 IUOut= 2.
 ----------------------------------------------------------------------
 # pop=nbo M062X/6-311g(d) scrf=(smd,solvent=generic,read) temperature=
 298.15 Geom=Check Guess=Read
 ----------------------------------------------------------------------
 1/29=2,38=1,40=2,112=298150,172=1/1;
 2/12=2,40=1/2;
 3/5=4,6=6,7=1,11=2,14=-4,25=1,30=1,70=32203,72=-2,74=-55,116=-2/1,2,3;
 4/5=1/1;
 5/5=2,38=6/2;
 6/7=2,8=2,9=2,10=2,28=1,40=1/1,7;
 99/5=1,9=1/99;
 ----------
 Reagente 1
 ----------
 Structure from the checkpoint file:  "CURCUMIN-Reag-2-M062X-6-311G-D-298-NBO.chk"
 Charge =  0 Multiplicity = 2
 Redundant internal coordinates found in file.  (old form).
 C,0,-2.7926809904,0.1735420132,-0.5265109484
 H,0,-2.4119789967,0.5701105038,-1.464617728
 C,0,-1.9623833737,0.0506465916,0.5204928338
 H,0,-2.305760567,-0.3292617244,1.4782531611
 C,0,-0.5319714689,0.4094624514,0.5145215798
 O,0,0.1290552845,0.2881259635,1.5251844818
 C,0,-4.212200927,-0.1759015536,-0.5548458362
 C,0,-4.9458239174,0.080115726,-1.7155377871
 C,0,-4.8754844524,-0.7625354259,0.5352007091
 C,0,-6.2998949898,-0.2214628103,-1.7887208661
 H,0,-4.4524400688,0.5278689311,-2.571674484
 C,0,-6.2211941002,-1.0642427556,0.4759919598
 H,0,-4.3543602855,-0.9888054863,1.4590079081
 C,0,-6.9490697296,-0.7888079667,-0.6979260746
 H,0,-6.8614240766,-0.0082479442,-2.6934616911
 O,0,-8.2664201094,-1.0908985778,-0.6924853163
 H,0,-8.661151367,-0.8559372171,-1.5422572666
 O,0,-6.8483311589,-1.5945618247,1.565209962
 C,0,-7.1832812532,-2.9747774241,1.4217071901
 H,0,-6.2801673159,-3.5704741491,1.2593979889
 H,0,-7.6542755204,-3.2769002637,2.3554055277
 H,0,-7.8803883881,-3.1276936841,0.5958847724
 C,0,2.8756225218,-0.1550569563,-0.28265733
 H,0,2.0272043755,-0.8307720749,-0.3602670693
 C,0,2.6577633963,1.1669204266,-0.3351060884
 H,0,3.4624690811,1.8878725628,-0.2270051847
 C,0,1.327027227,1.7747956095,-0.4757157089
 O,0,1.1851297269,2.9771703818,-0.3581511495
 C,0,4.163955425,-0.8239117871,-0.1066948327
 C,0,4.1986461212,-2.2196199964,-0.0650383083
 C,0,5.3762069051,-0.1258359198,0.0168881104
 C,0,5.3964932823,-2.9031177819,0.1034060669
 H,0,3.2747259059,-2.7803822788,-0.1597973569
 C,0,6.5723524879,-0.7932328546,0.1888813802
 H,0,5.4102830517,0.9578204307,-0.0059569799
 C,0,6.5888061194,-2.2004593421,0.2358748833
 H,0,5.4078531101,-3.9883899352,0.1419645183
 O,0,7.7874320589,-2.7981731267,0.4210890255
 H,0,7.6757002682,-3.757332734,0.4438923422
 O,0,7.7292011112,-0.0874888108,0.349281686
 C,0,8.5901451365,-0.130855796,-0.7880608516
 H,0,8.088219626,0.2953185151,-1.6617618621
 H,0,9.4611976351,0.4729900866,-0.5397597242
 H,0,8.9056091967,-1.1530751214,-1.0052465411
 C,0,0.1072901973,0.915869966,-0.7754307593
 H,0,0.3460589446,0.0502188461,-1.3992807065
 H,0,-0.587392444,1.5395585972,-1.3368352582
 O,0,-1.9288851225,3.6556558199,-0.3083299231
 O,0,-1.0426530761,3.7201840026,1.6826130213
 N,0,-1.3478874968,3.2563178982,0.6419795241
 Recover connectivity data from disk.
                           ----------------------------
                           !    Current Parameters    !
                           ! (Angstroms and Degrees)  !
 --------------------------                            --------------------------
 ! Name  Definition              Value                                          !
 --------------------------------------------------------------------------------
 ! R1    R(1,2)                  1.0873                                         !
 ! R2    R(1,3)                  1.3419                                         !
 ! R3    R(1,7)                  1.4622                                         !
 ! R4    R(3,4)                  1.0861                                         !
 ! R5    R(3,5)                  1.4747                                         !
 ! R6    R(5,6)                  1.2137                                         !
 ! R7    R(5,45)                 1.5261                                         !
 ! R8    R(7,8)                  1.3968                                         !
 ! R9    R(7,9)                  1.4044                                         !
 ! R10   R(8,10)                 1.3892                                         !
 ! R11   R(8,11)                 1.0848                                         !
 ! R12   R(9,12)                 1.3804                                         !
 ! R13   R(9,13)                 1.0845                                         !
 ! R14   R(10,14)                1.3904                                         !
 ! R15   R(10,15)                1.086                                          !
 ! R16   R(12,14)                1.4085                                         !
 ! R17   R(12,18)                1.3642                                         !
 ! R18   R(14,16)                1.3516                                         !
 ! R19   R(16,17)                0.966                                          !
 ! R20   R(18,19)                1.4275                                         !
 ! R21   R(19,20)                1.094                                          !
 ! R22   R(19,21)                1.0885                                         !
 ! R23   R(19,22)                1.0915                                         !
 ! R24   R(23,24)                1.0874                                         !
 ! R25   R(23,25)                1.3408                                         !
 ! R26   R(23,29)                1.4622                                         !
 ! R27   R(25,26)                1.0858                                         !
 ! R28   R(25,27)                1.4697                                         !
 ! R29   R(27,28)                1.2164                                         !
 ! R30   R(27,45)                1.5216                                         !
 ! R31   R(28,50)                2.7376                                         !
 ! R32   R(29,30)                1.3968                                         !
 ! R33   R(29,31)                1.4043                                         !
 ! R34   R(30,32)                1.3894                                         !
 ! R35   R(30,33)                1.0849                                         !
 ! R36   R(31,34)                1.3805                                         !
 ! R37   R(31,35)                1.0844                                         !
 ! R38   R(32,36)                1.3903                                         !
 ! R39   R(32,37)                1.086                                          !
 ! R40   R(34,36)                1.4081                                         !
 ! R41   R(34,40)                1.3646                                         !
 ! R42   R(36,38)                1.3521                                         !
 ! R43   R(38,39)                0.9659                                         !
 ! R44   R(40,41)                1.4271                                         !
 ! R45   R(41,42)                1.094                                          !
 ! R46   R(41,43)                1.0886                                         !
 ! R47   R(41,44)                1.0916                                         !
 ! R48   R(45,46)                1.0934                                         !
 ! R49   R(45,47)                1.0894                                         !
 ! R50   R(47,48)                2.7084                                         !
 ! R51   R(48,50)                1.1833                                         !
 ! R52   R(49,50)                1.1795                                         !
 ! A1    A(2,1,3)              119.336                                          !
 ! A2    A(2,1,7)              114.2277                                         !
 ! A3    A(3,1,7)              126.4362                                         !
 ! A4    A(1,3,4)              121.6325                                         !
 ! A5    A(1,3,5)              125.0789                                         !
 ! A6    A(4,3,5)              113.2873                                         !
 ! A7    A(3,5,6)              120.0372                                         !
 ! A8    A(3,5,45)             119.3697                                         !
 ! A9    A(6,5,45)             120.5887                                         !
 ! A10   A(1,7,8)              118.8296                                         !
 ! A11   A(1,7,9)              122.9091                                         !
 ! A12   A(8,7,9)              118.2612                                         !
 ! A13   A(7,8,10)             121.0605                                         !
 ! A14   A(7,8,11)             119.5101                                         !
 ! A15   A(10,8,11)            119.4281                                         !
 ! A16   A(7,9,12)             121.2275                                         !
 ! A17   A(7,9,13)             121.4237                                         !
 ! A18   A(12,9,13)            117.3468                                         !
 ! A19   A(8,10,14)            120.1564                                         !
 ! A20   A(8,10,15)            120.3496                                         !
 ! A21   A(14,10,15)           119.4917                                         !
 ! A22   A(9,12,14)            119.7895                                         !
 ! A23   A(9,12,18)            119.9269                                         !
 ! A24   A(14,12,18)           120.2607                                         !
 ! A25   A(10,14,12)           119.4982                                         !
 ! A26   A(10,14,16)           123.3295                                         !
 ! A27   A(12,14,16)           117.1709                                         !
 ! A28   A(14,16,17)           109.9001                                         !
 ! A29   A(12,18,19)           113.7956                                         !
 ! A30   A(18,19,20)           110.3462                                         !
 ! A31   A(18,19,21)           106.4783                                         !
 ! A32   A(18,19,22)           111.1849                                         !
 ! A33   A(20,19,21)           109.4706                                         !
 ! A34   A(20,19,22)           109.798                                          !
 ! A35   A(21,19,22)           109.4967                                         !
 ! A36   A(24,23,25)           118.8883                                         !
 ! A37   A(24,23,29)           114.3169                                         !
 ! A38   A(25,23,29)           126.7876                                         !
 ! A39   A(23,25,26)           122.0272                                         !
 ! A40   A(23,25,27)           123.9612                                         !
 ! A41   A(26,25,27)           113.9489                                         !
 ! A42   A(25,27,28)           120.3442                                         !
 ! A43   A(25,27,45)           120.7416                                         !
 ! A44   A(28,27,45)           118.9138                                         !
 ! A45   A(27,28,50)           104.1249                                         !
 ! A46   A(23,29,30)           118.8519                                         !
 ! A47   A(23,29,31)           122.941                                          !
 ! A48   A(30,29,31)           118.2065                                         !
 ! A49   A(29,30,32)           121.1046                                         !
 ! A50   A(29,30,33)           119.5197                                         !
 ! A51   A(32,30,33)           119.3748                                         !
 ! A52   A(29,31,34)           121.2383                                         !
 ! A53   A(29,31,35)           121.4668                                         !
 ! A54   A(34,31,35)           117.2903                                         !
 ! A55   A(30,32,36)           120.1522                                         !
 ! A56   A(30,32,37)           120.3267                                         !
 ! A57   A(36,32,37)           119.5187                                         !
 ! A58   A(31,34,36)           119.83                                           !
 ! A59   A(31,34,40)           119.945                                          !
 ! A60   A(36,34,40)           120.2008                                         !
 ! A61   A(32,36,34)           119.4649                                         !
 ! A62   A(32,36,38)           123.3585                                         !
 ! A63   A(34,36,38)           117.1747                                         !
 ! A64   A(36,38,39)           109.8557                                         !
 ! A65   A(34,40,41)           113.7059                                         !
 ! A66   A(40,41,42)           110.3553                                         !
 ! A67   A(40,41,43)           106.5042                                         !
 ! A68   A(40,41,44)           111.1835                                         !
 ! A69   A(42,41,43)           109.462                                          !
 ! A70   A(42,41,44)           109.784                                          !
 ! A71   A(43,41,44)           109.4866                                         !
 ! A72   A(5,45,27)            110.8911                                         !
 ! A73   A(5,45,46)            108.1208                                         !
 ! A74   A(5,45,47)            111.0052                                         !
 ! A75   A(27,45,46)           112.5961                                         !
 ! A76   A(27,45,47)           106.8283                                         !
 ! A77   A(46,45,47)           107.3664                                         !
 ! A78   A(45,47,48)           124.574                                          !
 ! A79   A(47,48,50)            78.3517                                         !
 ! A80   A(28,50,48)           101.2638                                         !
 ! A81   A(28,50,49)            97.0639                                         !
 ! A82   A(48,50,49)           134.6602                                         !
 ! D1    D(2,1,3,4)            179.2296                                         !
 ! D2    D(2,1,3,5)             -0.3265                                         !
 ! D3    D(7,1,3,4)             -0.6319                                         !
 ! D4    D(7,1,3,5)            179.812                                          !
 ! D5    D(2,1,7,8)             -3.0192                                         !
 ! D6    D(2,1,7,9)            176.8468                                         !
 ! D7    D(3,1,7,8)            176.8484                                         !
 ! D8    D(3,1,7,9)             -3.2855                                         !
 ! D9    D(1,3,5,6)            178.3636                                         !
 ! D10   D(1,3,5,45)            -2.3902                                         !
 ! D11   D(4,3,5,6)             -1.225                                          !
 ! D12   D(4,3,5,45)           178.0212                                         !
 ! D13   D(3,5,45,27)          155.2111                                         !
 ! D14   D(3,5,45,46)          -80.8962                                         !
 ! D15   D(3,5,45,47)           36.6244                                         !
 ! D16   D(6,5,45,27)          -25.5469                                         !
 ! D17   D(6,5,45,46)           98.3457                                         !
 ! D18   D(6,5,45,47)         -144.1336                                         !
 ! D19   D(1,7,8,10)          -179.3796                                         !
 ! D20   D(1,7,8,11)             0.1998                                         !
 ! D21   D(9,7,8,10)             0.748                                          !
 ! D22   D(9,7,8,11)          -179.6726                                         !
 ! D23   D(1,7,9,12)           179.2435                                         !
 ! D24   D(1,7,9,13)            -0.2285                                         !
 ! D25   D(8,7,9,12)            -0.8897                                         !
 ! D26   D(8,7,9,13)           179.6383                                         !
 ! D27   D(7,8,10,14)           -0.0671                                         !
 ! D28   D(7,8,10,15)          179.3776                                         !
 ! D29   D(11,8,10,14)        -179.6468                                         !
 ! D30   D(11,8,10,15)          -0.2021                                         !
 ! D31   D(7,9,12,14)            0.3479                                         !
 ! D32   D(7,9,12,18)         -177.9184                                         !
 ! D33   D(13,9,12,14)         179.8408                                         !
 ! D34   D(13,9,12,18)           1.5744                                         !
 ! D35   D(8,10,14,12)          -0.4915                                         !
 ! D36   D(8,10,14,16)         179.0696                                         !
 ! D37   D(15,10,14,12)       -179.941                                          !
 ! D38   D(15,10,14,16)         -0.3798                                         !
 ! D39   D(9,12,14,10)           0.3522                                         !
 ! D40   D(9,12,14,16)        -179.2357                                         !
 ! D41   D(18,12,14,10)        178.6126                                         !
 ! D42   D(18,12,14,16)         -0.9752                                         !
 ! D43   D(9,12,18,19)        -107.8515                                         !
 ! D44   D(14,12,18,19)         73.8904                                         !
 ! D45   D(10,14,16,17)          0.113                                          !
 ! D46   D(12,14,16,17)        179.6836                                         !
 ! D47   D(12,18,19,20)         60.1829                                         !
 ! D48   D(12,18,19,21)        178.8958                                         !
 ! D49   D(12,18,19,22)        -61.9002                                         !
 ! D50   D(24,23,25,26)        177.7582                                         !
 ! D51   D(24,23,25,27)          0.8122                                         !
 ! D52   D(29,23,25,26)         -1.2082                                         !
 ! D53   D(29,23,25,27)       -178.1542                                         !
 ! D54   D(24,23,29,30)          0.4795                                         !
 ! D55   D(24,23,29,31)       -179.83                                           !
 ! D56   D(25,23,29,30)        179.4864                                         !
 ! D57   D(25,23,29,31)         -0.8231                                         !
 ! D58   D(23,25,27,28)        171.2781                                         !
 ! D59   D(23,25,27,45)         -8.972                                          !
 ! D60   D(26,25,27,28)         -5.889                                          !
 ! D61   D(26,25,27,45)        173.861                                          !
 ! D62   D(25,27,28,50)       -149.5798                                         !
 ! D63   D(45,27,28,50)         30.6658                                         !
 ! D64   D(25,27,45,5)          88.4927                                         !
 ! D65   D(25,27,45,46)        -32.8018                                         !
 ! D66   D(25,27,45,47)       -150.424                                          !
 ! D67   D(28,27,45,5)         -91.7539                                         !
 ! D68   D(28,27,45,46)        146.9516                                         !
 ! D69   D(28,27,45,47)         29.3294                                         !
 ! D70   D(27,28,50,48)       -106.215                                          !
 ! D71   D(27,28,50,49)        115.4653                                         !
 ! D72   D(23,29,30,32)       -179.8476                                         !
 ! D73   D(23,29,30,33)         -0.2138                                         !
 ! D74   D(31,29,30,32)          0.4472                                         !
 ! D75   D(31,29,30,33)       -179.9191                                         !
 ! D76   D(23,29,31,34)        179.6554                                         !
 ! D77   D(23,29,31,35)          0.4511                                         !
 ! D78   D(30,29,31,34)         -0.6523                                         !
 ! D79   D(30,29,31,35)       -179.8566                                         !
 ! D80   D(29,30,32,36)          0.0837                                         !
 ! D81   D(29,30,32,37)        179.5074                                         !
 ! D82   D(33,30,32,36)       -179.5506                                         !
 ! D83   D(33,30,32,37)         -0.1269                                         !
 ! D84   D(29,31,34,36)          0.3242                                         !
 ! D85   D(29,31,34,40)       -177.8884                                         !
 ! D86   D(35,31,34,36)        179.5605                                         !
 ! D87   D(35,31,34,40)          1.3479                                         !
 ! D88   D(30,32,36,34)         -0.422                                          !
 ! D89   D(30,32,36,38)        179.0512                                         !
 ! D90   D(37,32,36,34)       -179.8504                                         !
 ! D91   D(37,32,36,38)         -0.3772                                         !
 ! D92   D(31,34,36,32)          0.2203                                         !
 ! D93   D(31,34,36,38)       -179.2852                                         !
 ! D94   D(40,34,36,32)        178.4283                                         !
 ! D95   D(40,34,36,38)         -1.0772                                         !
 ! D96   D(31,34,40,41)       -107.4131                                         !
 ! D97   D(36,34,40,41)         74.3809                                         !
 ! D98   D(32,36,38,39)          0.0271                                         !
 ! D99   D(34,36,38,39)        179.5116                                         !
 ! D100  D(34,40,41,42)         60.6169                                         !
 ! D101  D(34,40,41,43)        179.3396                                         !
 ! D102  D(34,40,41,44)        -61.4538                                         !
 ! D103  D(5,45,47,48)          52.0603                                         !
 ! D104  D(27,45,47,48)        -68.9505                                         !
 ! D105  D(46,45,47,48)        170.0397                                         !
 ! D106  D(45,47,48,50)         -2.5454                                         !
 ! D107  D(47,48,50,28)         48.4366                                         !
 ! D108  D(47,48,50,49)        160.3437                                         !
 --------------------------------------------------------------------------------
                          Input orientation:                          
 ---------------------------------------------------------------------
 Center     Atomic      Atomic             Coordinates (Angstroms)
 Number     Number       Type             X           Y           Z
 ---------------------------------------------------------------------
      1          6           0       -2.792681    0.173542   -0.526511
      2          1           0       -2.411979    0.570111   -1.464618
      3          6           0       -1.962383    0.050647    0.520493
      4          1           0       -2.305761   -0.329262    1.478253
      5          6           0       -0.531971    0.409462    0.514522
      6          8           0        0.129055    0.288126    1.525184
      7          6           0       -4.212201   -0.175902   -0.554846
      8          6           0       -4.945824    0.080116   -1.715538
      9          6           0       -4.875484   -0.762535    0.535201
     10          6           0       -6.299895   -0.221463   -1.788721
     11          1           0       -4.452440    0.527869   -2.571674
     12          6           0       -6.221194   -1.064243    0.475992
     13          1           0       -4.354360   -0.988805    1.459008
     14          6           0       -6.949070   -0.788808   -0.697926
     15          1           0       -6.861424   -0.008248   -2.693462
     16          8           0       -8.266420   -1.090899   -0.692485
     17          1           0       -8.661151   -0.855937   -1.542257
     18          8           0       -6.848331   -1.594562    1.565210
     19          6           0       -7.183281   -2.974777    1.421707
     20          1           0       -6.280167   -3.570474    1.259398
     21          1           0       -7.654276   -3.276900    2.355406
     22          1           0       -7.880388   -3.127694    0.595885
     23          6           0        2.875623   -0.155057   -0.282657
     24          1           0        2.027204   -0.830772   -0.360267
     25          6           0        2.657763    1.166920   -0.335106
     26          1           0        3.462469    1.887873   -0.227005
     27          6           0        1.327027    1.774796   -0.475716
     28          8           0        1.185130    2.977170   -0.358151
     29          6           0        4.163955   -0.823912   -0.106695
     30          6           0        4.198646   -2.219620   -0.065038
     31          6           0        5.376207   -0.125836    0.016888
     32          6           0        5.396493   -2.903118    0.103406
     33          1           0        3.274726   -2.780382   -0.159797
     34          6           0        6.572352   -0.793233    0.188881
     35          1           0        5.410283    0.957820   -0.005957
     36          6           0        6.588806   -2.200459    0.235875
     37          1           0        5.407853   -3.988390    0.141965
     38          8           0        7.787432   -2.798173    0.421089
     39          1           0        7.675700   -3.757333    0.443892
     40          8           0        7.729201   -0.087489    0.349282
     41          6           0        8.590145   -0.130856   -0.788061
     42          1           0        8.088220    0.295319   -1.661762
     43          1           0        9.461198    0.472990   -0.539760
     44          1           0        8.905609   -1.153075   -1.005247
     45          6           0        0.107290    0.915870   -0.775431
     46          1           0        0.346059    0.050219   -1.399281
     47          1           0       -0.587392    1.539559   -1.336835
     48          8           0       -1.928885    3.655656   -0.308330
     49          8           0       -1.042653    3.720184    1.682613
     50          7           0       -1.347887    3.256318    0.641980
 ---------------------------------------------------------------------
                    Distance matrix (angstroms):
                    1          2          3          4          5
     1  C    0.000000
     2  H    1.087311   0.000000
     3  C    1.341907   2.100629   0.000000
     4  H    2.123436   3.079065   1.086068   0.000000
     5  C    2.500043   2.734452   1.474742   2.149609   0.000000
     6  O    3.571992   3.933864   2.332363   2.512309   1.213721
     7  C    1.462173   2.150585   2.503868   2.791330   3.876891
     8  C    2.461410   2.592957   3.728487   4.163871   4.956181
     9  C    2.518242   3.441523   3.024506   2.771381   4.498901
    10  C    3.748300   3.980895   4.921435   5.161187   6.242751
    11  H    2.657638   2.321818   3.998703   4.663134   4.990862
    12  C    3.780453   4.576811   4.402548   4.107961   5.877121
    13  H    2.780680   3.840658   2.771791   2.152238   4.178261
    14  C    4.269785   4.797882   5.201564   5.148520   6.639656
    15  H    4.613393   4.652109   5.859486   6.185493   7.108277
    16  O    5.620336   6.134299   6.520377   6.389183   7.970549
    17  H    6.044048   6.410288   7.067554   7.056335   8.480280
    18  O    4.893852   5.791967   5.260288   4.716301   6.709431
    19  C    5.743243   6.607755   6.101078   5.549068   7.517712
    20  H    5.419381   6.287097   5.683463   5.133153   7.031109
    21  H    6.621638   7.541468   6.843764   6.169650   8.228325
    22  H    6.167876   6.915412   6.717910   6.299704   8.155815
    23  C    5.683054   5.466409   4.908530   5.475206   3.544838
    24  H    4.926213   4.784183   4.179647   4.733525   2.975369
    25  C    5.543535   5.228218   4.829480   5.492122   3.386742
    26  H    6.492729   6.146326   5.776087   6.410621   4.323322
    27  C    4.420248   4.050847   3.845171   4.630572   2.510096
    28  O    4.869461   4.467370   4.386729   5.146959   3.209847
    29  C    7.040309   6.857854   6.220148   6.679369   4.894778
    30  C    7.403974   7.310389   6.592059   6.947122   5.443042
    31  C    8.192414   7.958332   7.357967   7.822378   5.953214
    32  C    8.770702   8.688743   7.940513   8.236483   6.803594
    33  H    6.758223   6.728073   5.992064   6.311341   5.012061
    34  C    9.441943   9.236394   8.582763   8.983242   7.212762
    35  H    8.256796   7.966542   7.446900   7.962210   5.990157
    36  C    9.707184   9.569841   8.847108   9.173778   7.589124
    37  H    9.220482   9.192976   8.412936   8.641454   7.400096
    38  O   11.030314  10.905467  10.157980  10.444408   8.916845
    39  H   11.224102  11.141385  10.363360  10.604298   9.205055
    40  O   10.561494  10.323091   9.694081  10.101163   8.277756
    41  C   11.389899  11.045172  10.634901  11.130872   9.230475
    42  H   10.940641  10.505644  10.287698  10.875873   8.891397
    43  H   12.257544  11.909539  11.480449  11.965671  10.048829
    44  H   11.783000  11.457233  11.040384  11.512656   9.686028
    45  C    3.003805   2.634624   2.590671   3.528776   1.526133
    46  H    3.260157   2.807371   3.002405   3.931457   2.136032
    47  H    2.717706   2.070090   2.749023   3.790778   2.169726
    48  O    3.594282   3.330311   3.699211   4.383319   3.628529
    49  O    4.530066   4.658656   3.957516   4.246789   3.547691
    50  N    3.599487   3.575717   3.266296   3.804373   2.964212
                    6          7          8          9         10
     6  O    0.000000
     7  C    4.836151   0.000000
     8  C    6.024944   1.396765   0.000000
     9  C    5.208587   1.404381   2.404336   0.000000
    10  C    7.250728   2.425488   1.389177   2.778906   0.000000
    11  H    6.150758   2.149559   1.084841   3.390691   2.141869
    12  C    6.576882   2.426485   2.781893   1.380387   2.417725
    13  H    4.662183   2.176380   3.401494   1.084522   3.862857
    14  C    7.496790   2.808305   2.409057   2.412685   1.390375
    15  H    8.170166   3.408837   2.152595   3.864863   1.085970
    16  O    8.792257   4.158468   3.666643   3.621254   2.413477
    17  H    9.380075   4.607666   3.835346   4.319239   2.457404
    18  O    7.227035   3.668299   4.145767   2.375986   3.665383
    19  C    8.007966   4.535172   4.917407   3.317504   4.320644
    20  H    7.485825   4.369335   4.894642   3.222129   4.528498
    21  H    8.601100   5.471164   5.931091   4.166156   5.323892
    22  H    8.756861   4.846943   4.923859   3.824540   4.078049
    23  C    3.317881   7.093078   7.955091   7.817773   9.298535
    24  H    2.899971   6.276695   7.161676   6.960864   8.470674
    25  C    3.259958   7.003418   7.803927   7.824964   9.180427
    26  H    4.091577   7.954068   8.728293   8.782203  10.109006
    27  C    2.765669   5.873204   6.614965   6.777253   7.992432
    28  O    3.448653   6.253937   6.915491   7.177362   8.264586
    29  C    4.492224   8.413130   9.294822   9.062410  10.615287
    30  C    5.037774   8.669432   9.572579   9.209953  10.825113
    31  C    5.475301   9.605569  10.468430  10.284513  11.815275
    32  C    6.320711  10.009896  10.916582  10.501527  12.148124
    33  H    4.706395   7.936842   8.841958   8.425002  10.043646
    34  C    6.668667  10.827780  11.707175  11.453115  13.035819
    35  H    5.539337   9.704576  10.532900  10.442676  11.903664
    36  C    7.041573  11.017524  11.918755  11.557992  13.195985
    37  H    6.933080  10.371405  11.278372  10.784610  12.449444
    38  O    8.330366  12.321524  13.228210  12.826001  14.490531
    39  H    8.630572  12.455775  13.367574  12.903852  14.587810
    40  O    7.699744  11.975907  12.843202  12.624118  14.191707
    41  C    8.781611  12.804549  13.569347  13.545229  14.923901
    42  H    8.573504  12.359112  13.035931  13.191032  14.397952
    43  H    9.559657  13.688795  14.460258  14.429917  15.825745
    44  H    9.247056  13.161864  13.924348  13.872420  15.254150
    45  C    2.384820   4.460788   5.207326   5.418749   6.585765
    46  H    2.942140   4.641329   5.301409   5.627371   6.662896
    47  H    3.204768   4.085774   4.611867   5.214584   5.994838
    48  O    4.351684   4.467117   4.885350   5.377212   6.027382
    49  O    3.629973   5.498340   6.327106   6.008488   7.431375
    50  N    3.430973   4.627830   5.347083   5.348507   6.521169
                   11         12         13         14         15
    11  H    0.000000
    12  C    3.866727   0.000000
    13  H    4.307705   2.111180   0.000000
    14  C    3.387880   1.408457   3.380071   0.000000
    15  H    2.470922   3.401537   4.948724   2.144555   0.000000
    16  O    4.549528   2.355631   4.465821   1.351555   2.673958
    17  H    4.548392   3.173344   5.251066   1.910137   2.298449
    18  O    5.230566   1.364161   2.568679   2.404407   4.544540
    19  C    5.972698   2.338831   3.456627   3.053877   5.083159
    20  H    5.900349   2.626480   3.227009   3.466441   5.352795
    21  H    7.000295   3.237556   4.114407   4.001344   6.066610
    22  H    5.928524   2.650496   4.213395   2.830492   4.646400
    23  C    7.707560   9.173562   7.483394   9.853866  10.032129
    24  H    6.980116   8.293969   6.637703   8.982721   9.226487
    25  C    7.481017   9.190857   7.552210   9.810594   9.877135
    26  H    8.366174  10.148030   8.498279  10.760415  10.782460
    27  C    6.272967   8.120439   6.607481   8.666904   8.668816
    28  O    6.533066   8.478352   7.051027   8.970130   8.894573
    29  C    9.063427  10.404259   8.662581  11.128797  11.354103
    30  C    9.416646  10.497651   8.774482  11.256968  11.581189
    31  C   10.184807  11.644359   9.874632  12.363775  12.534729
    32  C   10.767043  11.768217  10.029028  12.550911  12.901910
    33  H    8.744757   9.670670   8.002077  10.429858  10.809520
    34  C   11.441679  12.799637  11.002024  13.550473  13.761920
    35  H   10.200053  11.815764  10.063982  12.501325  12.599634
    36  C   11.714744  12.862533  11.077773  13.643270  13.938992
    37  H   11.179705  11.995705  10.297229  12.792040  13.206678
    38  O   13.032024  14.115634  12.319668  14.914900  15.233945
    39  H   13.211676  14.155474  12.386184  14.966622  15.337099
    40  O   12.542051  13.985122  12.167840  14.732282  14.904728
    41  C   13.180449  14.894456  13.166078  15.553399  15.569090
    42  H   12.575777  14.531955  12.892090  15.107097  14.988276
    43  H   14.061330  15.790258  14.035724  16.459466  16.471126
    44  H   13.554215  15.199412  13.488007  15.861840  15.898429
    45  C    4.916114   6.748083   5.341051   7.259762   7.286688
    46  H    4.962686   6.920078   5.598511   7.376637   7.322987
    47  H    4.181739   6.465744   5.329110   6.804442   6.603000
    48  O    4.612386   6.427793   5.529687   6.716197   6.591129
    49  O    6.317949   7.152899   5.761249   7.802803   8.179812
    50  N    5.235480   6.514899   5.265690   7.037871   7.223686
                   16         17         18         19         20
    16  O    0.000000
    17  H    0.965988   0.000000
    18  O    2.713271   3.672633   0.000000
    19  C    3.031831   3.931751   1.427508   0.000000
    20  H    3.728719   4.570237   2.078596   1.093990   0.000000
    21  H    3.800390   4.697514   2.025887   1.088534   1.782019
    22  H    2.440789   3.215917   2.086918   1.091478   1.788019
    23  C   11.188783  11.626477  10.002103  10.584764   9.893002
    24  H   10.302269  10.753543   9.114053   9.623161   8.896162
    25  C   11.160791  11.561444  10.079822  10.820638  10.240701
    26  H   12.110185  12.499622  11.029596  11.819290  11.265962
    27  C   10.014660  10.383736   9.074934   9.928948   9.457903
    28  O   10.295278  10.632219   9.441215  10.422278  10.060754
    29  C   12.447035  12.905240  11.165107  11.649979  10.885289
    30  C   12.531783  13.015998  11.184101  11.503432  10.648214
    31  C   13.695102  14.142539  12.409423  12.954950  12.218037
    32  C   13.805535  14.300928  12.401005  12.648865  11.752705
    33  H   11.676308  12.168806  10.337219  10.578698   9.691973
    34  C   14.867905  15.331680  13.514850  13.982005  13.192662
    35  H   13.846327  14.270781  12.619701  13.270321  12.600524
    36  C   14.925506  15.412031  13.516320  13.844716  12.982104
    37  H   14.002768  14.511573  12.568615  12.696528  11.748750
    38  O   16.182738  16.678816  14.729673  15.005155  14.113701
    39  H   16.203470  16.710943  14.726928  14.911668  13.980923
    40  O   16.060884  16.517024  14.705584  15.227234  14.464505
    41  C   16.884153  17.282991  15.685244  16.179368  15.399651
    42  H   16.441877  16.789315  15.397582  15.919172  15.163379
    43  H   17.797121  18.198642  16.574269  17.110615  16.351671
    44  H   17.174990  17.577478  15.968369  16.372572  15.542852
    45  C    8.611215   8.978468   7.756387   8.550847   8.066438
    46  H    8.716450   9.053806   7.953160   8.590666   8.005302
    47  H    8.142601   8.424143   7.579177   8.455444   8.078400
    48  O    7.927276   8.197588   7.434775   8.635065   8.579533
    49  O    8.998356   9.454215   7.871862   9.088338   8.986900
    50  N    8.279202   8.669796   7.391770   8.572418   8.444743
                   21         22         23         24         25
    21  H    0.000000
    22  H    1.780254   0.000000
    23  C   11.295310  11.193756   0.000000
    24  H   10.348404  10.215208   1.087395   0.000000
    25  C   11.546625  11.417666   1.340835   2.094997   0.000000
    26  H   12.527000  12.429540   2.126275   3.077137   1.085822
    27  C   10.686378  10.486145   2.481884   2.700474   1.469742
    28  O   11.162969  10.971015   3.560100   3.899938   2.333706
    29  C   12.318672  12.282803   1.462235   2.151755   2.506830
    30  C   12.143646  12.131137   2.461741   2.594459   3.730404
    31  C   13.608503  13.604547   2.518631   3.443109   3.030685
    32  C   13.248916  13.287910   3.749090   3.982677   4.925256
    33  H   11.225678  11.186074   2.658329   2.323247   3.999072
    34  C   14.603403  14.645719   3.780930   4.578356   4.409169
    35  H   13.935264  13.917456   2.782007   3.843152   2.780005
    36  C   14.440101  14.503343   4.270864   4.799962   5.207529
    37  H   13.267432  13.323821   4.613777   4.653125   5.862407
    38  O   15.569749  15.672260   5.622028   6.136889   6.527427
    39  H   15.456159  15.569568   6.045247   6.412249   7.073528
    40  O   15.838189  15.904809   4.895011   5.793850   5.268910
    41  C   16.842214  16.798060   5.736880   6.614006   6.089544
    42  H   16.635039  16.486674   5.410724   6.300625   5.657699
    43  H   17.759028  17.747823   6.620449   7.549587   6.841794
    44  H   17.030396  16.977410   6.154585   6.916092   6.698287
    45  C    9.360735   9.057258   3.008883   2.628534   2.600351
    46  H    9.443132   9.041806   2.772666   2.163780   2.779113
    47  H    9.315136   8.871665   3.996935   3.661730   3.416629
    48  O    9.377415   9.069279   6.132331   5.981754   5.218416
    49  O    9.650150   9.738020   5.850869   5.857353   4.927822
    50  N    9.240633   9.134073   5.507310   5.394446   4.622285
                   26         27         28         29         30
    26  H    0.000000
    27  C    2.152848   0.000000
    28  O    2.527854   1.216413   0.000000
    29  C    2.803628   3.864921   4.835789   0.000000
    30  C    4.176085   4.936619   6.014468   1.396761   0.000000
    31  C    2.788709   4.500102   5.228234   1.404328   2.403600
    32  C    5.177182   6.227263   7.247510   2.426188   1.389381
    33  H    4.672512   4.964170   6.128227   2.149727   1.084925
    34  C    4.127065   5.877916   6.598284   2.426661   2.780924
    35  H    2.169755   4.190597   4.696140   2.176706   3.401130
    36  C    5.167465   6.632898   7.507359   2.809295   2.409104
    37  H    6.200897   7.088651   8.160915   3.409257   2.152575
    38  O    6.409708   7.965747   8.806373   4.160030   3.667483
    39  H    7.075999   8.470878   9.387455   4.608737   3.835815
    40  O    4.736999   6.718374   7.260680   3.668952   4.145173
    41  C    5.539234   7.515447   8.042319   4.531638   4.916397
    42  H    5.098267   7.022057   7.519600   4.367008   4.899309
    43  H    6.171260   8.237932   8.648537   5.470857   5.930426
    44  H    6.283375   8.141728   8.779719   4.837254   4.917012
    45  C    3.535928   1.521624   2.363222   4.464368   5.203379
    46  H    3.803053   2.188478   3.217924   4.124466   4.666348
    47  H    4.213600   2.112313   2.483221   5.447435   6.217319
    48  O    5.674361   3.763857   3.187462   7.565044   8.492626
    49  O    5.224953   3.749440   3.111238   7.138571   8.112137
    50  N    5.076151   3.255660   2.737583   6.898493   7.826225
                   31         32         33         34         35
    31  C    0.000000
    32  C    2.778703   0.000000
    33  H    3.390289   2.141550   0.000000
    34  C    1.380494   2.416933   3.865835   0.000000
    35  H    1.084433   3.862511   4.307950   2.110582   0.000000
    36  C    2.412968   1.390283   3.387624   1.408107   3.379664
    37  H    3.864708   1.086016   2.469934   3.401072   4.948422
    38  O    3.621984   2.414234   4.549974   2.355870   4.465500
    39  H    4.319464   2.457722   4.548346   3.173058   5.250443
    40  O    2.376665   3.664662   5.230027   1.364588   2.568316
    41  C    3.313211   4.321986   5.972302   2.337658   3.450859
    42  H    3.217180   4.537753   5.906399   2.628246   3.217444
    43  H    4.166005   5.322930   7.000088   3.237231   4.114598
    44  H    3.815319   4.075004   5.921973   2.645660   4.203780
    45  C    5.429033   6.582757   4.906520   6.756327   5.358692
    46  H    5.228663   6.040460   4.257430   6.480772   5.330240
    47  H    6.338030   7.590689   5.912974   7.683207   6.171043
    48  O    8.232242   9.841149   8.277815   9.607855   7.825160
    49  O    7.666047   9.371479   8.018204   8.977220   7.219578
    50  N    7.552692   9.149611   7.645466   8.906984   7.167690
                   36         37         38         39         40
    36  C    0.000000
    37  H    2.144800   0.000000
    38  O    1.352135   2.675243   0.000000
    39  H    1.910096   2.299495   0.965915   0.000000
    40  O    2.403748   4.544080   2.712260   3.671453   0.000000
    41  C    3.055660   5.086502   3.036606   3.937671   1.427114
    42  H    3.475367   5.365440   3.741448   4.585623   2.078396
    43  H    3.999947   6.066157   3.798056   4.695871   2.025918
    44  H    2.829306   4.646440   2.447673   3.224103   2.086662
    45  C    7.262527   7.279378   8.614543   8.978107   7.769507
    46  H    6.834558   6.656392   8.173195   8.462764   7.588625
    47  H    8.243724   8.287824   9.593951   9.975307   8.640370
    48  O   10.350909  10.604807  11.687206  12.155916  10.378931
    49  O    9.766588  10.168812  11.047662  11.552375   9.655132
    50  N    9.640148   9.918459  10.961739  11.430471   9.677823
                   41         42         43         44         45
    41  C    0.000000
    42  H    1.094033   0.000000
    43  H    1.088584   1.782000   0.000000
    44  H    1.091613   1.788011   1.780293   0.000000
    45  C    8.547200   8.053937   9.367351   9.041226   0.000000
    46  H    8.268696   7.750485   9.165330   8.652692   1.093413
    47  H    9.344444   8.770402  10.136422   9.873060   1.089379
    48  O   11.190076  10.652044  11.828648  11.874167   3.445377
    49  O   10.664218  10.309577  11.216688  11.399174   3.902374
    50  N   10.596342  10.154549  11.224070  11.282300   3.099079
                   46         47         48         49         50
    46  H    0.000000
    47  H    1.758796   0.000000
    48  O    4.400536   2.708375   0.000000
    49  O    4.989512   3.752260   2.180235   0.000000
    50  N    4.161162   2.727879   1.183265   1.179516   0.000000
 Stoichiometry    C21H20NO8(2)
 Framework group  C1[X(C21H20NO8)]
 Deg. of freedom   144
 Full point group                 C1      NOp   1
 Largest Abelian subgroup         C1      NOp   1
 Largest concise Abelian subgroup C1      NOp   1
                         Standard orientation:                         
 ---------------------------------------------------------------------
 Center     Atomic      Atomic             Coordinates (Angstroms)
 Number     Number       Type             X           Y           Z
 ---------------------------------------------------------------------
      1          6           0       -2.772759    0.227727   -0.541623
      2          1           0       -2.402195    0.686179   -1.455269
      3          6           0       -1.939301    0.065683    0.497513
      4          1           0       -2.272950   -0.376351    1.431765
      5          6           0       -0.518050    0.458945    0.513383
      6          8           0        0.146135    0.296408    1.516159
      7          6           0       -4.183364   -0.153964   -0.591200
      8          6           0       -4.923461    0.149768   -1.736171
      9          6           0       -4.831739   -0.817637    0.463045
     10          6           0       -6.269819   -0.180005   -1.827735
     11          1           0       -4.441461    0.657383   -2.564955
     12          6           0       -6.169730   -1.148130    0.385433
     13          1           0       -4.304896   -1.083367    1.372996
     14          6           0       -6.904559   -0.824126   -0.771631
     15          1           0       -6.836730    0.070627   -2.719434
     16          8           0       -8.214163   -1.157991   -0.784692
     17          1           0       -8.614834   -0.884725   -1.620108
     18          8           0       -6.783341   -1.754670    1.442091
     19          6           0       -7.084652   -3.132221    1.219957
     20          1           0       -6.167370   -3.695572    1.024911
     21          1           0       -7.547783   -3.498355    2.134486
     22          1           0       -7.778157   -3.254808    0.386083
     23          6           0        2.901960    0.023760   -0.311251
     24          1           0        2.070210   -0.666881   -0.428022
     25          6           0        2.651965    1.340889   -0.288612
     26          1           0        3.438926    2.073881   -0.138869
     27          6           0        1.306771    1.923231   -0.395724
     28          8           0        1.135695    3.113159   -0.210077
     29          6           0        4.206261   -0.622488   -0.172355
     30          6           0        4.274932   -2.017048   -0.210145
     31          6           0        5.401210    0.096705   -0.008053
     32          6           0        5.489128   -2.679684   -0.079678
     33          1           0        3.364897   -2.593817   -0.337572
     34          6           0        6.613315   -0.550105    0.126872
     35          1           0        5.408889    1.180413    0.030831
     36          6           0        6.664036   -1.956908    0.093736
     37          1           0        5.526917   -3.764793   -0.102921
     38          8           0        7.876929   -2.534860    0.245828
     39          1           0        7.788587   -3.496196    0.213909
     40          8           0        7.752705    0.173299    0.328313
     41          6           0        8.613999    0.215678   -0.808802
     42          1           0        8.101503    0.678545   -1.657335
     43          1           0        9.470193    0.825425   -0.525683
     44          1           0        8.954166   -0.784549   -1.083486
     45          6           0        0.108185    1.053337   -0.745032
     46          1           0        0.367707    0.230654   -1.416889
     47          1           0       -0.601696    1.690880   -1.270728
     48          8           0       -1.993892    3.711762   -0.124815
     49          8           0       -1.108705    3.684428    1.867451
     50          7           0       -1.402970    3.273244    0.801808
 ---------------------------------------------------------------------
 Rotational constants (GHZ):           0.2890362           0.0448744           0.0408796
 Standard basis: 6-311G(d) (5D, 7F)
 There are   630 symmetry adapted cartesian basis functions of A   symmetry.
 There are   600 symmetry adapted basis functions of A   symmetry.
   600 basis functions,  1060 primitive gaussians,   630 cartesian basis functions
   109 alpha electrons      108 beta electrons
       nuclear repulsion energy      2614.0772427448 Hartrees.
 NAtoms=   50 NActive=   50 NUniq=   50 SFac= 1.00D+00 NAtFMM=   60 NAOKFM=F Big=F
 Integral buffers will be    131072 words long.
 Raffenetti 2 integral format.
 Two-electron integral symmetry is turned on.
 Using the following non-standard input for PCM:
 Eps=7
 EpsInf=1.85341
 HbondAcidity=0
 HbondBasicity=0.48
 SurfaceTensionAtInterface=60.62
 CarbonAromaticity=0
 ElectronegativeHalogenicity=0
 --- end of non-standard input.
 ------------------------------------------------------------------------------
 Polarizable Continuum Model (PCM)
 =================================
 Model                : PCM.
 Atomic radii         : SMD-Coulomb.
 Polarization charges : Total charges.
 Charge compensation  : None.
 Solution method      : On-the-fly selection.
 Cavity type          : VdW (van der Waals Surface) (Alpha=1.000).
 Cavity algorithm     : GePol (No added spheres)
                        Default sphere list used, NSphG=   50.
                        Lebedev-Laikov grids with approx.  5.0 points / Ang**2.
                        Smoothing algorithm: York/Karplus (Gamma=1.0000).
                        Polarization charges: spherical gaussians, with
                                              point-specific exponents (IZeta= 3).
                        Self-potential: point-specific (ISelfS= 7).
                        Self-field    : sphere-specific E.n sum rule (ISelfD= 2).
 Solvent              : Generic,
                        Eps                           =   7.000000
                        Eps(infinity)                 =   1.853410
                        RSolv                         =   0.000000 Ang.
                        Molar volume                  =   0.000000 cm**3/mol
                        Thermal expansion coefficient =   0.000000 K**-1
                        Absolute temperature          = 298.150000 K
                        Numeral density               =   0.000000 Ang**-3
                        Hydrogen bond acidity         =   0.000000
                        Hydrogen bond basicity        =   0.480000
                        Surface tension at interface  =  60.620000 (cal/mol)*Ang**-2
                        Carbon aromaticity            =   0.000000
                        Electronegative halogenicity  =   0.000000
 ------------------------------------------------------------------------------
 ------------------------------------------------------------------------------
 Atomic radii for non-electrostatic terms: SMD-CDS.
 ------------------------------------------------------------------------------
 Nuclear repulsion after PCM non-electrostatic terms =     2614.0734810048 Hartrees.
 One-electron integrals computed using PRISM.
 NBasis=   600 RedAO= T EigKep=  1.71D-04  NBF=   600
 NBsUse=   600 1.00D-06 EigRej= -1.00D+00 NBFU=   600
 Initial guess from the checkpoint file:  "CURCUMIN-Reag-2-M062X-6-311G-D-298-NBO.chk"
 B after Tr=    -0.000000    0.000000   -0.000000
         Rot=    1.000000   -0.000000   -0.000000    0.000000 Ang=   0.00 deg.
 Initial guess <Sx>= 0.0000 <Sy>= 0.0000 <Sz>= 0.5000 <S**2>= 0.7547 S= 0.5023
 Requested convergence on RMS density matrix=1.00D-08 within 128 cycles.
 Requested convergence on MAX density matrix=1.00D-06.
 Requested convergence on             energy=1.00D-06.
 No special actions if energy rises.
 Inv3:  Mode=1 IEnd=    52894803.
 Iteration    1 A*A^-1 deviation from unit magnitude is 3.55D-15 for   3091.
 Iteration    1 A*A^-1 deviation from orthogonality  is 2.15D-15 for   1131    498.
 Iteration    1 A^-1*A deviation from unit magnitude is 3.77D-15 for   3091.
 Iteration    1 A^-1*A deviation from orthogonality  is 2.92D-15 for   1285   1283.
 Error on total polarization charges =  0.03458
 SCF Done:  E(UM062X) =  -1468.42156611     A.U. after    1 cycles
            NFock=  1  Conv=0.12D-08     -V/T= 2.0031
 <Sx>= 0.0000 <Sy>= 0.0000 <Sz>= 0.5000 <S**2>= 0.7547 S= 0.5023
 <L.S>=  0.00000000000    
 SMD-CDS (non-electrostatic) energy       (kcal/mol) =      -2.36
 (included in total energy above)
 Annihilation of the first spin contaminant:
 S**2 before annihilation     0.7547,   after     0.7500

 **********************************************************************

            Population analysis using the SCF density.

 **********************************************************************

 Orbital symmetries:
 Alpha Orbitals:
       Occupied  (A) (A) (A) (A) (A) (A) (A) (A) (A) (A) (A) (A)
                 (A) (A) (A) (A) (A) (A) (A) (A) (A) (A) (A) (A)
                 (A) (A) (A) (A) (A) (A) (A) (A) (A) (A) (A) (A)
                 (A) (A) (A) (A) (A) (A) (A) (A) (A) (A) (A) (A)
                 (A) (A) (A) (A) (A) (A) (A) (A) (A) (A) (A) (A)
                 (A) (A) (A) (A) (A) (A) (A) (A) (A) (A) (A) (A)
                 (A) (A) (A) (A) (A) (A) (A) (A) (A) (A) (A) (A)
                 (A) (A) (A) (A) (A) (A) (A) (A) (A) (A) (A) (A)
                 (A) (A) (A) (A) (A) (A) (A) (A) (A) (A) (A) (A)
                 (A)
       Virtual   (A) (A) (A) (A) (A) (A) (A) (A) (A) (A) (A) (A)
                 (A) (A) (A) (A) (A) (A) (A) (A) (A) (A) (A) (A)
                 (A) (A) (A) (A) (A) (A) (A) (A) (A) (A) (A) (A)
                 (A) (A) (A) (A) (A) (A) (A) (A) (A) (A) (A) (A)
                 (A) (A) (A) (A) (A) (A) (A) (A) (A) (A) (A) (A)
                 (A) (A) (A) (A) (A) (A) (A) (A) (A) (A) (A) (A)
                 (A) (A) (A) (A) (A) (A) (A) (A) (A) (A) (A) (A)
                 (A) (A) (A) (A) (A) (A) (A) (A) (A) (A) (A) (A)
                 (A) (A) (A) (A) (A) (A) (A) (A) (A) (A) (A) (A)
                 (A) (A) (A) (A) (A) (A) (A) (A) (A) (A) (A) (A)
                 (A) (A) (A) (A) (A) (A) (A) (A) (A) (A) (A) (A)
                 (A) (A) (A) (A) (A) (A) (A) (A) (A) (A) (A) (A)
                 (A) (A) (A) (A) (A) (A) (A) (A) (A) (A) (A) (A)
                 (A) (A) (A) (A) (A) (A) (A) (A) (A) (A) (A) (A)
                 (A) (A) (A) (A) (A) (A) (A) (A) (A) (A) (A) (A)
                 (A) (A) (A) (A) (A) (A) (A) (A) (A) (A) (A) (A)
                 (A) (A) (A) (A) (A) (A) (A) (A) (A) (A) (A) (A)
                 (A) (A) (A) (A) (A) (A) (A) (A) (A) (A) (A) (A)
                 (A) (A) (A) (A) (A) (A) (A) (A) (A) (A) (A) (A)
                 (A) (A) (A) (A) (A) (A) (A) (A) (A) (A) (A) (A)
                 (A) (A) (A) (A) (A) (A) (A) (A) (A) (A) (A) (A)
                 (A) (A) (A) (A) (A) (A) (A) (A) (A) (A) (A) (A)
                 (A) (A) (A) (A) (A) (A) (A) (A) (A) (A) (A) (A)
                 (A) (A) (A) (A) (A) (A) (A) (A) (A) (A) (A) (A)
                 (A) (A) (A) (A) (A) (A) (A) (A) (A) (A) (A) (A)
                 (A) (A) (A) (A) (A) (A) (A) (A) (A) (A) (A) (A)
                 (A) (A) (A) (A) (A) (A) (A) (A) (A) (A) (A) (A)
                 (A) (A) (A) (A) (A) (A) (A) (A) (A) (A) (A) (A)
                 (A) (A) (A) (A) (A) (A) (A) (A) (A) (A) (A) (A)
                 (A) (A) (A) (A) (A) (A) (A) (A) (A) (A) (A) (A)
                 (A) (A) (A) (A) (A) (A) (A) (A) (A) (A) (A) (A)
                 (A) (A) (A) (A) (A) (A) (A) (A) (A) (A) (A) (A)
                 (A) (A) (A) (A) (A) (A) (A) (A) (A) (A) (A) (A)
                 (A) (A) (A) (A) (A) (A) (A) (A) (A) (A) (A) (A)
                 (A) (A) (A) (A) (A) (A) (A) (A) (A) (A) (A) (A)
                 (A) (A) (A) (A) (A) (A) (A) (A) (A) (A) (A) (A)
                 (A) (A) (A) (A) (A) (A) (A) (A) (A) (A) (A) (A)
                 (A) (A) (A) (A) (A) (A) (A) (A) (A) (A) (A) (A)
                 (A) (A) (A) (A) (A) (A) (A) (A) (A) (A) (A) (A)
                 (A) (A) (A) (A) (A) (A) (A) (A) (A) (A) (A) (A)
                 (A) (A) (A) (A) (A) (A) (A) (A) (A) (A) (A)
 Beta  Orbitals:
       Occupied  (A) (A) (A) (A) (A) (A) (A) (A) (A) (A) (A) (A)
                 (A) (A) (A) (A) (A) (A) (A) (A) (A) (A) (A) (A)
                 (A) (A) (A) (A) (A) (A) (A) (A) (A) (A) (A) (A)
                 (A) (A) (A) (A) (A) (A) (A) (A) (A) (A) (A) (A)
                 (A) (A) (A) (A) (A) (A) (A) (A) (A) (A) (A) (A)
                 (A) (A) (A) (A) (A) (A) (A) (A) (A) (A) (A) (A)
                 (A) (A) (A) (A) (A) (A) (A) (A) (A) (A) (A) (A)
                 (A) (A) (A) (A) (A) (A) (A) (A) (A) (A) (A) (A)
                 (A) (A) (A) (A) (A) (A) (A) (A) (A) (A) (A) (A)
       Virtual   (A) (A) (A) (A) (A) (A) (A) (A) (A) (A) (A) (A)
                 (A) (A) (A) (A) (A) (A) (A) (A) (A) (A) (A) (A)
                 (A) (A) (A) (A) (A) (A) (A) (A) (A) (A) (A) (A)
                 (A) (A) (A) (A) (A) (A) (A) (A) (A) (A) (A) (A)
                 (A) (A) (A) (A) (A) (A) (A) (A) (A) (A) (A) (A)
                 (A) (A) (A) (A) (A) (A) (A) (A) (A) (A) (A) (A)
                 (A) (A) (A) (A) (A) (A) (A) (A) (A) (A) (A) (A)
                 (A) (A) (A) (A) (A) (A) (A) (A) (A) (A) (A) (A)
                 (A) (A) (A) (A) (A) (A) (A) (A) (A) (A) (A) (A)
                 (A) (A) (A) (A) (A) (A) (A) (A) (A) (A) (A) (A)
                 (A) (A) (A) (A) (A) (A) (A) (A) (A) (A) (A) (A)
                 (A) (A) (A) (A) (A) (A) (A) (A) (A) (A) (A) (A)
                 (A) (A) (A) (A) (A) (A) (A) (A) (A) (A) (A) (A)
                 (A) (A) (A) (A) (A) (A) (A) (A) (A) (A) (A) (A)
                 (A) (A) (A) (A) (A) (A) (A) (A) (A) (A) (A) (A)
                 (A) (A) (A) (A) (A) (A) (A) (A) (A) (A) (A) (A)
                 (A) (A) (A) (A) (A) (A) (A) (A) (A) (A) (A) (A)
                 (A) (A) (A) (A) (A) (A) (A) (A) (A) (A) (A) (A)
                 (A) (A) (A) (A) (A) (A) (A) (A) (A) (A) (A) (A)
                 (A) (A) (A) (A) (A) (A) (A) (A) (A) (A) (A) (A)
                 (A) (A) (A) (A) (A) (A) (A) (A) (A) (A) (A) (A)
                 (A) (A) (A) (A) (A) (A) (A) (A) (A) (A) (A) (A)
                 (A) (A) (A) (A) (A) (A) (A) (A) (A) (A) (A) (A)
                 (A) (A) (A) (A) (A) (A) (A) (A) (A) (A) (A) (A)
                 (A) (A) (A) (A) (A) (A) (A) (A) (A) (A) (A) (A)
                 (A) (A) (A) (A) (A) (A) (A) (A) (A) (A) (A) (A)
                 (A) (A) (A) (A) (A) (A) (A) (A) (A) (A) (A) (A)
                 (A) (A) (A) (A) (A) (A) (A) (A) (A) (A) (A) (A)
                 (A) (A) (A) (A) (A) (A) (A) (A) (A) (A) (A) (A)
                 (A) (A) (A) (A) (A) (A) (A) (A) (A) (A) (A) (A)
                 (A) (A) (A) (A) (A) (A) (A) (A) (A) (A) (A) (A)
                 (A) (A) (A) (A) (A) (A) (A) (A) (A) (A) (A) (A)
                 (A) (A) (A) (A) (A) (A) (A) (A) (A) (A) (A) (A)
                 (A) (A) (A) (A) (A) (A) (A) (A) (A) (A) (A) (A)
                 (A) (A) (A) (A) (A) (A) (A) (A) (A) (A) (A) (A)
                 (A) (A) (A) (A) (A) (A) (A) (A) (A) (A) (A) (A)
                 (A) (A) (A) (A) (A) (A) (A) (A) (A) (A) (A) (A)
                 (A) (A) (A) (A) (A) (A) (A) (A) (A) (A) (A) (A)
                 (A) (A) (A) (A) (A) (A) (A) (A) (A) (A) (A) (A)
                 (A) (A) (A) (A) (A) (A) (A) (A) (A) (A) (A) (A)
                 (A) (A) (A) (A) (A) (A) (A) (A) (A) (A) (A) (A)
 The electronic state is 2-A.
 Alpha  occ. eigenvalues --  -19.72249 -19.72039 -19.66024 -19.65872 -19.63582
 Alpha  occ. eigenvalues --  -19.63440 -19.61123 -19.60890 -14.99502 -10.63542
 Alpha  occ. eigenvalues --  -10.63047 -10.61747 -10.61561 -10.60178 -10.59997
 Alpha  occ. eigenvalues --  -10.57374 -10.57281 -10.56796 -10.56384 -10.55782
 Alpha  occ. eigenvalues --  -10.55566 -10.55325 -10.55132 -10.55038 -10.54979
 Alpha  occ. eigenvalues --  -10.54844 -10.54824 -10.54579 -10.54518 -10.54017
 Alpha  occ. eigenvalues --   -1.42212  -1.26118  -1.20627  -1.20462  -1.17524
 Alpha  occ. eigenvalues --   -1.17392  -1.17381  -1.16447  -0.97537  -0.97321
 Alpha  occ. eigenvalues --   -0.91490  -0.90817  -0.86703  -0.85914  -0.85739
 Alpha  occ. eigenvalues --   -0.84179  -0.82119  -0.78043  -0.77906  -0.77057
 Alpha  occ. eigenvalues --   -0.75227  -0.74529  -0.71292  -0.70379  -0.67479
 Alpha  occ. eigenvalues --   -0.66950  -0.66725  -0.65637  -0.65442  -0.64241
 Alpha  occ. eigenvalues --   -0.63450  -0.62917  -0.60274  -0.58917  -0.58719
 Alpha  occ. eigenvalues --   -0.58387  -0.57593  -0.55593  -0.55024  -0.54633
 Alpha  occ. eigenvalues --   -0.54191  -0.54104  -0.54035  -0.52043  -0.51304
 Alpha  occ. eigenvalues --   -0.50967  -0.50806  -0.50399  -0.49799  -0.49488
 Alpha  occ. eigenvalues --   -0.49280  -0.48766  -0.48443  -0.47398  -0.46214
 Alpha  occ. eigenvalues --   -0.46010  -0.44650  -0.44363  -0.44281  -0.43899
 Alpha  occ. eigenvalues --   -0.43779  -0.43618  -0.43491  -0.43107  -0.42758
 Alpha  occ. eigenvalues --   -0.42456  -0.40586  -0.40457  -0.35643  -0.35340
 Alpha  occ. eigenvalues --   -0.35202  -0.35030  -0.34710  -0.33342  -0.32071
 Alpha  occ. eigenvalues --   -0.30923  -0.30743  -0.26985  -0.26755
 Alpha virt. eigenvalues --   -0.03910  -0.03638  -0.01470   0.02094   0.02259
 Alpha virt. eigenvalues --    0.05027   0.05336   0.07315   0.07407   0.08802
 Alpha virt. eigenvalues --    0.09618   0.10170   0.10439   0.10963   0.11133
 Alpha virt. eigenvalues --    0.11761   0.12230   0.12475   0.13795   0.15384
 Alpha virt. eigenvalues --    0.15942   0.16037   0.16135   0.16520   0.16828
 Alpha virt. eigenvalues --    0.18091   0.18342   0.19023   0.20090   0.20225
 Alpha virt. eigenvalues --    0.20938   0.21811   0.22032   0.23330   0.24206
 Alpha virt. eigenvalues --    0.26417   0.26694   0.27655   0.28469   0.29492
 Alpha virt. eigenvalues --    0.29887   0.30312   0.30968   0.31204   0.31722
 Alpha virt. eigenvalues --    0.32601   0.33903   0.34214   0.34775   0.34890
 Alpha virt. eigenvalues --    0.35592   0.36278   0.36871   0.37265   0.38429
 Alpha virt. eigenvalues --    0.39709   0.39820   0.40114   0.40417   0.40764
 Alpha virt. eigenvalues --    0.41100   0.41294   0.41893   0.42443   0.42880
 Alpha virt. eigenvalues --    0.43097   0.43720   0.44179   0.44600   0.44854
 Alpha virt. eigenvalues --    0.45367   0.46056   0.46814   0.47076   0.47572
 Alpha virt. eigenvalues --    0.47808   0.48136   0.48683   0.49343   0.49692
 Alpha virt. eigenvalues --    0.50211   0.50259   0.51003   0.51065   0.51323
 Alpha virt. eigenvalues --    0.51825   0.52677   0.53467   0.53645   0.54642
 Alpha virt. eigenvalues --    0.54759   0.55733   0.56461   0.56820   0.57180
 Alpha virt. eigenvalues --    0.57248   0.57625   0.58903   0.59147   0.59578
 Alpha virt. eigenvalues --    0.60615   0.60902   0.61277   0.62145   0.62360
 Alpha virt. eigenvalues --    0.62809   0.63117   0.63557   0.63642   0.64053
 Alpha virt. eigenvalues --    0.64267   0.64737   0.65423   0.65783   0.66068
 Alpha virt. eigenvalues --    0.66623   0.66991   0.67493   0.67911   0.68175
 Alpha virt. eigenvalues --    0.68538   0.69199   0.69666   0.70165   0.70321
 Alpha virt. eigenvalues --    0.70993   0.72030   0.72420   0.73142   0.74098
 Alpha virt. eigenvalues --    0.76014   0.76572   0.77445   0.78241   0.79424
 Alpha virt. eigenvalues --    0.79567   0.79813   0.79986   0.80440   0.81905
 Alpha virt. eigenvalues --    0.82643   0.83378   0.83605   0.83709   0.84144
 Alpha virt. eigenvalues --    0.84209   0.84681   0.85169   0.85615   0.86057
 Alpha virt. eigenvalues --    0.86275   0.87012   0.87313   0.88335   0.89612
 Alpha virt. eigenvalues --    0.89758   0.90000   0.90705   0.92442   0.93569
 Alpha virt. eigenvalues --    0.94263   0.94490   0.94757   0.95080   0.95487
 Alpha virt. eigenvalues --    0.96960   0.98315   0.98993   0.99280   1.00165
 Alpha virt. eigenvalues --    1.00969   1.01110   1.02025   1.02170   1.03576
 Alpha virt. eigenvalues --    1.03800   1.05724   1.06213   1.07741   1.08408
 Alpha virt. eigenvalues --    1.09085   1.09309   1.09912   1.10748   1.13000
 Alpha virt. eigenvalues --    1.13088   1.15066   1.15627   1.16466   1.18316
 Alpha virt. eigenvalues --    1.18893   1.19326   1.19834   1.20337   1.20357
 Alpha virt. eigenvalues --    1.21081   1.22687   1.24235   1.24664   1.25195
 Alpha virt. eigenvalues --    1.27490   1.27655   1.28013   1.28434   1.29013
 Alpha virt. eigenvalues --    1.31716   1.32392   1.33378   1.34048   1.37086
 Alpha virt. eigenvalues --    1.38078   1.40415   1.40946   1.41394   1.41712
 Alpha virt. eigenvalues --    1.45626   1.47959   1.48061   1.49874   1.50460
 Alpha virt. eigenvalues --    1.50736   1.51377   1.53011   1.54449   1.54865
 Alpha virt. eigenvalues --    1.55245   1.56322   1.56405   1.57008   1.57328
 Alpha virt. eigenvalues --    1.57932   1.57983   1.59251   1.59753   1.60539
 Alpha virt. eigenvalues --    1.60847   1.61984   1.62883   1.63020   1.64787
 Alpha virt. eigenvalues --    1.66656   1.67271   1.68287   1.69593   1.71219
 Alpha virt. eigenvalues --    1.72368   1.73101   1.73420   1.74290   1.74590
 Alpha virt. eigenvalues --    1.75520   1.75672   1.75901   1.77015   1.78186
 Alpha virt. eigenvalues --    1.78921   1.79252   1.80242   1.80883   1.81107
 Alpha virt. eigenvalues --    1.83111   1.83968   1.84049   1.84860   1.85454
 Alpha virt. eigenvalues --    1.86265   1.87278   1.88132   1.88593   1.89150
 Alpha virt. eigenvalues --    1.90658   1.91441   1.92981   1.94641   1.94801
 Alpha virt. eigenvalues --    1.96544   1.99051   1.99861   2.00667   2.01367
 Alpha virt. eigenvalues --    2.03483   2.06727   2.07113   2.07425   2.08988
 Alpha virt. eigenvalues --    2.13046   2.13665   2.15620   2.16689   2.18000
 Alpha virt. eigenvalues --    2.18834   2.20185   2.20922   2.22055   2.24385
 Alpha virt. eigenvalues --    2.26520   2.28446   2.28803   2.31787   2.32180
 Alpha virt. eigenvalues --    2.33678   2.34666   2.34936   2.35087   2.35581
 Alpha virt. eigenvalues --    2.36309   2.37596   2.37729   2.39571   2.40923
 Alpha virt. eigenvalues --    2.41703   2.44958   2.45040   2.45834   2.46062
 Alpha virt. eigenvalues --    2.48140   2.49686   2.54797   2.55711   2.56769
 Alpha virt. eigenvalues --    2.57947   2.58600   2.58746   2.65307   2.66290
 Alpha virt. eigenvalues --    2.67552   2.68005   2.70892   2.72417   2.72663
 Alpha virt. eigenvalues --    2.73611   2.73793   2.74976   2.78855   2.79225
 Alpha virt. eigenvalues --    2.80879   2.81570   2.82347   2.82991   2.83807
 Alpha virt. eigenvalues --    2.83996   2.84372   2.89425   2.89630   2.89994
 Alpha virt. eigenvalues --    2.90731   2.91425   2.93503   2.93809   2.96922
 Alpha virt. eigenvalues --    2.97796   2.98635   2.99642   3.00637   3.01219
 Alpha virt. eigenvalues --    3.02233   3.02669   3.03595   3.04009   3.05412
 Alpha virt. eigenvalues --    3.05687   3.07362   3.08140   3.09846   3.10170
 Alpha virt. eigenvalues --    3.10415   3.12771   3.16006   3.16370   3.16496
 Alpha virt. eigenvalues --    3.20657   3.20975   3.21972   3.22070   3.22407
 Alpha virt. eigenvalues --    3.22617   3.24290   3.24589   3.25048   3.25451
 Alpha virt. eigenvalues --    3.25727   3.26037   3.30515   3.32729   3.32909
 Alpha virt. eigenvalues --    3.34635   3.36077   3.36360   3.36503   3.36751
 Alpha virt. eigenvalues --    3.38290   3.39449   3.39655   3.39964   3.40001
 Alpha virt. eigenvalues --    3.40118   3.41685   3.42134   3.45059   3.45622
 Alpha virt. eigenvalues --    3.46913   3.51637   3.52152   3.52371   3.53524
 Alpha virt. eigenvalues --    3.54513   3.54845   3.56070   3.58483   3.59962
 Alpha virt. eigenvalues --    3.61004   3.64485   3.66192   3.69696   3.70418
 Alpha virt. eigenvalues --    3.77010   3.77268   3.80363   3.81368   3.93669
 Alpha virt. eigenvalues --    3.93864   3.94744   3.95129   3.95685   3.99406
 Alpha virt. eigenvalues --    4.00280   4.04640   4.05663   4.12591   4.13223
 Alpha virt. eigenvalues --    4.13343   4.18301   4.46138   4.48997   4.54540
 Alpha virt. eigenvalues --    4.81927   4.82116   4.90509   4.90830   4.92034
 Alpha virt. eigenvalues --    4.94361   4.94467   4.98555   5.03833   5.07132
 Alpha virt. eigenvalues --    5.09307   5.09372   5.19901   5.20118   5.24231
 Alpha virt. eigenvalues --    5.24364   5.29496   5.29672   5.50508   5.60557
 Alpha virt. eigenvalues --    5.60641   5.70942   5.72962   5.77920   5.78011
 Alpha virt. eigenvalues --    6.01879  23.32551  23.34180  23.52385  23.52515
 Alpha virt. eigenvalues --   23.63207  23.65026  23.81323  23.88214  23.88456
 Alpha virt. eigenvalues --   23.89817  23.94102  23.94383  23.95307  24.08268
 Alpha virt. eigenvalues --   24.08504  24.13948  24.14103  24.20582  24.20768
 Alpha virt. eigenvalues --   24.24922  24.25644  35.40984  49.87161  49.98509
 Alpha virt. eigenvalues --   49.98664  49.99693  50.04760  50.04908  50.09003
 Alpha virt. eigenvalues --   50.11739
  Beta  occ. eigenvalues --  -19.71530 -19.71362 -19.66022 -19.65872 -19.63583
  Beta  occ. eigenvalues --  -19.63440 -19.61115 -19.60871 -14.98589 -10.63540
  Beta  occ. eigenvalues --  -10.63047 -10.61745 -10.61561 -10.60178 -10.59997
  Beta  occ. eigenvalues --  -10.57374 -10.57281 -10.56791 -10.56384 -10.55783
  Beta  occ. eigenvalues --  -10.55566 -10.55324 -10.55132 -10.55037 -10.54980
  Beta  occ. eigenvalues --  -10.54844 -10.54824 -10.54577 -10.54517 -10.54016
  Beta  occ. eigenvalues --   -1.39872  -1.23542  -1.20623  -1.20462  -1.17524
  Beta  occ. eigenvalues --   -1.17381  -1.17371  -1.16416  -0.97532  -0.97321
  Beta  occ. eigenvalues --   -0.91483  -0.90812  -0.86699  -0.85913  -0.85739
  Beta  occ. eigenvalues --   -0.84175  -0.82112  -0.78042  -0.77906  -0.75248
  Beta  occ. eigenvalues --   -0.74528  -0.72835  -0.71283  -0.70370  -0.66945
  Beta  occ. eigenvalues --   -0.66721  -0.64286  -0.63867  -0.63433  -0.62931
  Beta  occ. eigenvalues --   -0.62544  -0.62195  -0.60241  -0.58910  -0.58710
  Beta  occ. eigenvalues --   -0.58380  -0.57575  -0.55537  -0.54999  -0.54626
  Beta  occ. eigenvalues --   -0.54188  -0.54092  -0.54029  -0.52033  -0.51278
  Beta  occ. eigenvalues --   -0.50964  -0.50796  -0.50387  -0.49794  -0.49470
  Beta  occ. eigenvalues --   -0.49250  -0.48757  -0.48439  -0.47369  -0.45996
  Beta  occ. eigenvalues --   -0.44656  -0.44350  -0.44338  -0.43889  -0.43789
  Beta  occ. eigenvalues --   -0.43586  -0.43250  -0.42819  -0.42692  -0.42449
  Beta  occ. eigenvalues --   -0.40615  -0.40457  -0.40191  -0.35531  -0.35288
  Beta  occ. eigenvalues --   -0.35166  -0.34947  -0.33462  -0.32134  -0.30922
  Beta  occ. eigenvalues --   -0.30743  -0.27019  -0.26757
  Beta virt. eigenvalues --   -0.08137  -0.03666  -0.03536   0.00516   0.02105
  Beta virt. eigenvalues --    0.02261   0.05043   0.05356   0.07316   0.07407
  Beta virt. eigenvalues --    0.08819   0.09625   0.10169   0.10440   0.10968
  Beta virt. eigenvalues --    0.11142   0.11765   0.12224   0.12477   0.13799
  Beta virt. eigenvalues --    0.15397   0.15945   0.16037   0.16135   0.16522
  Beta virt. eigenvalues --    0.16855   0.18097   0.18347   0.19027   0.20103
  Beta virt. eigenvalues --    0.20229   0.20943   0.21829   0.22033   0.23389
  Beta virt. eigenvalues --    0.24225   0.26436   0.26696   0.27717   0.28536
  Beta virt. eigenvalues --    0.29505   0.29950   0.30734   0.31099   0.31330
  Beta virt. eigenvalues --    0.31901   0.32656   0.33974   0.34267   0.34872
  Beta virt. eigenvalues --    0.34921   0.35653   0.36287   0.36934   0.37288
  Beta virt. eigenvalues --    0.38733   0.39734   0.39886   0.40248   0.40421
  Beta virt. eigenvalues --    0.40801   0.41102   0.41337   0.41923   0.42546
  Beta virt. eigenvalues --    0.42900   0.43103   0.43855   0.44197   0.44619
  Beta virt. eigenvalues --    0.45106   0.45383   0.46122   0.46941   0.47107
  Beta virt. eigenvalues --    0.47630   0.47960   0.48416   0.48690   0.49446
  Beta virt. eigenvalues --    0.49738   0.50257   0.50337   0.51050   0.51086
  Beta virt. eigenvalues --    0.51336   0.51894   0.52703   0.53565   0.53681
  Beta virt. eigenvalues --    0.54717   0.55218   0.56003   0.56505   0.56921
  Beta virt. eigenvalues --    0.57227   0.57299   0.57641   0.58934   0.59256
  Beta virt. eigenvalues --    0.59646   0.60648   0.61068   0.61551   0.62175
  Beta virt. eigenvalues --    0.62418   0.62834   0.63195   0.63573   0.63705
  Beta virt. eigenvalues --    0.64057   0.64351   0.64776   0.65436   0.65810
  Beta virt. eigenvalues --    0.66102   0.66821   0.67143   0.67513   0.67943
  Beta virt. eigenvalues --    0.68246   0.68557   0.69332   0.69681   0.70164
  Beta virt. eigenvalues --    0.70335   0.71000   0.72143   0.72539   0.73190
  Beta virt. eigenvalues --    0.74121   0.76080   0.76607   0.77470   0.78584
  Beta virt. eigenvalues --    0.79445   0.79657   0.79965   0.80343   0.80719
  Beta virt. eigenvalues --    0.82065   0.82961   0.83649   0.83778   0.84020
  Beta virt. eigenvalues --    0.84401   0.84690   0.84912   0.85337   0.85688
  Beta virt. eigenvalues --    0.86331   0.86575   0.87085   0.87427   0.88400
  Beta virt. eigenvalues --    0.89617   0.89806   0.90049   0.90754   0.92553
  Beta virt. eigenvalues --    0.93621   0.94362   0.94568   0.95092   0.95424
  Beta virt. eigenvalues --    0.95922   0.97017   0.98362   0.99013   0.99293
  Beta virt. eigenvalues --    1.00176   1.01004   1.01195   1.02107   1.02206
  Beta virt. eigenvalues --    1.03601   1.03816   1.05716   1.06275   1.07742
  Beta virt. eigenvalues --    1.08423   1.09095   1.09336   1.09949   1.10763
  Beta virt. eigenvalues --    1.13034   1.14072   1.15070   1.15685   1.16629
  Beta virt. eigenvalues --    1.18331   1.18894   1.19336   1.19836   1.20350
  Beta virt. eigenvalues --    1.20360   1.21111   1.22706   1.24248   1.24698
  Beta virt. eigenvalues --    1.25203   1.27497   1.27661   1.28039   1.28439
  Beta virt. eigenvalues --    1.29095   1.31725   1.32405   1.33376   1.34043
  Beta virt. eigenvalues --    1.37106   1.38108   1.40448   1.40973   1.41400
  Beta virt. eigenvalues --    1.41719   1.46331   1.48020   1.48130   1.49903
  Beta virt. eigenvalues --    1.50467   1.50742   1.51389   1.53139   1.54465
  Beta virt. eigenvalues --    1.54870   1.55252   1.56335   1.56443   1.57030
  Beta virt. eigenvalues --    1.57346   1.57943   1.58021   1.59263   1.59779
  Beta virt. eigenvalues --    1.60621   1.60892   1.62093   1.62901   1.63068
  Beta virt. eigenvalues --    1.64928   1.66711   1.67277   1.68419   1.69637
  Beta virt. eigenvalues --    1.71298   1.72403   1.73105   1.73452   1.74306
[...]
   383. RY*(   6) C  31                  0.00011     3.16471   
   384. RY*(   7) C  31                  0.00004     4.19708   
   385. RY*(   8) C  31                  0.00005     2.29398   
   386. RY*(   9) C  31                  0.00002     1.68986   
   387. RY*(  10) C  31                  0.00002     2.54730   
   388. RY*(  11) C  31                  0.00000    21.17449   
   389. RY*(  12) C  31                  0.00000     2.66237   
   390. RY*(  13) C  31                  0.00001     2.24037   
   391. RY*(   1) C  32                  0.00244     1.43485   
   392. RY*(   2) C  32                  0.00109     1.44511   
   393. RY*(   3) C  32                  0.00046     0.74157   
   394. RY*(   4) C  32                  0.00035     1.14564   
   395. RY*(   5) C  32                  0.00024     1.57943   
   396. RY*(   6) C  32                  0.00010     3.34145   
   397. RY*(   7) C  32                  0.00005     4.80251   
   398. RY*(   8) C  32                  0.00003     1.70037   
   399. RY*(   9) C  32                  0.00003     3.65794   
   400. RY*(  10) C  32                  0.00001     2.57095   
   401. RY*(  11) C  32                  0.00001     2.09336   
   402. RY*(  12) C  32                  0.00000     2.65255   
   403. RY*(  13) C  32                  0.00000    18.73930   
   404. RY*(   1) H  33                  0.00074     0.47711   
   405. RY*(   2) H  33                  0.00011     2.29363   
   406. RY*(   1) C  34                  0.00305     1.52982   
   407. RY*(   2) C  34                  0.00195     1.33536   
   408. RY*(   3) C  34                  0.00172     1.31040   
   409. RY*(   4) C  34                  0.00087     2.61313   
   410. RY*(   5) C  34                  0.00077     1.20928   
   411. RY*(   6) C  34                  0.00029     1.71673   
   412. RY*(   7) C  34                  0.00025     1.71417   
   413. RY*(   8) C  34                  0.00008     2.98614   
   414. RY*(   9) C  34                  0.00005     2.44499   
   415. RY*(  10) C  34                  0.00002     2.40922   
   416. RY*(  11) C  34                  0.00002     2.68325   
   417. RY*(  12) C  34                  0.00001     2.75689   
   418. RY*(  13) C  34                  0.00001    21.80273   
   419. RY*(   1) H  35                  0.00114     0.49376   
   420. RY*(   2) H  35                  0.00015     2.28936   
   421. RY*(   1) C  36                  0.00322     1.34545   
   422. RY*(   2) C  36                  0.00166     1.60863   
   423. RY*(   3) C  36                  0.00136     1.52061   
   424. RY*(   4) C  36                  0.00077     2.33149   
   425. RY*(   5) C  36                  0.00042     2.02483   
   426. RY*(   6) C  36                  0.00034     1.69630   
   427. RY*(   7) C  36                  0.00026     0.63488   
   428. RY*(   8) C  36                  0.00012     3.84830   
   429. RY*(   9) C  36                  0.00003     2.34995   
   430. RY*(  10) C  36                  0.00004     5.21257   
   431. RY*(  11) C  36                  0.00001    18.22996   
   432. RY*(  12) C  36                  0.00001     2.15135   
   433. RY*(  13) C  36                  0.00000     2.69812   
   434. RY*(   1) H  37                  0.00106     0.42241   
   435. RY*(   2) H  37                  0.00010     2.27476   
   436. RY*(   1) O  38                  0.00103     0.98421   
   437. RY*(   2) O  38                  0.00064     1.42771   
   438. RY*(   3) O  38                  0.00011     1.84895   
   439. RY*(   4) O  38                  0.00006     1.38238   
   440. RY*(   5) O  38                  0.00000    49.72160   
   441. RY*(   6) O  38                  0.00000     5.13710   
   442. RY*(   7) O  38                  0.00001     5.13955   
   443. RY*(   8) O  38                  0.00000     4.90786   
   444. RY*(   9) O  38                  0.00001     3.21329   
   445. RY*(  10) O  38                  0.00000     2.97494   
   446. RY*(  11) O  38                  0.00000     2.79181   
   447. RY*(  12) O  38                  0.00000     3.02613   
   448. RY*(  13) O  38                  0.00000     3.22065   
   449. RY*(   1) H  39                  0.00038     1.18593   
   450. RY*(   2) H  39                  0.00019     1.47990   
   451. RY*(   1) O  40                  0.00186     1.13884   
   452. RY*(   2) O  40                  0.00117     1.19980   
   453. RY*(   3) O  40                  0.00021     1.77376   
   454. RY*(   4) O  40                  0.00010     2.20349   
   455. RY*(   5) O  40                  0.00006     3.06389   
   456. RY*(   6) O  40                  0.00003     2.97723   
   457. RY*(   7) O  40                  0.00001     5.27451   
   458. RY*(   8) O  40                  0.00000     5.10659   
   459. RY*(   9) O  40                  0.00000    49.77020   
   460. RY*(  10) O  40                  0.00000     3.04465   
   461. RY*(  11) O  40                  0.00000     3.11431   
   462. RY*(  12) O  40                  0.00001     3.23709   
   463. RY*(  13) O  40                  0.00000     5.06495   
   464. RY*(   1) C  41                  0.00119     1.41172   
   465. RY*(   2) C  41                  0.00111     1.41686   
   466. RY*(   3) C  41                  0.00071     0.94432   
   467. RY*(   4) C  41                  0.00025     1.04163   
   468. RY*(   5) C  41                  0.00011     1.17639   
   469. RY*(   6) C  41                  0.00004     2.22204   
   470. RY*(   7) C  41                  0.00000     1.39330   
   471. RY*(   8) C  41                  0.00000     2.17585   
   472. RY*(   9) C  41                  0.00001     2.63732   
   473. RY*(  10) C  41                  0.00000     1.79397   
   474. RY*(  11) C  41                  0.00000    23.21710   
   475. RY*(  12) C  41                  0.00000     1.71225   
   476. RY*(  13) C  41                  0.00000     2.75564   
   477. RY*(   1) H  42                  0.00083     0.44307   
   478. RY*(   2) H  42                  0.00006     2.13904   
   479. RY*(   1) H  43                  0.00042     0.43230   
   480. RY*(   2) H  43                  0.00005     2.05094   
   481. RY*(   1) H  44                  0.00084     0.52359   
   482. RY*(   2) H  44                  0.00007     2.07547   
   483. RY*(   1) C  45                  0.00217     0.99921   
   484. RY*(   2) C  45                  0.00157     0.84267   
   485. RY*(   3) C  45                  0.00086     1.28058   
   486. RY*(   4) C  45                  0.00047     0.93227   
   487. RY*(   5) C  45                  0.00011     2.97190   
   488. RY*(   6) C  45                  0.00011     2.10128   
   489. RY*(   7) C  45                  0.00008     2.37867   
   490. RY*(   8) C  45                  0.00005     2.29493   
   491. RY*(   9) C  45                  0.00003     2.71930   
   492. RY*(  10) C  45                  0.00001     2.71369   
   493. RY*(  11) C  45                  0.00002     2.39890   
   494. RY*(  12) C  45                  0.00002     1.90574   
   495. RY*(  13) C  45                  0.00000    22.79963   
   496. RY*(   1) H  46                  0.00060     0.72724   
   497. RY*(   2) H  46                  0.00007     1.98825   
   498. RY*(   1) H  47                  0.00161     0.59304   
   499. RY*(   2) H  47                  0.00007     2.29624   
   539. BD*(   1) C   1 - H   2          0.00809     0.50984   
   540. BD*(   1) C   1 - C   3          0.00727     0.71073   
   541. BD*(   2) C   1 - C   3          0.05469     0.08154   
   542. BD*(   1) C   1 - C   7          0.01307     0.55213   
   543. BD*(   1) C   3 - H   4          0.00803     0.51348   
   544. BD*(   1) C   3 - C   5          0.02654     0.51995   
   545. BD*(   1) C   5 - O   6          0.00603     0.67998   
   546. BD*(   2) C   5 - O   6          0.07651     0.06872   
   547. BD*(   1) C   5 - C  45          0.03226     0.43438   
   548. BD*(   1) C   7 - C   8          0.01162     0.62854   
   549. BD*(   2) C   7 - C   8          0.19403     0.05915  554(v),557(v),541(v),180(g)
                                                    167(g),206(v),111(v),168(g)
   550. BD*(   1) C   7 - C   9          0.01321     0.62133   
   551. BD*(   1) C   8 - C  10          0.00710     0.63642   
   552. BD*(   1) C   8 - H  11          0.00675     0.52056   
   553. BD*(   1) C   9 - C  12          0.01272     0.64401   
   554. BD*(   2) C   9 - C  12          0.15811     0.06327  549(v),557(v),195(g),563(v)
                                                    223(g),224(g)
   555. BD*(   1) C   9 - H  13          0.00640     0.51656   
   556. BD*(   1) C  10 - C  14          0.01307     0.61820   
   557. BD*(   2) C  10 - C  14          0.18534     0.05082  549(v),554(v),240(g),206(g)
                                                    208(g),249(v)
   558. BD*(   1) C  10 - H  15          0.00659     0.50692   
   559. BD*(   1) C  12 - C  14          0.02297     0.58800   
   560. BD*(   1) C  12 - O  18          0.01348     0.44031   
   561. BD*(   1) C  14 - O  16          0.01048     0.42872   
   562. BD*(   1) O  16 - H  17          0.00352     0.46435   
   563. BD*(   1) O  18 - C  19          0.00443     0.36432   
   564. BD*(   1) C  19 - H  20          0.00805     0.46668   
   565. BD*(   1) C  19 - H  21          0.00439     0.48383   
   566. BD*(   1) C  19 - H  22          0.00845     0.47581   
   567. BD*(   1) C  23 - H  24          0.00805     0.51201   
   568. BD*(   1) C  23 - C  25          0.00717     0.71505   
   569. BD*(   2) C  23 - C  25          0.05266     0.08858   
   570. BD*(   1) C  23 - C  29          0.01309     0.55564   
   571. BD*(   1) C  25 - H  26          0.00811     0.51573   
   572. BD*(   1) C  25 - C  27          0.02598     0.53107   
   573. BD*(   1) C  27 - O  28          0.00600     0.67968   
   574. BD*(   2) C  27 - O  28          0.07152     0.07416   
   575. BD*(   1) C  27 - C  45          0.02870     0.44544   
   576. BD*(   1) C  29 - C  30          0.01162     0.63057   
   577. BD*(   2) C  29 - C  30          0.19348     0.06136  582(v),585(v),569(v),367(g)
                                                    354(g),393(v),355(g),298(v)
   578. BD*(   1) C  29 - C  31          0.01320     0.62345   
   579. BD*(   1) C  30 - C  32          0.00711     0.63781   
   580. BD*(   1) C  30 - H  33          0.00676     0.52193   
   581. BD*(   1) C  31 - C  34          0.01272     0.64568   
   582. BD*(   2) C  31 - C  34          0.15883     0.06497  577(v),585(v),382(g),591(v)
                                                    410(g),411(g)
   583. BD*(   1) C  31 - H  35          0.00640     0.51852   
   584. BD*(   1) C  32 - C  36          0.01308     0.61989   
   585. BD*(   2) C  32 - C  36          0.18588     0.05230  577(v),582(v),427(g),393(g)
                                                    395(g),436(v)
   586. BD*(   1) C  32 - H  37          0.00661     0.50795   
   587. BD*(   1) C  34 - C  36          0.02293     0.59016   
   588. BD*(   1) C  34 - O  40          0.01350     0.44131   
   589. BD*(   1) C  36 - O  38          0.01051     0.42947   
   590. BD*(   1) O  38 - H  39          0.00351     0.46561   
   591. BD*(   1) O  40 - C  41          0.00440     0.36586   
   592. BD*(   1) C  41 - H  42          0.00810     0.46766   
   593. BD*(   1) C  41 - H  43          0.00441     0.48462   
   594. BD*(   1) C  41 - H  44          0.00847     0.47628   
   595. BD*(   1) C  45 - H  46          0.00570     0.46953   
   596. BD*(   1) C  45 - H  47          0.00502     0.47675   
       -------------------------------
              Total Lewis   94.96180  ( 97.9058%)
        Valence non-Lewis    1.84671  (  1.9040%)
        Rydberg non-Lewis    0.18448  (  0.1902%)
       -------------------------------
            Total unit  1   96.99299  (100.0000%)
           Charge unit  1    0.00701
 
 Molecular unit  2  (NO2)
    59. BD (   1) O  48 - N  50          0.99277    -1.18434  600(g),546(r),498(r),483(r)
    60. BD (   1) O  49 - N  50          0.99808    -1.25564  600(g),526(g),546(r),595(r)
    61. BD (   2) O  49 - N  50          0.99843    -0.56452  599(g),501(v),573(r)
    62. BD (   3) O  49 - N  50          0.99362    -0.61275  597(g),500(v),600(g),598(g)
                                                    546(r)
    90. CR (   1) O  48                  0.99989   -19.51233  600(v),598(v),526(v),530(v)
    91. CR (   1) O  49                  0.99989   -19.51229  526(v),597(v),530(v)
    92. CR (   1) N  50                  0.99981   -14.86246  600(g),597(g)
   105. LP (   1) O  48                  0.99032    -0.91377  598(v),526(v),600(v),529(v)
                                                    530(v),538(v),597(g)
   106. LP (   2) O  48                  0.76391    -0.39221  600(v),599(v),597(g),526(v)
                                                    527(v),528(v),512(g),500(g)
                                                    501(g),596(r)
   107. LP (   3) O  48                  0.75270    -0.39763  599(v),600(v),597(g),527(v)
                                                    526(v),528(v),500(g),509(g)
                                                    501(g),529(v),541(r)
   108. LP (   1) O  49                  0.99064    -0.91238  597(v),526(v),600(g),528(v)
                                                    530(v),538(v)
   500. RY*(   1) O  48                  0.00134     1.41440   
   501. RY*(   2) O  48                  0.00085     0.95271   
   502. RY*(   3) O  48                  0.00006     1.95811   
   503. RY*(   4) O  48                  0.00001     1.15177   
   504. RY*(   5) O  48                  0.00001     4.75439   
   505. RY*(   6) O  48                  0.00000     4.59737   
   506. RY*(   7) O  48                  0.00000    49.79445   
   507. RY*(   8) O  48                  0.00001     4.73416   
   508. RY*(   9) O  48                  0.00000     2.97653   
   509. RY*(  10) O  48                  0.00000     3.32351   
   510. RY*(  11) O  48                  0.00001     3.12242   
   511. RY*(  12) O  48                  0.00000     2.91663   
   512. RY*(  13) O  48                  0.00000     3.14181   
   513. RY*(   1) O  49                  0.00145     1.41166   
   514. RY*(   2) O  49                  0.00094     0.94371   
   515. RY*(   3) O  49                  0.00007     2.09581   
   516. RY*(   4) O  49                  0.00003     3.93245   
   517. RY*(   5) O  49                  0.00000    49.49727   
   518. RY*(   6) O  49                  0.00000     4.76545   
   519. RY*(   7) O  49                  0.00001     1.52155   
   520. RY*(   8) O  49                  0.00000     4.84148   
   521. RY*(   9) O  49                  0.00000     2.96545   
   522. RY*(  10) O  49                  0.00000     3.08248   
   523. RY*(  11) O  49                  0.00000     3.51416   
   524. RY*(  12) O  49                  0.00000     3.01217   
   525. RY*(  13) O  49                  0.00000     3.17216   
   526. RY*(   1) N  50                  0.01066     1.08804   
   527. RY*(   2) N  50                  0.00529     2.24437   
   528. RY*(   3) N  50                  0.00160     2.96484   
   529. RY*(   4) N  50                  0.00138     1.52210   
   530. RY*(   5) N  50                  0.00082     1.03651   
   531. RY*(   6) N  50                  0.00023     0.92500   
   532. RY*(   7) N  50                  0.00012     3.32152   
   533. RY*(   8) N  50                  0.00003     2.21099   
   534. RY*(   9) N  50                  0.00000    33.73984   
   535. RY*(  10) N  50                  0.00000     3.64173   
   536. RY*(  11) N  50                  0.00000     3.57140   
   537. RY*(  12) N  50                  0.00000     2.40729   
   538. RY*(  13) N  50                  0.00001     3.65805   
   597. BD*(   1) O  48 - N  50          0.02377     0.48937   
   598. BD*(   1) O  49 - N  50          0.00923     0.54735   
   599. BD*(   2) O  49 - N  50          0.23571    -0.07692  527(g),514(g),501(v),531(g)
                                                    525(g),522(g)
   600. BD*(   3) O  49 - N  50          0.23328    -0.02908  598(g),597(g),513(g),526(g)
                                                    529(g),500(v),528(g),546(r)
                                                    595(r)
       -------------------------------
              Total Lewis   10.48006  ( 95.2127%)
        Valence non-Lewis    0.50200  (  4.5607%)
        Rydberg non-Lewis    0.02494  (  0.2266%)
       -------------------------------
            Total unit  2   11.00699  (100.0000%)
           Charge unit  2    0.49301
 1\1\GINC-N02\SP\UM062X\6-311G(d)\C21H20N1O8(2)\UNKNOWN\02-Dec-2024\0\\
 # pop=nbo M062X/6-311g(d) scrf=(smd,solvent=generic,read) temperature=
 298.15 Geom=Check Guess=Read\\Reagente 1\\0,2\C,0,-2.7926809904,0.1735
 420132,-0.5265109484\H,0,-2.4119789967,0.5701105038,-1.464617728\C,0,-
 1.9623833737,0.0506465916,0.5204928338\H,0,-2.305760567,-0.3292617244,
 1.4782531611\C,0,-0.5319714689,0.4094624514,0.5145215798\O,0,0.1290552
 845,0.2881259635,1.5251844818\C,0,-4.212200927,-0.1759015536,-0.554845
 8362\C,0,-4.9458239174,0.080115726,-1.7155377871\C,0,-4.8754844524,-0.
 7625354259,0.5352007091\C,0,-6.2998949898,-0.2214628103,-1.7887208661\
 H,0,-4.4524400688,0.5278689311,-2.571674484\C,0,-6.2211941002,-1.06424
 27556,0.4759919598\H,0,-4.3543602855,-0.9888054863,1.4590079081\C,0,-6
 .9490697296,-0.7888079667,-0.6979260746\H,0,-6.8614240766,-0.008247944
 2,-2.6934616911\O,0,-8.2664201094,-1.0908985778,-0.6924853163\H,0,-8.6
 61151367,-0.8559372171,-1.5422572666\O,0,-6.8483311589,-1.5945618247,1
 .565209962\C,0,-7.1832812532,-2.9747774241,1.4217071901\H,0,-6.2801673
 159,-3.5704741491,1.2593979889\H,0,-7.6542755204,-3.2769002637,2.35540
 55277\H,0,-7.8803883881,-3.1276936841,0.5958847724\C,0,2.8756225218,-0
 .1550569563,-0.28265733\H,0,2.0272043755,-0.8307720749,-0.3602670693\C
 ,0,2.6577633963,1.1669204266,-0.3351060884\H,0,3.4624690811,1.88787256
 28,-0.2270051847\C,0,1.327027227,1.7747956095,-0.4757157089\O,0,1.1851
 297269,2.9771703818,-0.3581511495\C,0,4.163955425,-0.8239117871,-0.106
 6948327\C,0,4.1986461212,-2.2196199964,-0.0650383083\C,0,5.3762069051,
 -0.1258359198,0.0168881104\C,0,5.3964932823,-2.9031177819,0.1034060669
 \H,0,3.2747259059,-2.7803822788,-0.1597973569\C,0,6.5723524879,-0.7932
 328546,0.1888813802\H,0,5.4102830517,0.9578204307,-0.0059569799\C,0,6.
 5888061194,-2.2004593421,0.2358748833\H,0,5.4078531101,-3.9883899352,0
 .1419645183\O,0,7.7874320589,-2.7981731267,0.4210890255\H,0,7.67570026
 82,-3.757332734,0.4438923422\O,0,7.7292011112,-0.0874888108,0.34928168
 6\C,0,8.5901451365,-0.130855796,-0.7880608516\H,0,8.088219626,0.295318
 5151,-1.6617618621\H,0,9.4611976351,0.4729900866,-0.5397597242\H,0,8.9
 056091967,-1.1530751214,-1.0052465411\C,0,0.1072901973,0.915869966,-0.
 7754307593\H,0,0.3460589446,0.0502188461,-1.3992807065\H,0,-0.58739244
 4,1.5395585972,-1.3368352582\O,0,-1.9288851225,3.6556558199,-0.3083299
 231\O,0,-1.0426530761,3.7201840026,1.6826130213\N,0,-1.3478874968,3.25
 63178982,0.6419795241\\Version=ES64L-G16RevA.03\State=2-A\HF=-1468.421
 5661\S2=0.754662\S2-1=0.\S2A=0.750013\RMSD=1.194e-09\Dipole=-0.9801584
 ,-3.3887601,-2.9827926\Quadrupole=22.8320859,-9.0432461,-13.7888399,-1
 0.0492236,8.2279155,-4.1805567\PG=C01 [X(C21H20N1O8)]\\@


 IT'S WHAT YOU LEARN AFTER YOU KNOW IT ALL
 THAT COUNTS.
 Job cpu time:       0 days  0 hours  1 minutes 22.8 seconds.
 Elapsed time:       0 days  0 hours  1 minutes 23.4 seconds.
 File lengths (MBytes):  RWF=    632 Int=      0 D2E=      0 Chk=     49 Scr=      1
 Normal termination of Gaussian 16 at Mon Dec  2 13:11:13 2024.
