 Entering Gaussian System, Link 0=g16
 Initial command:
 /sw/cluster/pub/apps//g16/l1.exe "/data/natrosa/25871/Gau-317673.inp" -scrdir="/data/natrosa/25871/"
 Entering Link 1 = /sw/cluster/pub/apps//g16/l1.exe PID=    317674.
  
 Copyright (c) 1988,1990,1992,1993,1995,1998,2003,2009,2016,
            Gaussian, Inc.  All Rights Reserved.
  
 This is part of the Gaussian(R) 16 program.  It is based on
 the Gaussian(R) 09 system (copyright 2009, Gaussian, Inc.),
 the Gaussian(R) 03 system (copyright 2003, Gaussian, Inc.),
 the Gaussian(R) 98 system (copyright 1998, Gaussian, Inc.),
 the Gaussian(R) 94 system (copyright 1995, Gaussian, Inc.),
 the Gaussian 92(TM) system (copyright 1992, Gaussian, Inc.),
 the Gaussian 90(TM) system (copyright 1990, Gaussian, Inc.),
 the Gaussian 88(TM) system (copyright 1988, Gaussian, Inc.),
 the Gaussian 86(TM) system (copyright 1986, Carnegie Mellon
 University), and the Gaussian 82(TM) system (copyright 1983,
 Carnegie Mellon University). Gaussian is a federally registered
 trademark of Gaussian, Inc.
  
 This software contains proprietary and confidential information,
 including trade secrets, belonging to Gaussian, Inc.
  
 This software is provided under written license and may be
 used, copied, transmitted, or stored only in accord with that
 written license.
  
 The following legend is applicable only to US Government
 contracts under FAR:
  
                    RESTRICTED RIGHTS LEGEND
  
 Use, reproduction and disclosure by the US Government is
 subject to restrictions as set forth in subparagraphs (a)
 and (c) of the Commercial Computer Software - Restricted
 Rights clause in FAR 52.227-19.
  
 Gaussian, Inc.
 340 Quinnipiac St., Bldg. 40, Wallingford CT 06492
  
  
 ---------------------------------------------------------------
 Warning -- This program may not be used in any manner that
 competes with the business of Gaussian, Inc. or will provide
 assistance to any competitor of Gaussian, Inc.  The licensee
 of this program is prohibited from giving any competitor of
 Gaussian, Inc. access to this program.  By using this program,
 the user acknowledges that Gaussian, Inc. is engaged in the
 business of creating and licensing software in the field of
 computational chemistry and represents and warrants to the
 licensee that it is not a competitor of Gaussian, Inc. and that
 it will not use this program in any manner prohibited above.
 ---------------------------------------------------------------
  

 Cite this work as:
 Gaussian 16, Revision A.03,
 M. J. Frisch, G. W. Trucks, H. B. Schlegel, G. E. Scuseria, 
 M. A. Robb, J. R. Cheeseman, G. Scalmani, V. Barone, 
 G. A. Petersson, H. Nakatsuji, X. Li, M. Caricato, A. V. Marenich, 
 J. Bloino, B. G. Janesko, R. Gomperts, B. Mennucci, H. P. Hratchian, 
 J. V. Ortiz, A. F. Izmaylov, J. L. Sonnenberg, D. Williams-Young, 
 F. Ding, F. Lipparini, F. Egidi, J. Goings, B. Peng, A. Petrone, 
 T. Henderson, D. Ranasinghe, V. G. Zakrzewski, J. Gao, N. Rega, 
 G. Zheng, W. Liang, M. Hada, M. Ehara, K. Toyota, R. Fukuda, 
 J. Hasegawa, M. Ishida, T. Nakajima, Y. Honda, O. Kitao, H. Nakai, 
 T. Vreven, K. Throssell, J. A. Montgomery, Jr., J. E. Peralta, 
 F. Ogliaro, M. J. Bearpark, J. J. Heyd, E. N. Brothers, K. N. Kudin, 
 V. N. Staroverov, T. A. Keith, R. Kobayashi, J. Normand, 
 K. Raghavachari, A. P. Rendell, J. C. Burant, S. S. Iyengar, 
 J. Tomasi, M. Cossi, J. M. Millam, M. Klene, C. Adamo, R. Cammi, 
 J. W. Ochterski, R. L. Martin, K. Morokuma, O. Farkas, 
 J. B. Foresman, and D. J. Fox, Gaussian, Inc., Wallingford CT, 2016.
 
 ******************************************
 Gaussian 16:  ES64L-G16RevA.03 25-Dec-2016
                 2-Dec-2024 
 ******************************************
 %oldchk=/home/natrosa/MOSSRI/REACAO-2/CURCUMIN-OPT-FREQ-TS2-M06-2X-6-311G-D-298.
 chk
 %chk=CURCUMIN-TS-2-M062X-6-311G-D-298-NBO.chk
 Copying data from "/home/natrosa/MOSSRI/REACAO-2/CURCUMIN-OPT-FREQ-TS2-M06-2X-6-311G-D-298.chk" to current chk file "CURCUMIN-TS-2-M062X-6-311G-D-298-NBO.chk"
 IOpt=  2 FromEx=T IUOpen= 4 IOptOp= 5 NList=   0 IFRang= 0 IUIn= 4 IUOut= 2.
 ----------------------------------------------------------------------
 # pop=nbo M062X/6-311g(d) scrf=(smd,solvent=generic,read) temperature=
 298.15 Geom=Check Guess=Read
 ----------------------------------------------------------------------
 1/29=2,38=1,40=2,112=298150,172=1/1;
 2/12=2,40=1/2;
 3/5=4,6=6,7=1,11=2,14=-4,25=1,30=1,70=32203,72=-2,74=-55,116=-2/1,2,3;
 4/5=1/1;
 5/5=2,38=6/2;
 6/7=2,8=2,9=2,10=2,28=1,40=1/1,7;
 99/5=1,9=1/99;
 ----------
 Reagente 1
 ----------
 Structure from the checkpoint file:  "CURCUMIN-TS-2-M062X-6-311G-D-298-NBO.chk"
 Charge =  0 Multiplicity = 2
 Redundant internal coordinates found in file.  (old form).
 C,0,-2.4629578986,0.4099448228,-0.0159339641
 H,0,-2.0623699185,0.8647779248,-0.9188856792
 C,0,-1.7493520128,0.4742375747,1.1198817687
 H,0,-2.105855467,0.0443824421,2.0505700392
 C,0,-0.4566382389,1.1599611023,1.2328075449
 O,0,0.1497795151,1.2181609574,2.2818565818
 C,0,-3.7709389062,-0.2090881139,-0.1949941594
 C,0,-4.4243161203,-0.048909278,-1.4198843008
 C,0,-4.4058646177,-0.9558766047,0.8108770543
 C,0,-5.6778528091,-0.6044748285,-1.637605064
 H,0,-3.9522614837,0.5313861869,-2.2063093881
 C,0,-5.6518176662,-1.5124634667,0.6059595876
 H,0,-3.9403299652,-1.1124401563,1.7779710599
 C,0,-6.3013971852,-1.3359703502,-0.6321056448
 H,0,-6.1837590447,-0.464826792,-2.5881297446
 O,0,-7.523907471,-1.8922273227,-0.77064663
 H,0,-7.8747931861,-1.7025020894,-1.6505805081
 O,0,-6.2654595248,-2.1996117248,1.6112947787
 C,0,-6.2969480236,-3.6123927951,1.4078979254
 H,0,-5.2797276929,-4.0094312508,1.34124254
 H,0,-6.7967648674,-4.0381171574,2.2761102018
 H,0,-6.854025555,-3.8683660923,0.504891902
 C,0,2.6932643174,0.3682946507,0.0422462328
 H,0,1.7463501651,-0.152788199,-0.0886656441
 C,0,2.6867119025,1.698745917,0.2151630491
 H,0,3.5987113523,2.2672584979,0.3699309272
 C,0,1.4651098268,2.5167701522,0.2468854631
 O,0,1.5043934127,3.7088857436,0.4531107888
 C,0,3.8662785902,-0.5024533156,0.0144965609
 C,0,3.6819080964,-1.8779744122,-0.1437916319
 C,0,5.1782547407,-0.0162036395,0.1361010696
 C,0,4.7645513214,-2.7478498381,-0.1661086641
 H,0,2.6773386314,-2.2753646277,-0.243014992
 C,0,6.2618796186,-0.8709769485,0.1202342492
 H,0,5.3811131077,1.0423771566,0.25621532
 C,0,6.0579574248,-2.2567573315,-0.0281674874
 H,0,4.6086848935,-3.8162781429,-0.2816699398
 O,0,7.1543587059,-3.046646547,-0.0180129423
 H,0,6.8945646699,-3.9713044787,-0.1211957408
 O,0,7.5220660499,-0.3756449294,0.2843738211
 C,0,8.3054850965,-0.3882370254,-0.9089527206
 H,0,7.8295761865,0.221208806,-1.6827958155
 H,0,9.2703777478,0.0434778924,-0.6492198638
 H,0,8.4487403515,-1.4061844341,-1.2758072684
 C,0,0.1336240061,1.8259233028,0.0025621945
 H,0,0.1001254963,1.2182541007,-0.9034172588
 H,0,-0.6293752728,2.750742238,-0.2508675862
 O,0,-1.4947232061,3.6544584155,-0.7066110302
 O,0,-2.7027188882,3.8372021883,-2.3967726092
 N,0,-1.9040174048,3.1453572092,-1.8641140127
 Recover connectivity data from disk.
                           ----------------------------
                           !    Current Parameters    !
                           ! (Angstroms and Degrees)  !
 --------------------------                            --------------------------
 ! Name  Definition              Value                                          !
 --------------------------------------------------------------------------------
 ! R1    R(1,2)                  1.0875                                         !
 ! R2    R(1,3)                  1.3429                                         !
 ! R3    R(1,7)                  1.4581                                         !
 ! R4    R(3,4)                  1.0854                                         !
 ! R5    R(3,5)                  1.4677                                         !
 ! R6    R(5,6)                  1.2131                                         !
 ! R7    R(5,45)                 1.5184                                         !
 ! R8    R(7,8)                  1.3975                                         !
 ! R9    R(7,9)                  1.4045                                         !
 ! R10   R(8,10)                 1.3883                                         !
 ! R11   R(8,11)                 1.0854                                         !
 ! R12   R(9,12)                 1.3799                                         !
 ! R13   R(9,13)                 1.0847                                         !
 ! R14   R(10,14)                1.391                                          !
 ! R15   R(10,15)                1.0858                                         !
 ! R16   R(12,14)                1.4092                                         !
 ! R17   R(12,18)                1.3636                                         !
 ! R18   R(14,16)                1.3502                                         !
 ! R19   R(16,17)                0.9661                                         !
 ! R20   R(18,19)                1.4277                                         !
 ! R21   R(19,20)                1.094                                          !
 ! R22   R(19,21)                1.0885                                         !
 ! R23   R(19,22)                1.0915                                         !
 ! R24   R(23,24)                1.0887                                         !
 ! R25   R(23,25)                1.3417                                         !
 ! R26   R(23,29)                1.4611                                         !
 ! R27   R(25,26)                1.0858                                         !
 ! R28   R(25,27)                1.4705                                         !
 ! R29   R(27,28)                1.2105                                         !
 ! R30   R(27,45)                1.5198                                         !
 ! R31   R(29,30)                1.3968                                         !
 ! R32   R(29,31)                1.4045                                         !
 ! R33   R(30,32)                1.389                                          !
 ! R34   R(30,33)                1.0849                                         !
 ! R35   R(31,34)                1.3803                                         !
 ! R36   R(31,35)                1.0845                                         !
 ! R37   R(32,36)                1.3904                                         !
 ! R38   R(32,37)                1.0859                                         !
 ! R39   R(34,36)                1.4085                                         !
 ! R40   R(34,40)                1.364                                          !
 ! R41   R(36,38)                1.3513                                         !
 ! R42   R(38,39)                0.966                                          !
 ! R43   R(40,41)                1.4276                                         !
 ! R44   R(41,42)                1.094                                          !
 ! R45   R(41,43)                1.0885                                         !
 ! R46   R(41,44)                1.0915                                         !
 ! R47   R(45,46)                1.0914                                         !
 ! R48   R(45,47)                1.2254                                         !
 ! R49   R(47,48)                1.3316                                         !
 ! R50   R(48,50)                1.3291                                         !
 ! R51   R(49,50)                1.1833                                         !
 ! A1    A(2,1,3)              119.1099                                         !
 ! A2    A(2,1,7)              113.9555                                         !
 ! A3    A(3,1,7)              126.9316                                         !
 ! A4    A(1,3,4)              122.1229                                         !
 ! A5    A(1,3,5)              123.7437                                         !
 ! A6    A(4,3,5)              114.1021                                         !
 ! A7    A(3,5,6)              121.9545                                         !
 ! A8    A(3,5,45)             119.0117                                         !
 ! A9    A(6,5,45)             119.0318                                         !
 ! A10   A(1,7,8)              118.5798                                         !
 ! A11   A(1,7,9)              122.9093                                         !
 ! A12   A(8,7,9)              118.5106                                         !
 ! A13   A(7,8,10)             120.9136                                         !
 ! A14   A(7,8,11)             119.5394                                         !
 ! A15   A(10,8,11)            119.5395                                         !
 ! A16   A(7,9,12)             121.0839                                         !
 ! A17   A(7,9,13)             121.4177                                         !
 ! A18   A(12,9,13)            117.4975                                         !
 ! A19   A(8,10,14)            120.121                                          !
 ! A20   A(8,10,15)            120.4324                                         !
 ! A21   A(14,10,15)           119.4441                                         !
 ! A22   A(9,12,14)            119.7454                                         !
 ! A23   A(9,12,18)            120.0064                                         !
 ! A24   A(14,12,18)           120.2249                                         !
 ! A25   A(10,14,12)           119.6231                                         !
 ! A26   A(10,14,16)           123.2529                                         !
 ! A27   A(12,14,16)           117.1223                                         !
 ! A28   A(14,16,17)           109.961                                          !
 ! A29   A(12,18,19)           113.8001                                         !
 ! A30   A(18,19,20)           110.3227                                         !
 ! A31   A(18,19,21)           106.4702                                         !
 ! A32   A(18,19,22)           111.1738                                         !
 ! A33   A(20,19,21)           109.4879                                         !
 ! A34   A(20,19,22)           109.8194                                         !
 ! A35   A(21,19,22)           109.5004                                         !
 ! A36   A(24,23,25)           119.0696                                         !
 ! A37   A(24,23,29)           114.2507                                         !
 ! A38   A(25,23,29)           126.6788                                         !
 ! A39   A(23,25,26)           122.2421                                         !
 ! A40   A(23,25,27)           123.9498                                         !
 ! A41   A(26,25,27)           113.7924                                         !
 ! A42   A(25,27,28)           121.6387                                         !
 ! A43   A(25,27,45)           118.1286                                         !
 ! A44   A(28,27,45)           120.2314                                         !
 ! A45   A(23,29,30)           118.884                                          !
 ! A46   A(23,29,31)           122.8181                                         !
 ! A47   A(30,29,31)           118.2977                                         !
 ! A48   A(29,30,32)           121.0412                                         !
 ! A49   A(29,30,33)           119.5583                                         !
 ! A50   A(32,30,33)           119.3987                                         !
 ! A51   A(29,31,34)           121.1972                                         !
 ! A52   A(29,31,35)           121.4841                                         !
 ! A53   A(34,31,35)           117.3159                                         !
 ! A54   A(30,32,36)           120.1519                                         !
 ! A55   A(30,32,37)           120.3989                                         !
 ! A56   A(36,32,37)           119.4467                                         !
 ! A57   A(31,34,36)           119.7901                                         !
 ! A58   A(31,34,40)           119.9389                                         !
 ! A59   A(36,34,40)           120.2471                                         !
 ! A60   A(32,36,34)           119.5141                                         !
 ! A61   A(32,36,38)           123.3019                                         !
 ! A62   A(34,36,38)           117.1822                                         !
 ! A63   A(36,38,39)           109.9078                                         !
 ! A64   A(34,40,41)           113.7804                                         !
 ! A65   A(40,41,42)           110.3442                                         !
 ! A66   A(40,41,43)           106.4691                                         !
 ! A67   A(40,41,44)           111.1747                                         !
 ! A68   A(42,41,43)           109.4793                                         !
 ! A69   A(42,41,44)           109.8107                                         !
 ! A70   A(43,41,44)           109.4964                                         !
 ! A71   A(5,45,27)            114.1859                                         !
 ! A72   A(5,45,46)            114.6105                                         !
 ! A73   A(5,45,47)            104.8641                                         !
 ! A74   A(27,45,46)           114.4201                                         !
 ! A75   A(27,45,47)           103.6316                                         !
 ! A76   A(46,45,47)           103.2622                                         !
 ! A77   A(47,48,50)           103.7817                                         !
 ! A78   A(48,50,49)           112.0811                                         !
 ! A79   L(45,47,48,1,-1)      176.1613                                         !
 ! A80   L(45,47,48,1,-2)      188.3479                                         !
 ! D1    D(2,1,3,4)            179.4913                                         !
 ! D2    D(2,1,3,5)              1.6457                                         !
 ! D3    D(7,1,3,4)              0.1696                                         !
 ! D4    D(7,1,3,5)           -177.676                                          !
 ! D5    D(2,1,7,8)             -6.2672                                         !
 ! D6    D(2,1,7,9)            173.9537                                         !
 ! D7    D(3,1,7,8)            173.0843                                         !
 ! D8    D(3,1,7,9)             -6.6948                                         !
 ! D9    D(1,3,5,6)            178.6751                                         !
 ! D10   D(1,3,5,45)            -0.8173                                         !
 ! D11   D(4,3,5,6)              0.6739                                         !
 ! D12   D(4,3,5,45)          -178.8186                                         !
 ! D13   D(3,5,45,27)          179.3044                                         !
 ! D14   D(3,5,45,46)          -45.9298                                         !
 ! D15   D(3,5,45,47)           66.5674                                         !
 ! D16   D(6,5,45,27)           -0.2031                                         !
 ! D17   D(6,5,45,46)          134.5628                                         !
 ! D18   D(6,5,45,47)         -112.9401                                         !
 ! D19   D(1,7,8,10)          -179.2559                                         !
 ! D20   D(1,7,8,11)            -0.2544                                         !
 ! D21   D(9,7,8,10)             0.533                                          !
 ! D22   D(9,7,8,11)           179.5346                                         !
 ! D23   D(1,7,9,12)           179.2317                                         !
 ! D24   D(1,7,9,13)            -0.4094                                         !
 ! D25   D(8,7,9,12)            -0.5476                                         !
 ! D26   D(8,7,9,13)           179.8113                                         !
 ! D27   D(7,8,10,14)           -0.1761                                         !
 ! D28   D(7,8,10,15)          179.2432                                         !
 ! D29   D(11,8,10,14)        -179.1777                                         !
 ! D30   D(11,8,10,15)           0.2417                                         !
 ! D31   D(7,9,12,14)            0.2037                                         !
 ! D32   D(7,9,12,18)         -178.0403                                         !
 ! D33   D(13,9,12,14)         179.8584                                         !
 ! D34   D(13,9,12,18)           1.6144                                         !
 ! D35   D(8,10,14,12)          -0.1786                                         !
 ! D36   D(8,10,14,16)         179.3336                                         !
 ! D37   D(15,10,14,12)       -179.6037                                         !
 ! D38   D(15,10,14,16)         -0.0915                                         !
 ! D39   D(9,12,14,10)           0.1645                                         !
 ! D40   D(9,12,14,16)        -179.3771                                         !
 ! D41   D(18,12,14,10)        178.4047                                         !
 ! D42   D(18,12,14,16)         -1.1369                                         !
 ! D43   D(9,12,18,19)        -107.5102                                         !
 ! D44   D(14,12,18,19)         74.2542                                         !
 ! D45   D(10,14,16,17)          0.0106                                         !
 ! D46   D(12,14,16,17)        179.5341                                         !
 ! D47   D(12,18,19,20)         60.6441                                         !
 ! D48   D(12,18,19,21)        179.3602                                         !
 ! D49   D(12,18,19,22)        -61.4425                                         !
 ! D50   D(24,23,25,26)        178.7653                                         !
 ! D51   D(24,23,25,27)          0.299                                          !
 ! D52   D(29,23,25,26)         -0.865                                          !
 ! D53   D(29,23,25,27)       -179.3313                                         !
 ! D54   D(24,23,29,30)         -1.2422                                         !
 ! D55   D(24,23,29,31)        178.5462                                         !
 ! D56   D(25,23,29,30)        178.4033                                         !
 ! D57   D(25,23,29,31)         -1.8083                                         !
 ! D58   D(23,25,27,28)        177.3289                                         !
 ! D59   D(23,25,27,45)         -3.0798                                         !
 ! D60   D(26,25,27,28)         -1.2534                                         !
 ! D61   D(26,25,27,45)        178.3379                                         !
 ! D62   D(25,27,45,5)          83.0949                                         !
 ! D63   D(25,27,45,46)        -51.7584                                         !
 ! D64   D(25,27,45,47)       -163.4345                                         !
 ! D65   D(28,27,45,5)         -97.3078                                         !
 ! D66   D(28,27,45,46)        127.8389                                         !
 ! D67   D(28,27,45,47)         16.1627                                         !
 ! D68   D(23,29,30,32)       -179.5022                                         !
 ! D69   D(23,29,30,33)          0.0032                                         !
 ! D70   D(31,29,30,32)          0.6998                                         !
 ! D71   D(31,29,30,33)       -179.7948                                         !
 ! D72   D(23,29,31,34)        179.2754                                         !
 ! D73   D(23,29,31,35)         -0.0917                                         !
 ! D74   D(30,29,31,34)         -0.9351                                         !
 ! D75   D(30,29,31,35)        179.6979                                         !
 ! D76   D(29,30,32,36)          0.0854                                         !
 ! D77   D(29,30,32,37)        179.5017                                         !
 ! D78   D(33,30,32,36)       -179.4208                                         !
 ! D79   D(33,30,32,37)         -0.0045                                         !
 ! D80   D(29,31,34,36)          0.3827                                         !
 ! D81   D(29,31,34,40)       -177.8446                                         !
 ! D82   D(35,31,34,36)        179.7752                                         !
 ! D83   D(35,31,34,40)          1.5479                                         !
 ! D84   D(30,32,36,34)         -0.6528                                         !
 ! D85   D(30,32,36,38)        178.8442                                         !
 ! D86   D(37,32,36,34)        179.9254                                         !
 ! D87   D(37,32,36,38)         -0.5776                                         !
 ! D88   D(31,34,36,32)          0.4208                                         !
 ! D89   D(31,34,36,38)       -179.1065                                         !
 ! D90   D(40,34,36,32)        178.6426                                         !
 ! D91   D(40,34,36,38)         -0.8847                                         !
 ! D92   D(31,34,40,41)       -107.9713                                         !
 ! D93   D(36,34,40,41)         73.8096                                         !
 ! D94   D(32,36,38,39)          0.1475                                         !
 ! D95   D(34,36,38,39)        179.6554                                         !
 ! D96   D(34,40,41,42)         60.3135                                         !
 ! D97   D(34,40,41,43)        179.0304                                         !
 ! D98   D(34,40,41,44)        -61.7773                                         !
 ! D99   D(5,45,48,50)        -113.0888                                         !
 ! D100  D(27,45,48,50)        124.6145                                         !
 ! D101  D(46,45,48,50)          6.0018                                         !
 ! D102  D(47,48,50,49)        179.2344                                         !
 --------------------------------------------------------------------------------
                          Input orientation:                          
 ---------------------------------------------------------------------
 Center     Atomic      Atomic             Coordinates (Angstroms)
 Number     Number       Type             X           Y           Z
 ---------------------------------------------------------------------
      1          6           0       -2.462958    0.409945   -0.015934
      2          1           0       -2.062370    0.864778   -0.918886
      3          6           0       -1.749352    0.474238    1.119882
      4          1           0       -2.105855    0.044382    2.050570
      5          6           0       -0.456638    1.159961    1.232808
      6          8           0        0.149780    1.218161    2.281857
      7          6           0       -3.770939   -0.209088   -0.194994
      8          6           0       -4.424316   -0.048909   -1.419884
      9          6           0       -4.405865   -0.955877    0.810877
     10          6           0       -5.677853   -0.604475   -1.637605
     11          1           0       -3.952261    0.531386   -2.206309
     12          6           0       -5.651818   -1.512463    0.605960
     13          1           0       -3.940330   -1.112440    1.777971
     14          6           0       -6.301397   -1.335970   -0.632106
     15          1           0       -6.183759   -0.464827   -2.588130
     16          8           0       -7.523907   -1.892227   -0.770647
     17          1           0       -7.874793   -1.702502   -1.650581
     18          8           0       -6.265460   -2.199612    1.611295
     19          6           0       -6.296948   -3.612393    1.407898
     20          1           0       -5.279728   -4.009431    1.341243
     21          1           0       -6.796765   -4.038117    2.276110
     22          1           0       -6.854026   -3.868366    0.504892
     23          6           0        2.693264    0.368295    0.042246
     24          1           0        1.746350   -0.152788   -0.088666
     25          6           0        2.686712    1.698746    0.215163
     26          1           0        3.598711    2.267258    0.369931
     27          6           0        1.465110    2.516770    0.246885
     28          8           0        1.504393    3.708886    0.453111
     29          6           0        3.866279   -0.502453    0.014497
     30          6           0        3.681908   -1.877974   -0.143792
     31          6           0        5.178255   -0.016204    0.136101
     32          6           0        4.764551   -2.747850   -0.166109
     33          1           0        2.677339   -2.275365   -0.243015
     34          6           0        6.261880   -0.870977    0.120234
     35          1           0        5.381113    1.042377    0.256215
     36          6           0        6.057957   -2.256757   -0.028167
     37          1           0        4.608685   -3.816278   -0.281670
     38          8           0        7.154359   -3.046647   -0.018013
     39          1           0        6.894565   -3.971304   -0.121196
     40          8           0        7.522066   -0.375645    0.284374
     41          6           0        8.305485   -0.388237   -0.908953
     42          1           0        7.829576    0.221209   -1.682796
     43          1           0        9.270378    0.043478   -0.649220
     44          1           0        8.448740   -1.406184   -1.275807
     45          6           0        0.133624    1.825923    0.002562
     46          1           0        0.100125    1.218254   -0.903417
     47          1           0       -0.629375    2.750742   -0.250868
     48          8           0       -1.494723    3.654458   -0.706611
     49          8           0       -2.702719    3.837202   -2.396773
     50          7           0       -1.904017    3.145357   -1.864114
 ---------------------------------------------------------------------
                    Distance matrix (angstroms):
                    1          2          3          4          5
     1  C    0.000000
     2  H    1.087504   0.000000
     3  C    1.342924   2.099303   0.000000
     4  H    2.128755   3.081007   1.085380   0.000000
     5  C    2.479354   2.700980   1.467678   2.152480   0.000000
     6  O    3.572037   3.906819   2.347405   2.553260   1.213109
     7  C    1.458108   2.143925   2.506521   2.807011   3.859728
     8  C    2.455311   2.581591   3.725524   4.174688   4.923475
     9  C    2.514751   3.434942   3.032783   2.797749   4.500132
    10  C    3.740911   3.968246   4.919398   5.175212   6.213983
    11  H    2.651512   2.310909   3.989940   4.665556   4.943886
    12  C    3.775080   4.567337   4.409120   4.133342   5.875771
    13  H    2.778197   3.835252   2.784064   2.185828   4.194892
    14  C    4.261632   4.784860   5.202637   5.167658   6.623351
    15  H    4.607144   4.641128   5.856207   6.197268   7.073854
    16  O    5.610953   6.119759   6.520717   6.408199   7.954620
    17  H    6.035103   6.396137   7.066448   7.073243   8.457934
    18  O    4.890468   5.784311   5.271260   4.746660   6.721041
    19  C    5.736373   6.587157   6.120795   5.599133   7.544219
    20  H    5.413594   6.262387   5.711028   5.197116   7.070825
    21  H    6.619713   7.527342   6.868376   6.222725   8.264726
    22  H    6.152778   6.884022   6.730090   6.343803   8.169486
    23  C    5.156719   4.877123   4.572676   5.212469   3.459199
    24  H    4.247380   4.028778   3.751491   4.410748   2.884919
    25  C    5.313522   4.953317   4.690053   5.392063   3.347617
    26  H    6.351562   5.972926   5.690266   6.348843   4.291448
    27  C    4.465143   4.065860   3.907279   4.702954   2.550704
    28  O    5.181013   4.763730   4.636204   5.386498   3.309167
    29  C    6.394735   6.155436   5.806127   6.333325   4.789104
    30  C    6.558224   6.412503   6.052137   6.481426   5.315227
    31  C    7.654597   7.369923   7.014278   7.531741   5.859876
    32  C    7.888670   7.760451   7.380146   7.740330   6.669991
    33  H    5.803887   5.725568   5.386408   5.789707   4.878660
    34  C    8.819416   8.566548   8.184664   8.636149   7.106406
    35  H    7.874229   7.537761   7.205015   7.763401   5.920042
    36  C    8.928463   8.745117   8.350475   8.732940   7.463510
    37  H    8.242555   8.174430   7.797276   8.088825   7.260447
    38  O   10.219629  10.052806   9.641965   9.979232   8.785635
    39  H   10.332940  10.210322   9.799001  10.092070   9.066609
    40  O   10.020381   9.738988   9.347704   9.797589   8.180302
    41  C   10.834848  10.443302  10.293677  10.832449   9.151987
    42  H   10.428342   9.942250   9.983731  10.615182   8.834215
    43  H   11.756127  11.365669  11.169141  11.692200   9.970125
    44  H   11.133318  10.759559  10.643139  11.161022   9.601251
    45  C    2.957630   2.568123   2.573141   3.519019   1.518361
    46  H    2.830263   2.191249   2.840399   3.869156   2.208357
    47  H    2.982709   2.461013   2.883709   3.847206   2.182135
    48  O    3.455630   2.854751   3.676237   4.583468   3.325881
    49  O    4.179949   3.380755   4.958356   5.875422   5.038487
    50  N    3.348233   2.473777   4.007871   4.998153   3.953179
                    6          7          8          9         10
     6  O    0.000000
     7  C    4.852202   0.000000
     8  C    6.019195   1.397467   0.000000
     9  C    5.257767   1.404493   2.408158   0.000000
    10  C    7.255720   2.423588   1.388312   2.781457   0.000000
    11  H    6.118990   2.150946   1.085377   3.394278   2.142725
    12  C    6.627478   2.424463   2.784384   1.379920   2.420476
    13  H    4.734406   2.176541   3.404647   1.084668   3.865640
    14  C    7.525453   2.804309   2.408434   2.412408   1.391015
    15  H    8.164737   3.407961   2.152539   3.867206   1.085790
    16  O    8.824838   4.153204   3.664259   3.619414   2.412020
    17  H    9.401495   4.603329   3.833195   4.318528   2.456090
    18  O    7.299734   3.667083   4.147695   2.376055   3.666755
    19  C    8.102984   4.531277   4.919504   3.315073   4.325036
    20  H    7.595527   4.367960   4.903191   3.220112   4.541560
    21  H    8.711083   5.470232   5.933184   4.166956   5.325320
    22  H    8.836495   4.835864   4.918994   3.817029   4.077580
    23  C    3.493915   6.494273   7.278175   7.262359   8.593241
    24  H    3.169845   5.518601   6.313482   6.269280   7.597501
    25  C    3.307296   6.746059   7.502959   7.596482   8.871500
    26  H    4.080588   7.795074   8.540319   8.640386   9.916234
    27  C    2.749107   5.919609   6.636729   6.844392   8.019688
    28  O    3.373870   6.603006   7.264897   7.537848   8.634861
    29  C    4.681218   7.645720   8.425978   8.322750   9.686604
    30  C    5.286375   7.637587   8.407423   8.195958   9.563389
    31  C    5.604773   8.957393   9.727874   9.653686  11.015769
    32  C    6.558803   8.905096   9.658753   9.394796  10.761188
    33  H    4.996824   6.771417   7.534960   7.281724   8.634001
    34  C    6.811378  10.059568  10.827859  10.690415  12.071381
    35  H    5.612573   9.248233  10.007330  10.004279  11.340168
    36  C    7.233107  10.041314  10.802293  10.577706  11.960333
    37  H    7.197158   9.123455   9.853106   9.520381  10.861266
    38  O    8.517166  11.289162  12.042316  11.776975  13.162558
    39  H    8.842926  11.309849  12.049433  11.732914  13.103462
    40  O    7.802613  11.304402  12.071756  11.953636  13.341073
    41  C    8.903781  12.098837  12.744569  12.839721  14.003979
    42  H    8.700095  11.703446  12.259689  12.542326  13.532717
    43  H    9.651756  13.051669  13.716672  13.790221  14.994877
    44  H    9.403027  12.325654  12.945213  13.030652  14.153949
    45  C    2.358987   4.407484   5.129636   5.385048   6.509243
    46  H    3.185661   4.186205   4.726840   5.288629   6.102983
    47  H    3.061140   4.316612   4.858624   5.397054   6.218332
    48  O    4.191763   4.513303   4.775584   5.659744   6.041840
    49  O    6.073359   4.728783   4.361201   6.013595   5.399653
    50  N    5.012109   4.186127   4.092992   5.498630   5.324883
                   11         12         13         14         15
    11  H    0.000000
    12  C    3.869712   0.000000
    13  H    4.310081   2.112539   0.000000
    14  C    3.388743   1.409223   3.381283   0.000000
    15  H    2.473420   3.403338   4.951284   2.144472   0.000000
    16  O    4.548811   2.354567   4.466044   1.350240   2.671463
    17  H    4.548115   3.173280   5.251965   1.909767   2.295743
    18  O    5.232909   1.363608   2.572149   2.404166   4.544372
    19  C    5.977537   2.338590   3.455483   3.056752   5.088047
    20  H    5.913232   2.629437   3.221378   3.476392   5.368562
    21  H    7.004545   3.237164   4.119096   4.000588   6.066713
    22  H    5.926944   2.646846   4.207788   2.830405   4.647593
    23  C    7.017522   8.572947   7.014976   9.179499   9.295941
    24  H    6.117735   7.554079   6.061650   8.152391   8.320536
    25  C    7.162557   8.944029   7.366330   9.524362   9.551165
    26  H    8.165014   9.995714   8.381055  10.582981  10.578806
    27  C    6.269595   8.186227   6.688361   8.714061   8.685184
    28  O    6.851577   8.859865   7.392256   9.357277   9.261572
    29  C    8.193313   9.589792   8.026522  10.222254  10.381635
    30  C    8.266773   9.370921   7.897957  10.009925  10.261733
    31  C    9.442090  10.943036   9.329848  11.580774  11.692650
    32  C    9.534077  10.517747   9.068019  11.165383  11.443071
    33  H    7.462169   8.406998   7.016432   9.036125   9.343268
    34  C   10.569206  11.940838  10.338833  12.594370  12.743395
    35  H    9.666283  11.330273   9.687532  11.955195  12.004509
    36  C   10.617087  11.750529  10.224351  12.408313  12.634241
    37  H    9.792662  10.553358   9.199919  11.193955  11.533812
    38  O   11.872151  12.912831  11.404334  13.577956  13.826665
    39  H   11.927932  12.805716  11.365513  13.466233  13.763128
    40  O   11.776519  13.226753  11.582755  13.887055  14.003888
    41  C   12.360469  14.084216  12.558026  14.640214  14.586422
    42  H   11.797541  13.783759  12.340430  14.255286  14.059297
    43  H   13.322942  15.055509  13.481476  15.632765  15.583584
    44  H   12.585899  14.225965  12.763264  14.764344  14.721358
    45  C    4.821763   6.706732   5.327585   7.197908   7.201982
    46  H    4.311746   6.543691   5.380266   6.897620   6.719987
    47  H    4.448693   6.643343   5.477480   7.001314   6.830363
    48  O    4.247608   6.760278   5.905714   6.929217   6.518871
    49  O    3.539216   6.806799   6.592354   6.544177   5.537302
    50  N    3.338450   6.468583   5.961559   6.398210   5.645690
                   16         17         18         19         20
    16  O    0.000000
    17  H    0.966126   0.000000
    18  O    2.711424   3.671090   0.000000
    19  C    3.034873   3.935933   1.427695   0.000000
    20  H    3.738846   4.583371   2.078471   1.093993   0.000000
    21  H    3.796881   4.694267   2.025924   1.088508   1.782190
    22  H    2.445581   3.221645   2.086930   1.091457   1.788238
    23  C   10.495778  10.901271   9.450650   9.926469   9.188062
    24  H    9.456660   9.869528   8.442064   8.882748   8.141505
    25  C   10.868471  11.251439   9.863455  10.504140   9.864862
    26  H   11.929580  12.307834  10.899348  11.557324  10.916362
    27  C   10.063651  10.422880   9.157924   9.958119   9.448902
    28  O   10.694871  11.030765   9.829667  10.741213  10.314334
    29  C   11.501489  11.919118  10.396260  10.719350   9.884765
    30  C   11.223344  11.655837  10.106132  10.246634   9.330560
    31  C   12.871930  13.282240  11.743171  12.092573  11.259113
    32  C   12.333036  12.769081  11.185744  11.206324  10.234805
    33  H   10.222065  10.660999   9.133337   9.222309   8.296491
    34  C   13.852240  14.271396  12.685533  12.918885  12.022872
    35  H   13.274257  13.670746  12.165089  12.624198  11.847007
    36  C   13.607028  14.037840  12.432124  12.511743  11.553798
    37  H   12.293936  12.734959  11.155445  11.037619  10.022567
    38  O   14.742817  15.177200  13.544875  13.538499  12.545160
    39  H   14.582067  15.020666  13.391290  13.284689  12.261875
    40  O   15.158971  15.574591  13.970807  14.237415  13.349431
    41  C   15.901282  16.250499  14.897824  15.132549  14.238484
    42  H   15.525079  15.821786  14.675879  14.960200  14.103084
    43  H   16.905908  17.262910  15.858866  16.122616  15.234618
    44  H   15.988024  16.330524  15.015744  15.149421  14.216071
    45  C    8.547531   8.906032   7.729245   8.538297   8.071419
    46  H    8.235205   8.525749   7.650245   8.342654   7.830071
    47  H    8.328380   8.618971   7.729107   8.681150   8.358262
    48  O    8.192734   8.384116   7.899541   8.963238   8.789492
    49  O    7.662539   7.615476   8.074704   9.104420   9.065505
    50  N    7.626014   7.693991   7.724593   8.698913   8.535850
                   21         22         23         24         25
    21  H    0.000000
    22  H    1.780255   0.000000
    23  C   10.698938  10.455337   0.000000
    24  H    9.678469   9.387454   1.088720   0.000000
    25  C   11.273661  11.049993   1.341657   2.098755   0.000000
    26  H   12.306795  12.121213   2.129149   3.081912   1.085773
    27  C   10.739780  10.490212   2.483181   2.705223   1.470538
    28  O   11.499940  11.281870   3.569562   3.906993   2.344175
    29  C   11.459333  11.246990   1.461142   2.151047   2.505379
    30  C   10.969263  10.741897   2.461250   2.593394   3.729905
    31  C   12.812358  12.639262   2.516312   3.441968   3.025738
    32  C   11.886684  11.691755   3.747532   3.981191   4.922906
    33  H    9.960518   9.692467   2.659053   2.322906   4.000446
    34  C   13.609070  13.459542   3.778477   4.577056   4.403897
    35  H   13.348862  13.186200   2.779335   3.841727   2.773500
    36  C   13.180547  13.023085   4.268140   4.797948   5.202933
    37  H   11.690840  11.489783   4.613503   4.653103   5.861426
    38  O   14.173209  14.042204   5.618436   6.134001   6.521732
    39  H   13.899786  13.763223   6.042331   6.409855   7.068850
    40  O   14.913405  14.795937   4.891768   5.792039   5.261990
    41  C   15.860145  15.617971   5.742312   6.614420   6.098340
    42  H   15.739906  15.398661   5.420249   6.299743   5.677536
    43  H   16.833599  16.632224   6.621333   7.547432   6.843371
    44  H   15.873519  15.601534   6.165350   6.921152   6.713014
    45  C    9.358754   9.027985   2.945847   2.554312   2.565079
    46  H    9.236121   8.730250   2.888093   2.292080   2.858763
    47  H    9.513723   9.117568   4.099013   3.755112   3.510031
    48  O    9.807344   9.315726   5.375770   5.038010   4.707322
    49  O   10.030838   9.221105   6.862854   6.406372   6.359337
    50  N    9.627187   8.905453   5.699235   5.230216   5.243174
                   26         27         28         29         30
    26  H    0.000000
    27  C    2.151663   0.000000
    28  O    2.543890   1.210459   0.000000
    29  C    2.805215   3.864625   4.848326   0.000000
    30  C    4.177773   4.937672   6.025850   1.396820   0.000000
    31  C    2.786366   4.496184   5.241569   1.404460   2.404908
    32  C    5.176662   6.226805   7.259580   2.425143   1.388992
    33  H    4.675474   4.967299   6.137723   2.150141   1.084861
    34  C    4.123510   5.873829   6.612082   2.426086   2.782087
    35  H    2.165692   4.184376   4.709351   2.177074   3.402316
    36  C    5.164600   6.629967   7.520337   2.807643   2.408829
    37  H    6.201133   7.090059   8.173409   3.408859   2.152893
    38  O    6.405522   7.961742   8.819370   4.157577   3.665996
    39  H    7.072731   8.468151   9.400484   4.606719   3.834541
    40  O    4.731276   6.712242   7.274905   3.667928   4.145737
    41  C    5.553460   7.521021   8.055835   4.535676   4.917545
    42  H    5.128374   7.035603   7.532193   4.371752   4.896760
    43  H    6.176704   8.236649   8.657994   5.472006   5.931141
    44  H    6.302810   8.153482   8.796423   4.845675   4.922066
    45  C    3.512345   1.519808   2.372246   4.399340   5.131335
    46  H    3.868065   2.207379   3.164709   4.241145   4.795084
    47  H    4.300682   2.165495   2.442661   5.555592   6.326425
    48  O    5.387610   3.311208   3.215994   6.822042   7.597506
    49  O    7.058852   5.109135   5.083119   8.233988   8.860171
    50  N    6.003502   4.025228   4.159851   7.080397   7.706876
                   31         32         33         34         35
    31  C    0.000000
    32  C    2.779275   0.000000
    33  H    3.391477   2.141405   0.000000
    34  C    1.380265   2.417982   3.866935   0.000000
    35  H    1.084515   3.863202   4.308949   2.110726   0.000000
    36  C    2.412663   1.390359   3.387490   1.408543   3.379834
    37  H    3.865166   1.085904   2.471034   3.401379   4.948990
    38  O    3.621094   2.412963   4.548539   2.355668   4.465391
    39  H    4.319114   2.456790   4.547092   3.173422   5.250712
    40  O    2.375844   3.665266   5.230531   1.363952   2.568124
    41  C    3.318149   4.319468   5.973337   2.338501   3.457777
    42  H    3.224012   4.528800   5.903507   2.627063   3.229404
    43  H    4.167225   5.322347   7.000728   3.237182   4.116308
    44  H    3.823821   4.074892   5.927159   2.649102   4.213417
    45  C    5.372110   6.511017   4.832324   6.696464   5.311725
    46  H    5.328403   6.166885   4.391302   6.586347   5.409668
    47  H    6.444711   7.702996   6.016325   7.793841   6.269100
    48  O    7.662412   8.969962   7.265248   9.018211   7.418027
    49  O    9.130933  10.202887   8.423014  10.433902   8.955319
    50  N    8.009676   9.059962   7.280179   9.313992   7.873465
                   36         37         38         39         40
    36  C    0.000000
    37  H    2.144005   0.000000
    38  O    1.351342   2.672509   0.000000
    39  H    1.910036   2.296744   0.965988   0.000000
    40  O    2.404138   4.543804   2.713097   3.672467   0.000000
    41  C    3.052627   5.080480   3.030843   3.930602   1.427562
    42  H    3.466518   5.351504   3.729115   4.570559   2.078594
    43  H    3.999554   6.063348   3.798003   4.694867   2.025797
    44  H    2.827706   4.641432   2.438972   3.213788   2.086840
    45  C    7.194925   7.207038   8.545939   8.906935   7.714622
    46  H    6.952520   6.786766   8.290689   8.585324   7.683525
    47  H    8.357336   8.400237   9.708267  10.090213   8.746815
    48  O    9.614871   9.656297  10.962919  11.352318   9.926040
    49  O   10.931426  10.793797  12.255931  12.580098  11.379053
    50  N    9.795233   9.663529  11.126688  11.449877  10.289048
                   41         42         43         44         45
    41  C    0.000000
    42  H    1.093959   0.000000
    43  H    1.088511   1.782071   0.000000
    44  H    1.091477   1.788131   1.780231   0.000000
    45  C    8.515438   8.040101   9.331784   9.012320   0.000000
    46  H    8.361146   7.832365   9.248689   8.759322   1.091413
    47  H    9.493050   8.944429  10.270982  10.037067   1.225432
    48  O   10.603226   9.984122  11.354729  11.171686   2.549114
    49  O   11.884801  11.158603  12.680746  12.373549   4.224558
    50  N   10.845855  10.164958  11.660392  11.324409   3.062249
                   46         47         48         49         50
    46  H    0.000000
    47  H    1.818382   0.000000
    48  O    2.918453   1.331628   0.000000
    49  O    4.116423   3.175540   2.085496   0.000000
    50  N    2.941641   2.093561   1.329105   1.183342   0.000000
 Stoichiometry    C21H20NO8(2)
 Framework group  C1[X(C21H20NO8)]
 Deg. of freedom   144
 Full point group                 C1      NOp   1
 Largest Abelian subgroup         C1      NOp   1
 Largest concise Abelian subgroup C1      NOp   1
                         Standard orientation:                         
 ---------------------------------------------------------------------
 Center     Atomic      Atomic             Coordinates (Angstroms)
 Number     Number       Type             X           Y           Z
 ---------------------------------------------------------------------
      1          6           0       -2.469110    0.440935    0.105840
      2          1           0       -2.070710    1.050209   -0.702075
      3          6           0       -1.750627    0.297379    1.231281
      4          1           0       -2.104745   -0.292446    2.070780
      5          6           0       -0.455159    0.948144    1.460069
      6          8           0        0.155760    0.814528    2.499568
      7          6           0       -3.779893   -0.132262   -0.175891
      8          6           0       -4.437759    0.247999   -1.348721
      9          6           0       -4.413187   -1.046668    0.681663
     10          6           0       -5.694044   -0.255936   -1.657279
     11          1           0       -3.966991    0.959465   -2.019718
     12          6           0       -5.661839   -1.553937    0.385478
     13          1           0       -3.944210   -1.376370    1.602457
     14          6           0       -6.315907   -1.155262   -0.797384
     15          1           0       -6.203381    0.054243   -2.564640
     16          8           0       -7.540842   -1.674245   -1.028332
     17          1           0       -7.894703   -1.327948   -1.857947
     18          8           0       -6.273652   -2.409640    1.253168
     19          6           0       -6.310732   -3.762440    0.798339
     20          1           0       -5.295137   -4.143545    0.656405
     21          1           0       -6.808405   -4.336560    1.577799
     22          1           0       -6.872377   -3.849831   -0.133431
     23          6           0        2.687138    0.376222    0.131561
     24          1           0        1.737945   -0.110249   -0.086819
     25          6           0        2.685776    1.653642    0.541733
     26          1           0        3.600313    2.182548    0.792297
     27          6           0        1.467076    2.455649    0.726220
     28          8           0        1.511220    3.590876    1.143979
     29          6           0        3.857090   -0.478235   -0.058306
     30          6           0        3.667441   -1.802134   -0.461334
     31          6           0        5.171185   -0.025284    0.142935
     32          6           0        4.747048   -2.656481   -0.645280
     33          1           0        2.661140   -2.172513   -0.625958
     34          6           0        6.251852   -0.865943   -0.031946
     35          1           0        5.378098    0.993720    0.451142
     36          6           0        6.042657   -2.201667   -0.427009
     37          1           0        4.587112   -3.686112   -0.951003
     38          8           0        7.136425   -2.983236   -0.564649
     39          1           0        6.873098   -3.873424   -0.831772
     40          8           0        7.514363   -0.411601    0.213012
     41          6           0        8.292821   -0.210662   -0.966631
     42          1           0        7.815789    0.529641   -1.615583
     43          1           0        9.260222    0.164616   -0.637756
     44          1           0        8.431139   -1.146064   -1.511804
     45          6           0        0.132278    1.823655    0.367449
     46          1           0        0.093009    1.389534   -0.633141
     47          1           0       -0.628639    2.780981    0.288604
     48          8           0       -1.492806    3.754321    0.007437
     49          8           0       -2.707120    4.242160   -1.616370
     50          7           0       -1.908569    3.463504   -1.221011
 ---------------------------------------------------------------------
 Rotational constants (GHZ):           0.2205256           0.0512038           0.0446314
 Standard basis: 6-311G(d) (5D, 7F)
 There are   630 symmetry adapted cartesian basis functions of A   symmetry.
 There are   600 symmetry adapted basis functions of A   symmetry.
   600 basis functions,  1060 primitive gaussians,   630 cartesian basis functions
   109 alpha electrons      108 beta electrons
       nuclear repulsion energy      2622.8011431199 Hartrees.
 NAtoms=   50 NActive=   50 NUniq=   50 SFac= 1.00D+00 NAtFMM=   60 NAOKFM=F Big=F
 Integral buffers will be    131072 words long.
 Raffenetti 2 integral format.
 Two-electron integral symmetry is turned on.
 Using the following non-standard input for PCM:
 Eps=7
 EpsInf=1.85341
 HbondAcidity=0
 HbondBasicity=0.48
 SurfaceTensionAtInterface=60.62
 CarbonAromaticity=0
 ElectronegativeHalogenicity=0
 --- end of non-standard input.
 ------------------------------------------------------------------------------
 Polarizable Continuum Model (PCM)
 =================================
 Model                : PCM.
 Atomic radii         : SMD-Coulomb.
 Polarization charges : Total charges.
 Charge compensation  : None.
 Solution method      : On-the-fly selection.
 Cavity type          : VdW (van der Waals Surface) (Alpha=1.000).
 Cavity algorithm     : GePol (No added spheres)
                        Default sphere list used, NSphG=   50.
                        Lebedev-Laikov grids with approx.  5.0 points / Ang**2.
                        Smoothing algorithm: York/Karplus (Gamma=1.0000).
                        Polarization charges: spherical gaussians, with
                                              point-specific exponents (IZeta= 3).
                        Self-potential: point-specific (ISelfS= 7).
                        Self-field    : sphere-specific E.n sum rule (ISelfD= 2).
 Solvent              : Generic,
                        Eps                           =   7.000000
                        Eps(infinity)                 =   1.853410
                        RSolv                         =   0.000000 Ang.
                        Molar volume                  =   0.000000 cm**3/mol
                        Thermal expansion coefficient =   0.000000 K**-1
                        Absolute temperature          = 298.150000 K
                        Numeral density               =   0.000000 Ang**-3
                        Hydrogen bond acidity         =   0.000000
                        Hydrogen bond basicity        =   0.480000
                        Surface tension at interface  =  60.620000 (cal/mol)*Ang**-2
                        Carbon aromaticity            =   0.000000
                        Electronegative halogenicity  =   0.000000
 ------------------------------------------------------------------------------
 ------------------------------------------------------------------------------
 Atomic radii for non-electrostatic terms: SMD-CDS.
 ------------------------------------------------------------------------------
 Nuclear repulsion after PCM non-electrostatic terms =     2622.7978698383 Hartrees.
 One-electron integrals computed using PRISM.
 NBasis=   600 RedAO= T EigKep=  1.71D-04  NBF=   600
 NBsUse=   600 1.00D-06 EigRej= -1.00D+00 NBFU=   600
 Initial guess from the checkpoint file:  "CURCUMIN-TS-2-M062X-6-311G-D-298-NBO.chk"
 B after Tr=    -0.000000   -0.000000   -0.000000
         Rot=    1.000000    0.000000    0.000000   -0.000000 Ang=   0.00 deg.
 Initial guess <Sx>= 0.0000 <Sy>= 0.0000 <Sz>= 0.5000 <S**2>= 0.7634 S= 0.5067
 Requested convergence on RMS density matrix=1.00D-08 within 128 cycles.
 Requested convergence on MAX density matrix=1.00D-06.
 Requested convergence on             energy=1.00D-06.
 No special actions if energy rises.
 Inv3:  Mode=1 IEnd=    55160832.
 Iteration    1 A*A^-1 deviation from unit magnitude is 3.55D-15 for   3143.
 Iteration    1 A*A^-1 deviation from orthogonality  is 2.22D-15 for   3639   3328.
 Iteration    1 A^-1*A deviation from unit magnitude is 3.33D-15 for   2558.
 Iteration    1 A^-1*A deviation from orthogonality  is 2.00D-15 for   3848   1709.
 Error on total polarization charges =  0.03306
 SCF Done:  E(UM062X) =  -1468.35528079     A.U. after    1 cycles
            NFock=  1  Conv=0.19D-08     -V/T= 2.0031
 <Sx>= 0.0000 <Sy>= 0.0000 <Sz>= 0.5000 <S**2>= 0.7634 S= 0.5067
 <L.S>=  0.00000000000    
 SMD-CDS (non-electrostatic) energy       (kcal/mol) =      -2.05
 (included in total energy above)
 Annihilation of the first spin contaminant:
 S**2 before annihilation     0.7634,   after     0.7501

 **********************************************************************

            Population analysis using the SCF density.

 **********************************************************************

 Orbital symmetries:
 Alpha Orbitals:
       Occupied  (A) (A) (A) (A) (A) (A) (A) (A) (A) (A) (A) (A)
                 (A) (A) (A) (A) (A) (A) (A) (A) (A) (A) (A) (A)
                 (A) (A) (A) (A) (A) (A) (A) (A) (A) (A) (A) (A)
                 (A) (A) (A) (A) (A) (A) (A) (A) (A) (A) (A) (A)
                 (A) (A) (A) (A) (A) (A) (A) (A) (A) (A) (A) (A)
                 (A) (A) (A) (A) (A) (A) (A) (A) (A) (A) (A) (A)
                 (A) (A) (A) (A) (A) (A) (A) (A) (A) (A) (A) (A)
                 (A) (A) (A) (A) (A) (A) (A) (A) (A) (A) (A) (A)
                 (A) (A) (A) (A) (A) (A) (A) (A) (A) (A) (A) (A)
                 (A)
       Virtual   (A) (A) (A) (A) (A) (A) (A) (A) (A) (A) (A) (A)
                 (A) (A) (A) (A) (A) (A) (A) (A) (A) (A) (A) (A)
                 (A) (A) (A) (A) (A) (A) (A) (A) (A) (A) (A) (A)
                 (A) (A) (A) (A) (A) (A) (A) (A) (A) (A) (A) (A)
                 (A) (A) (A) (A) (A) (A) (A) (A) (A) (A) (A) (A)
                 (A) (A) (A) (A) (A) (A) (A) (A) (A) (A) (A) (A)
                 (A) (A) (A) (A) (A) (A) (A) (A) (A) (A) (A) (A)
                 (A) (A) (A) (A) (A) (A) (A) (A) (A) (A) (A) (A)
                 (A) (A) (A) (A) (A) (A) (A) (A) (A) (A) (A) (A)
                 (A) (A) (A) (A) (A) (A) (A) (A) (A) (A) (A) (A)
                 (A) (A) (A) (A) (A) (A) (A) (A) (A) (A) (A) (A)
                 (A) (A) (A) (A) (A) (A) (A) (A) (A) (A) (A) (A)
                 (A) (A) (A) (A) (A) (A) (A) (A) (A) (A) (A) (A)
                 (A) (A) (A) (A) (A) (A) (A) (A) (A) (A) (A) (A)
                 (A) (A) (A) (A) (A) (A) (A) (A) (A) (A) (A) (A)
                 (A) (A) (A) (A) (A) (A) (A) (A) (A) (A) (A) (A)
                 (A) (A) (A) (A) (A) (A) (A) (A) (A) (A) (A) (A)
                 (A) (A) (A) (A) (A) (A) (A) (A) (A) (A) (A) (A)
                 (A) (A) (A) (A) (A) (A) (A) (A) (A) (A) (A) (A)
                 (A) (A) (A) (A) (A) (A) (A) (A) (A) (A) (A) (A)
                 (A) (A) (A) (A) (A) (A) (A) (A) (A) (A) (A) (A)
                 (A) (A) (A) (A) (A) (A) (A) (A) (A) (A) (A) (A)
                 (A) (A) (A) (A) (A) (A) (A) (A) (A) (A) (A) (A)
                 (A) (A) (A) (A) (A) (A) (A) (A) (A) (A) (A) (A)
                 (A) (A) (A) (A) (A) (A) (A) (A) (A) (A) (A) (A)
                 (A) (A) (A) (A) (A) (A) (A) (A) (A) (A) (A) (A)
                 (A) (A) (A) (A) (A) (A) (A) (A) (A) (A) (A) (A)
                 (A) (A) (A) (A) (A) (A) (A) (A) (A) (A) (A) (A)
                 (A) (A) (A) (A) (A) (A) (A) (A) (A) (A) (A) (A)
                 (A) (A) (A) (A) (A) (A) (A) (A) (A) (A) (A) (A)
                 (A) (A) (A) (A) (A) (A) (A) (A) (A) (A) (A) (A)
                 (A) (A) (A) (A) (A) (A) (A) (A) (A) (A) (A) (A)
                 (A) (A) (A) (A) (A) (A) (A) (A) (A) (A) (A) (A)
                 (A) (A) (A) (A) (A) (A) (A) (A) (A) (A) (A) (A)
                 (A) (A) (A) (A) (A) (A) (A) (A) (A) (A) (A) (A)
                 (A) (A) (A) (A) (A) (A) (A) (A) (A) (A) (A) (A)
                 (A) (A) (A) (A) (A) (A) (A) (A) (A) (A) (A) (A)
                 (A) (A) (A) (A) (A) (A) (A) (A) (A) (A) (A) (A)
                 (A) (A) (A) (A) (A) (A) (A) (A) (A) (A) (A) (A)
                 (A) (A) (A) (A) (A) (A) (A) (A) (A) (A) (A) (A)
                 (A) (A) (A) (A) (A) (A) (A) (A) (A) (A) (A)
 Beta  Orbitals:
       Occupied  (A) (A) (A) (A) (A) (A) (A) (A) (A) (A) (A) (A)
                 (A) (A) (A) (A) (A) (A) (A) (A) (A) (A) (A) (A)
                 (A) (A) (A) (A) (A) (A) (A) (A) (A) (A) (A) (A)
                 (A) (A) (A) (A) (A) (A) (A) (A) (A) (A) (A) (A)
                 (A) (A) (A) (A) (A) (A) (A) (A) (A) (A) (A) (A)
                 (A) (A) (A) (A) (A) (A) (A) (A) (A) (A) (A) (A)
                 (A) (A) (A) (A) (A) (A) (A) (A) (A) (A) (A) (A)
                 (A) (A) (A) (A) (A) (A) (A) (A) (A) (A) (A) (A)
                 (A) (A) (A) (A) (A) (A) (A) (A) (A) (A) (A) (A)
       Virtual   (A) (A) (A) (A) (A) (A) (A) (A) (A) (A) (A) (A)
                 (A) (A) (A) (A) (A) (A) (A) (A) (A) (A) (A) (A)
                 (A) (A) (A) (A) (A) (A) (A) (A) (A) (A) (A) (A)
                 (A) (A) (A) (A) (A) (A) (A) (A) (A) (A) (A) (A)
                 (A) (A) (A) (A) (A) (A) (A) (A) (A) (A) (A) (A)
                 (A) (A) (A) (A) (A) (A) (A) (A) (A) (A) (A) (A)
                 (A) (A) (A) (A) (A) (A) (A) (A) (A) (A) (A) (A)
                 (A) (A) (A) (A) (A) (A) (A) (A) (A) (A) (A) (A)
                 (A) (A) (A) (A) (A) (A) (A) (A) (A) (A) (A) (A)
                 (A) (A) (A) (A) (A) (A) (A) (A) (A) (A) (A) (A)
                 (A) (A) (A) (A) (A) (A) (A) (A) (A) (A) (A) (A)
                 (A) (A) (A) (A) (A) (A) (A) (A) (A) (A) (A) (A)
                 (A) (A) (A) (A) (A) (A) (A) (A) (A) (A) (A) (A)
                 (A) (A) (A) (A) (A) (A) (A) (A) (A) (A) (A) (A)
                 (A) (A) (A) (A) (A) (A) (A) (A) (A) (A) (A) (A)
                 (A) (A) (A) (A) (A) (A) (A) (A) (A) (A) (A) (A)
                 (A) (A) (A) (A) (A) (A) (A) (A) (A) (A) (A) (A)
                 (A) (A) (A) (A) (A) (A) (A) (A) (A) (A) (A) (A)
                 (A) (A) (A) (A) (A) (A) (A) (A) (A) (A) (A) (A)
                 (A) (A) (A) (A) (A) (A) (A) (A) (A) (A) (A) (A)
                 (A) (A) (A) (A) (A) (A) (A) (A) (A) (A) (A) (A)
                 (A) (A) (A) (A) (A) (A) (A) (A) (A) (A) (A) (A)
                 (A) (A) (A) (A) (A) (A) (A) (A) (A) (A) (A) (A)
                 (A) (A) (A) (A) (A) (A) (A) (A) (A) (A) (A) (A)
                 (A) (A) (A) (A) (A) (A) (A) (A) (A) (A) (A) (A)
                 (A) (A) (A) (A) (A) (A) (A) (A) (A) (A) (A) (A)
                 (A) (A) (A) (A) (A) (A) (A) (A) (A) (A) (A) (A)
                 (A) (A) (A) (A) (A) (A) (A) (A) (A) (A) (A) (A)
                 (A) (A) (A) (A) (A) (A) (A) (A) (A) (A) (A) (A)
                 (A) (A) (A) (A) (A) (A) (A) (A) (A) (A) (A) (A)
                 (A) (A) (A) (A) (A) (A) (A) (A) (A) (A) (A) (A)
                 (A) (A) (A) (A) (A) (A) (A) (A) (A) (A) (A) (A)
                 (A) (A) (A) (A) (A) (A) (A) (A) (A) (A) (A) (A)
                 (A) (A) (A) (A) (A) (A) (A) (A) (A) (A) (A) (A)
                 (A) (A) (A) (A) (A) (A) (A) (A) (A) (A) (A) (A)
                 (A) (A) (A) (A) (A) (A) (A) (A) (A) (A) (A) (A)
                 (A) (A) (A) (A) (A) (A) (A) (A) (A) (A) (A) (A)
                 (A) (A) (A) (A) (A) (A) (A) (A) (A) (A) (A) (A)
                 (A) (A) (A) (A) (A) (A) (A) (A) (A) (A) (A) (A)
                 (A) (A) (A) (A) (A) (A) (A) (A) (A) (A) (A) (A)
                 (A) (A) (A) (A) (A) (A) (A) (A) (A) (A) (A) (A)
 The electronic state is 2-A.
 Alpha  occ. eigenvalues --  -19.72738 -19.69199 -19.66222 -19.66056 -19.63714
 Alpha  occ. eigenvalues --  -19.63584 -19.62512 -19.61721 -14.93957 -10.64760
 Alpha  occ. eigenvalues --  -10.64142 -10.62010 -10.61785 -10.60375 -10.60199
 Alpha  occ. eigenvalues --  -10.58344 -10.57476 -10.57410 -10.57365 -10.57024
 Alpha  occ. eigenvalues --  -10.56046 -10.55844 -10.55602 -10.55387 -10.55300
 Alpha  occ. eigenvalues --  -10.55189 -10.55154 -10.55077 -10.55012 -10.54739
 Alpha  occ. eigenvalues --   -1.37370  -1.20842  -1.20658  -1.19303  -1.18663
 Alpha  occ. eigenvalues --   -1.17683  -1.17537  -1.17534  -0.97836  -0.97602
 Alpha  occ. eigenvalues --   -0.92644  -0.91417  -0.88124  -0.86137  -0.85954
 Alpha  occ. eigenvalues --   -0.84670  -0.83033  -0.78195  -0.78050  -0.77187
 Alpha  occ. eigenvalues --   -0.75792  -0.74960  -0.71773  -0.70895  -0.67504
 Alpha  occ. eigenvalues --   -0.67087  -0.66363  -0.65245  -0.63643  -0.63385
 Alpha  occ. eigenvalues --   -0.61706  -0.60589  -0.60218  -0.59344  -0.59205
 Alpha  occ. eigenvalues --   -0.58793  -0.58176  -0.56243  -0.55428  -0.55143
 Alpha  occ. eigenvalues --   -0.54346  -0.54305  -0.54193  -0.52802  -0.51883
 Alpha  occ. eigenvalues --   -0.51598  -0.51185  -0.50991  -0.50257  -0.50016
 Alpha  occ. eigenvalues --   -0.49846  -0.49340  -0.48729  -0.48455  -0.48149
 Alpha  occ. eigenvalues --   -0.46720  -0.45092  -0.44907  -0.44405  -0.44182
 Alpha  occ. eigenvalues --   -0.44041  -0.43901  -0.43393  -0.43260  -0.42958
 Alpha  occ. eigenvalues --   -0.40783  -0.40644  -0.38216  -0.36145  -0.35718
 Alpha  occ. eigenvalues --   -0.35591  -0.35330  -0.35174  -0.34456  -0.33330
 Alpha  occ. eigenvalues --   -0.31156  -0.30947  -0.27331  -0.27065
 Alpha virt. eigenvalues --   -0.04635  -0.04171  -0.02211   0.01903   0.02065
 Alpha virt. eigenvalues --    0.04503   0.04996   0.07252   0.07294   0.08592
 Alpha virt. eigenvalues --    0.09850   0.10011   0.10265   0.10942   0.11113
 Alpha virt. eigenvalues --    0.11465   0.11844   0.12449   0.14141   0.15291
 Alpha virt. eigenvalues --    0.15925   0.15994   0.16063   0.16212   0.16731
 Alpha virt. eigenvalues --    0.18037   0.18235   0.19463   0.19933   0.20072
 Alpha virt. eigenvalues --    0.20263   0.21364   0.21863   0.23365   0.23756
 Alpha virt. eigenvalues --    0.26059   0.26303   0.26842   0.27386   0.28355
 Alpha virt. eigenvalues --    0.28793   0.29757   0.30382   0.30989   0.31430
 Alpha virt. eigenvalues --    0.32354   0.33472   0.33599   0.34403   0.34651
 Alpha virt. eigenvalues --    0.35037   0.36061   0.36265   0.36716   0.37986
 Alpha virt. eigenvalues --    0.38923   0.39392   0.39748   0.39914   0.40522
 Alpha virt. eigenvalues --    0.40653   0.40868   0.41354   0.41934   0.42456
 Alpha virt. eigenvalues --    0.42808   0.43251   0.43798   0.44072   0.44376
 Alpha virt. eigenvalues --    0.45253   0.45878   0.46415   0.46664   0.46868
 Alpha virt. eigenvalues --    0.47371   0.47649   0.48715   0.48807   0.49394
 Alpha virt. eigenvalues --    0.49644   0.49965   0.50448   0.50578   0.50933
 Alpha virt. eigenvalues --    0.51684   0.52277   0.52988   0.53357   0.53932
 Alpha virt. eigenvalues --    0.54552   0.54974   0.56023   0.56482   0.56725
 Alpha virt. eigenvalues --    0.57501   0.57776   0.58613   0.58677   0.59403
 Alpha virt. eigenvalues --    0.60671   0.60788   0.61334   0.61871   0.62236
 Alpha virt. eigenvalues --    0.62806   0.62899   0.63490   0.63828   0.63984
 Alpha virt. eigenvalues --    0.64772   0.65163   0.65321   0.65493   0.66562
 Alpha virt. eigenvalues --    0.66733   0.66990   0.67644   0.67897   0.68101
 Alpha virt. eigenvalues --    0.68460   0.68940   0.69071   0.69726   0.70265
 Alpha virt. eigenvalues --    0.71257   0.71529   0.72438   0.73670   0.74322
 Alpha virt. eigenvalues --    0.74958   0.76264   0.76411   0.77476   0.78726
 Alpha virt. eigenvalues --    0.79152   0.79842   0.80592   0.81562   0.82083
 Alpha virt. eigenvalues --    0.82846   0.83423   0.83941   0.84059   0.84596
 Alpha virt. eigenvalues --    0.85033   0.85094   0.85440   0.86081   0.86900
 Alpha virt. eigenvalues --    0.87428   0.87920   0.88454   0.89384   0.89554
 Alpha virt. eigenvalues --    0.89847   0.90419   0.91719   0.92644   0.93869
 Alpha virt. eigenvalues --    0.94524   0.94547   0.95214   0.95371   0.96457
 Alpha virt. eigenvalues --    0.96649   0.97525   0.99142   0.99511   0.99681
 Alpha virt. eigenvalues --    1.00432   1.01650   1.02200   1.02549   1.03227
 Alpha virt. eigenvalues --    1.03558   1.04367   1.05306   1.05862   1.06914
 Alpha virt. eigenvalues --    1.08383   1.09153   1.10087   1.10340   1.11439
 Alpha virt. eigenvalues --    1.13263   1.15002   1.15652   1.16827   1.17193
 Alpha virt. eigenvalues --    1.18393   1.19462   1.19841   1.20102   1.20482
 Alpha virt. eigenvalues --    1.20600   1.22411   1.23805   1.24532   1.24795
 Alpha virt. eigenvalues --    1.25543   1.27407   1.27612   1.28150   1.28236
 Alpha virt. eigenvalues --    1.30881   1.31552   1.32826   1.33426   1.34777
 Alpha virt. eigenvalues --    1.39721   1.40045   1.41001   1.41383   1.41906
 Alpha virt. eigenvalues --    1.44667   1.47442   1.48336   1.48762   1.49963
 Alpha virt. eigenvalues --    1.50875   1.50977   1.51730   1.54236   1.54491
 Alpha virt. eigenvalues --    1.54960   1.55118   1.55884   1.56786   1.57091
 Alpha virt. eigenvalues --    1.57910   1.58721   1.58785   1.59197   1.59690
 Alpha virt. eigenvalues --    1.60205   1.61527   1.62236   1.62547   1.64941
 Alpha virt. eigenvalues --    1.66546   1.66750   1.67619   1.68488   1.71319
 Alpha virt. eigenvalues --    1.71786   1.72327   1.72677   1.73826   1.74853
 Alpha virt. eigenvalues --    1.75256   1.75632   1.76272   1.77374   1.79092
 Alpha virt. eigenvalues --    1.79545   1.80164   1.80337   1.80755   1.82127
 Alpha virt. eigenvalues --    1.82520   1.83632   1.83978   1.85206   1.86351
 Alpha virt. eigenvalues --    1.86685   1.87582   1.88399   1.88613   1.89786
 Alpha virt. eigenvalues --    1.90099   1.91175   1.92308   1.94382   1.94571
 Alpha virt. eigenvalues --    1.97757   1.98900   1.99866   2.00157   2.01352
 Alpha virt. eigenvalues --    2.04907   2.05655   2.06300   2.07200   2.07506
 Alpha virt. eigenvalues --    2.12570   2.13384   2.15021   2.15845   2.17373
 Alpha virt. eigenvalues --    2.18473   2.20762   2.20824   2.21600   2.26394
 Alpha virt. eigenvalues --    2.27084   2.28088   2.29107   2.31442   2.31927
 Alpha virt. eigenvalues --    2.33099   2.34566   2.34649   2.34871   2.35494
 Alpha virt. eigenvalues --    2.36453   2.37456   2.37848   2.39657   2.41105
 Alpha virt. eigenvalues --    2.44768   2.44976   2.45159   2.46011   2.46516
 Alpha virt. eigenvalues --    2.49127   2.50191   2.52222   2.56720   2.57150
 Alpha virt. eigenvalues --    2.57499   2.58448   2.58550   2.64792   2.65208
 Alpha virt. eigenvalues --    2.67541   2.67621   2.70197   2.71558   2.72336
 Alpha virt. eigenvalues --    2.72486   2.73196   2.74650   2.77906   2.79198
 Alpha virt. eigenvalues --    2.80666   2.81877   2.83127   2.83897   2.84119
 Alpha virt. eigenvalues --    2.84371   2.88730   2.88998   2.89451   2.89973
 Alpha virt. eigenvalues --    2.91094   2.92828   2.93409   2.95335   2.96663
 Alpha virt. eigenvalues --    2.96983   2.98128   2.98350   3.00333   3.01244
 Alpha virt. eigenvalues --    3.01660   3.02310   3.03509   3.03701   3.05125
 Alpha virt. eigenvalues --    3.05428   3.06534   3.07964   3.08389   3.09793
 Alpha virt. eigenvalues --    3.10210   3.11144   3.13785   3.16272   3.16391
 Alpha virt. eigenvalues --    3.16920   3.20471   3.21488   3.21773   3.22028
 Alpha virt. eigenvalues --    3.22301   3.22865   3.23531   3.23868   3.24797
 Alpha virt. eigenvalues --    3.25147   3.25332   3.25840   3.27226   3.29809
 Alpha virt. eigenvalues --    3.32503   3.32692   3.32715   3.35974   3.36307
 Alpha virt. eigenvalues --    3.36456   3.36655   3.38311   3.38812   3.39133
 Alpha virt. eigenvalues --    3.39811   3.39943   3.40228   3.41661   3.41980
 Alpha virt. eigenvalues --    3.45980   3.46618   3.50350   3.51988   3.52607
 Alpha virt. eigenvalues --    3.54427   3.54677   3.55568   3.56935   3.58889
 Alpha virt. eigenvalues --    3.60750   3.63247   3.65441   3.67903   3.69409
 Alpha virt. eigenvalues --    3.71089   3.76804   3.77070   3.80934   3.90512
 Alpha virt. eigenvalues --    3.93579   3.93682   3.94722   3.95033   3.99025
 Alpha virt. eigenvalues --    4.00073   4.04327   4.08416   4.11732   4.13077
 Alpha virt. eigenvalues --    4.13208   4.18648   4.41116   4.48180   4.56845
 Alpha virt. eigenvalues --    4.81691   4.81839   4.87851   4.91494   4.93055
 Alpha virt. eigenvalues --    4.94167   4.94335   4.98489   5.01376   5.02990
 Alpha virt. eigenvalues --    5.09188   5.09266   5.17059   5.18294   5.24124
 Alpha virt. eigenvalues --    5.24216   5.29366   5.29516   5.47871   5.60490
 Alpha virt. eigenvalues --    5.60647   5.68719   5.69925   5.77832   5.77933
 Alpha virt. eigenvalues --    5.98647  23.32635  23.34407  23.52282  23.52402
 Alpha virt. eigenvalues --   23.63257  23.64754  23.79499  23.87839  23.88178
 Alpha virt. eigenvalues --   23.89791  23.93934  23.94415  23.94972  24.07931
 Alpha virt. eigenvalues --   24.08233  24.13828  24.13944  24.20376  24.20559
 Alpha virt. eigenvalues --   24.23971  24.24646  35.34481  49.86165  49.95410
 Alpha virt. eigenvalues --   49.98412  49.98517  50.04649  50.04761  50.07649
 Alpha virt. eigenvalues --   50.10094
  Beta  occ. eigenvalues --  -19.71497 -19.69175 -19.66220 -19.66056 -19.63714
  Beta  occ. eigenvalues --  -19.63584 -19.62377 -19.61709 -14.93945 -10.64790
  Beta  occ. eigenvalues --  -10.64159 -10.62009 -10.61785 -10.60375 -10.60198
  Beta  occ. eigenvalues --  -10.58017 -10.57476 -10.57409 -10.57364 -10.57021
  Beta  occ. eigenvalues --  -10.56045 -10.55844 -10.55601 -10.55387 -10.55299
  Beta  occ. eigenvalues --  -10.55183 -10.55154 -10.55077 -10.55012 -10.54721
  Beta  occ. eigenvalues --   -1.36414  -1.20838  -1.20659  -1.18422  -1.17682
  Beta  occ. eigenvalues --   -1.17537  -1.17424  -1.16167  -0.97827  -0.97597
  Beta  occ. eigenvalues --   -0.92288  -0.91369  -0.87322  -0.86133  -0.85951
  Beta  occ. eigenvalues --   -0.84630  -0.82563  -0.78194  -0.78050  -0.75894
  Beta  occ. eigenvalues --   -0.75653  -0.74812  -0.71731  -0.70733  -0.67317
  Beta  occ. eigenvalues --   -0.67034  -0.65107  -0.63840  -0.63366  -0.63264
  Beta  occ. eigenvalues --   -0.60563  -0.60033  -0.59623  -0.59222  -0.58983
  Beta  occ. eigenvalues --   -0.58310  -0.57728  -0.55974  -0.55068  -0.54968
  Beta  occ. eigenvalues --   -0.54334  -0.54230  -0.54188  -0.52545  -0.51588
  Beta  occ. eigenvalues --   -0.51210  -0.51021  -0.50575  -0.50126  -0.49931
  Beta  occ. eigenvalues --   -0.49627  -0.49112  -0.48668  -0.48332  -0.46677
  Beta  occ. eigenvalues --   -0.45172  -0.44931  -0.44659  -0.44307  -0.44062
  Beta  occ. eigenvalues --   -0.43868  -0.43691  -0.43233  -0.42943  -0.41521
  Beta  occ. eigenvalues --   -0.40757  -0.40633  -0.35901  -0.35577  -0.35481
  Beta  occ. eigenvalues --   -0.35207  -0.35130  -0.34130  -0.32929  -0.31148
  Beta  occ. eigenvalues --   -0.30946  -0.27250  -0.27033
  Beta virt. eigenvalues --   -0.15252  -0.04316  -0.04096  -0.02026   0.01927
  Beta virt. eigenvalues --    0.02066   0.04673   0.05178   0.07254   0.07295
  Beta virt. eigenvalues --    0.08682   0.09867   0.10030   0.10272   0.11033
  Beta virt. eigenvalues --    0.11203   0.11619   0.11904   0.12567   0.14195
  Beta virt. eigenvalues --    0.15341   0.15932   0.16006   0.16064   0.16278
  Beta virt. eigenvalues --    0.17099   0.18062   0.18269   0.19556   0.19968
  Beta virt. eigenvalues --    0.20216   0.20460   0.21417   0.21893   0.23588
  Beta virt. eigenvalues --    0.24084   0.26258   0.26389   0.27330   0.27562
  Beta virt. eigenvalues --    0.28720   0.28875   0.29926   0.30429   0.31053
  Beta virt. eigenvalues --    0.31542   0.32479   0.33631   0.33721   0.34460
  Beta virt. eigenvalues --    0.34939   0.35073   0.36170   0.36352   0.36799
  Beta virt. eigenvalues --    0.38337   0.39059   0.39586   0.39839   0.39939
  Beta virt. eigenvalues --    0.40542   0.40727   0.40877   0.41394   0.42118
  Beta virt. eigenvalues --    0.42498   0.42903   0.43338   0.43849   0.44166
  Beta virt. eigenvalues --    0.44406   0.45305   0.45916   0.46505   0.46778
  Beta virt. eigenvalues --    0.46917   0.47430   0.47753   0.48735   0.48844
  Beta virt. eigenvalues --    0.49557   0.49688   0.50027   0.50594   0.50728
  Beta virt. eigenvalues --    0.51092   0.51837   0.52313   0.53091   0.53409
  Beta virt. eigenvalues --    0.54173   0.54625   0.55617   0.56129   0.56641
  Beta virt. eigenvalues --    0.56764   0.57560   0.57865   0.58697   0.58807
  Beta virt. eigenvalues --    0.59494   0.60863   0.60948   0.61531   0.61923
  Beta virt. eigenvalues --    0.62263   0.62888   0.62944   0.63662   0.63850
  Beta virt. eigenvalues --    0.63998   0.64802   0.65269   0.65439   0.65533
  Beta virt. eigenvalues --    0.66671   0.66871   0.67168   0.67819   0.67964
  Beta virt. eigenvalues --    0.68160   0.68478   0.69089   0.69167   0.69936
  Beta virt. eigenvalues --    0.70374   0.71380   0.71668   0.72496   0.73729
  Beta virt. eigenvalues --    0.74465   0.75271   0.76425   0.76516   0.77734
  Beta virt. eigenvalues --    0.78843   0.79326   0.79876   0.80796   0.81895
  Beta virt. eigenvalues --    0.82218   0.82924   0.83494   0.83985   0.84140
  Beta virt. eigenvalues --    0.84640   0.85107   0.85124   0.85574   0.86139
  Beta virt. eigenvalues --    0.87085   0.87547   0.87981   0.88653   0.89413
  Beta virt. eigenvalues --    0.89615   0.89893   0.90512   0.91849   0.92653
  Beta virt. eigenvalues --    0.94002   0.94563   0.94593   0.95322   0.95469
  Beta virt. eigenvalues --    0.96579   0.96833   0.97857   0.99176   0.99614
  Beta virt. eigenvalues --    0.99812   1.00682   1.01866   1.02334   1.02848
  Beta virt. eigenvalues --    1.03252   1.03611   1.04741   1.05399   1.05982
  Beta virt. eigenvalues --    1.07200   1.08424   1.09219   1.10216   1.10473
  Beta virt. eigenvalues --    1.11653   1.13408   1.15155   1.15689   1.17073
  Beta virt. eigenvalues --    1.17244   1.18421   1.19514   1.19860   1.20133
  Beta virt. eigenvalues --    1.20495   1.20636   1.22634   1.23918   1.24633
  Beta virt. eigenvalues --    1.24822   1.25760   1.27431   1.27648   1.28162
  Beta virt. eigenvalues --    1.28280   1.30932   1.31597   1.32946   1.33458
  Beta virt. eigenvalues --    1.35173   1.39844   1.40338   1.41165   1.41459
  Beta virt. eigenvalues --    1.42220   1.44971   1.48212   1.48488   1.49076
  Beta virt. eigenvalues --    1.50033   1.50917   1.51035   1.52177   1.54304
  Beta virt. eigenvalues --    1.54518   1.54980   1.55254   1.56020   1.56835
  Beta virt. eigenvalues --    1.57168   1.57976   1.58812   1.58865   1.59302
  Beta virt. eigenvalues --    1.59764   1.60364   1.61712   1.62324   1.62890
  Beta virt. eigenvalues --    1.65201   1.66691   1.67020   1.67688   1.68730
  Beta virt. eigenvalues --    1.71590   1.71882   1.72465   1.72890   1.74015
  Beta virt. eigenvalues --    1.74924   1.75274   1.75668   1.76473   1.77511
  Beta virt. eigenvalues --    1.79202   1.79763   1.80174   1.80470   1.80953
  Beta virt. eigenvalues --    1.82332   1.82679   1.83642   1.84019   1.85502
  Beta virt. eigenvalues --    1.86463   1.86723   1.87683   1.88417   1.88625
  Beta virt. eigenvalues --    1.89936   1.90267   1.91322   1.92396   1.94391
  Beta virt. eigenvalues --    1.94573   1.98006   1.99077   1.99956   2.00255
  Beta virt. eigenvalues --    2.01785   2.05143   2.05846   2.06563   2.07301
  Beta virt. eigenvalues --    2.07653   2.12695   2.13463   2.15189   2.15930
  Beta virt. eigenvalues --    2.17417   2.18590   2.20777   2.20831   2.21711
  Beta virt. eigenvalues --    2.26699   2.27259   2.28132   2.29149   2.31453
[...]
   404. RY*(  12) C  32                  0.00000     2.80621   
   405. RY*(  13) C  32                  0.00000    18.61116   
   406. RY*(   1) H  33                  0.00074     0.47405   
   407. RY*(   2) H  33                  0.00011     2.29077   
   408. RY*(   1) C  34                  0.00305     1.52832   
   409. RY*(   2) C  34                  0.00196     1.33795   
   410. RY*(   3) C  34                  0.00171     1.30941   
   411. RY*(   4) C  34                  0.00087     2.60931   
   412. RY*(   5) C  34                  0.00077     1.20334   
   413. RY*(   6) C  34                  0.00029     1.71372   
   414. RY*(   7) C  34                  0.00025     1.71464   
   415. RY*(   8) C  34                  0.00008     2.98597   
   416. RY*(   9) C  34                  0.00005     2.44707   
   417. RY*(  10) C  34                  0.00002     2.37097   
   418. RY*(  11) C  34                  0.00002     2.67671   
   419. RY*(  12) C  34                  0.00001     2.76748   
   420. RY*(  13) C  34                  0.00001    21.81485   
   421. RY*(   1) H  35                  0.00114     0.49211   
   422. RY*(   2) H  35                  0.00014     2.28703   
   423. RY*(   1) C  36                  0.00322     1.34284   
   424. RY*(   2) C  36                  0.00167     1.60791   
   425. RY*(   3) C  36                  0.00136     1.51599   
   426. RY*(   4) C  36                  0.00077     2.33385   
   427. RY*(   5) C  36                  0.00042     2.02022   
   428. RY*(   6) C  36                  0.00034     1.69460   
   429. RY*(   7) C  36                  0.00025     0.63493   
   430. RY*(   8) C  36                  0.00012     3.86276   
   431. RY*(   9) C  36                  0.00003     2.65364   
   432. RY*(  10) C  36                  0.00004     4.86014   
   433. RY*(  11) C  36                  0.00001    18.11589   
   434. RY*(  12) C  36                  0.00001     2.29933   
   435. RY*(  13) C  36                  0.00000     2.69125   
   436. RY*(   1) H  37                  0.00105     0.42149   
   437. RY*(   2) H  37                  0.00010     2.27308   
   438. RY*(   1) O  38                  0.00103     0.98280   
   439. RY*(   2) O  38                  0.00064     1.42600   
   440. RY*(   3) O  38                  0.00011     1.85161   
   441. RY*(   4) O  38                  0.00006     1.37538   
   442. RY*(   5) O  38                  0.00001     3.65254   
   443. RY*(   6) O  38                  0.00000     5.14227   
   444. RY*(   7) O  38                  0.00001     5.11330   
   445. RY*(   8) O  38                  0.00000     4.91399   
   446. RY*(   9) O  38                  0.00000    49.40480   
   447. RY*(  10) O  38                  0.00000     2.94716   
   448. RY*(  11) O  38                  0.00000     2.84361   
   449. RY*(  12) O  38                  0.00000     2.95300   
   450. RY*(  13) O  38                  0.00000     3.15374   
   451. RY*(   1) H  39                  0.00038     1.19415   
   452. RY*(   2) H  39                  0.00019     1.46916   
   453. RY*(   1) O  40                  0.00186     1.13733   
   454. RY*(   2) O  40                  0.00116     1.19883   
   455. RY*(   3) O  40                  0.00021     1.77052   
   456. RY*(   4) O  40                  0.00010     2.20985   
   457. RY*(   5) O  40                  0.00006     3.05852   
   458. RY*(   6) O  40                  0.00003     2.97360   
   459. RY*(   7) O  40                  0.00001     5.27668   
   460. RY*(   8) O  40                  0.00000     5.11683   
   461. RY*(   9) O  40                  0.00000    49.76871   
   462. RY*(  10) O  40                  0.00000     3.02090   
   463. RY*(  11) O  40                  0.00000     3.08049   
   464. RY*(  12) O  40                  0.00001     3.28983   
   465. RY*(  13) O  40                  0.00000     5.05166   
   466. RY*(   1) C  41                  0.00118     1.40909   
   467. RY*(   2) C  41                  0.00111     1.41491   
   468. RY*(   3) C  41                  0.00070     0.94396   
   469. RY*(   4) C  41                  0.00025     1.04921   
   470. RY*(   5) C  41                  0.00012     1.16989   
   471. RY*(   6) C  41                  0.00004     2.23121   
   472. RY*(   7) C  41                  0.00001     2.62438   
   473. RY*(   8) C  41                  0.00000     2.08460   
   474. RY*(   9) C  41                  0.00000     1.64572   
   475. RY*(  10) C  41                  0.00000     1.80113   
   476. RY*(  11) C  41                  0.00000    23.21829   
   477. RY*(  12) C  41                  0.00000     2.80701   
   478. RY*(  13) C  41                  0.00000     1.48855   
   479. RY*(   1) H  42                  0.00083     0.44210   
   480. RY*(   2) H  42                  0.00006     2.13830   
   481. RY*(   1) H  43                  0.00042     0.43269   
   482. RY*(   2) H  43                  0.00005     2.04946   
   483. RY*(   1) H  44                  0.00084     0.52464   
   484. RY*(   2) H  44                  0.00007     2.07302   
   485. RY*(   1) C  45                  0.00213     0.92939   
   486. RY*(   2) C  45                  0.00162     0.86174   
   487. RY*(   3) C  45                  0.00120     1.04186   
   488. RY*(   4) C  45                  0.00060     1.22762   
   489. RY*(   5) C  45                  0.00014     2.38455   
   490. RY*(   6) C  45                  0.00013     1.83712   
   491. RY*(   7) C  45                  0.00009     2.86083   
   492. RY*(   8) C  45                  0.00003     2.19465   
   493. RY*(   9) C  45                  0.00004     2.62620   
   494. RY*(  10) C  45                  0.00003     1.99906   
   495. RY*(  11) C  45                  0.00001     2.90647   
   496. RY*(  12) C  45                  0.00001     3.01252   
   497. RY*(  13) C  45                  0.00000    22.64117   
   498. RY*(   1) H  46                  0.00074     0.53498   
   499. RY*(   2) H  46                  0.00006     2.33354   
   541. BD*(   1) C   1 - H   2          0.00940     0.50558   
   542. BD*(   1) C   1 - C   3          0.00727     0.70079   
   543. BD*(   2) C   1 - C   3          0.05719     0.07641   
   544. BD*(   1) C   1 - C   7          0.01312     0.55320   
   545. BD*(   1) C   3 - H   4          0.00787     0.50903   
   546. BD*(   1) C   3 - C   5          0.02591     0.51534   
   547. BD*(   1) C   5 - O   6          0.00654     0.66232   
   548. BD*(   2) C   5 - O   6          0.07768     0.06719   
   549. BD*(   1) C   5 - C  45          0.03616     0.43216   
   550. BD*(   1) C   7 - C   8          0.01170     0.62472   
   551. BD*(   2) C   7 - C   8          0.19563     0.05637  556(v),559(v),543(v),182(g)
                                                    169(g),208(v),113(v),170(g)
   552. BD*(   1) C   7 - C   9          0.01320     0.61825   
   553. BD*(   1) C   8 - C  10          0.00708     0.63557   
   554. BD*(   1) C   8 - H  11          0.00674     0.51836   
   555. BD*(   1) C   9 - C  12          0.01272     0.64222   
   556. BD*(   2) C   9 - C  12          0.15666     0.06167  551(v),559(v),197(g),565(v)
                                                    225(g),226(g)
   557. BD*(   1) C   9 - H  13          0.00632     0.51413   
   558. BD*(   1) C  10 - C  14          0.01305     0.61537   
   559. BD*(   2) C  10 - C  14          0.18486     0.04898  551(v),556(v),242(g),208(g)
                                                    210(g),251(v)
   560. BD*(   1) C  10 - H  15          0.00658     0.50621   
   561. BD*(   1) C  12 - C  14          0.02303     0.58495   
   562. BD*(   1) C  12 - O  18          0.01344     0.43943   
   563. BD*(   1) C  14 - O  16          0.01040     0.42854   
   564. BD*(   1) O  16 - H  17          0.00354     0.46292   
   565. BD*(   1) O  18 - C  19          0.00443     0.36302   
   566. BD*(   1) C  19 - H  20          0.00804     0.46580   
   567. BD*(   1) C  19 - H  21          0.00437     0.48318   
   568. BD*(   1) C  19 - H  22          0.00839     0.47483   
   569. BD*(   1) C  23 - H  24          0.00788     0.50334   
   570. BD*(   1) C  23 - C  25          0.00706     0.70768   
   571. BD*(   2) C  23 - C  25          0.05422     0.08158   
   572. BD*(   1) C  23 - C  29          0.01311     0.55246   
   573. BD*(   1) C  25 - H  26          0.00795     0.51253   
   574. BD*(   1) C  25 - C  27          0.02563     0.51840   
   575. BD*(   1) C  27 - O  28          0.00564     0.67891   
   576. BD*(   2) C  27 - O  28          0.06871     0.07202   
   577. BD*(   1) C  27 - C  45          0.03210     0.44263   
   578. BD*(   1) C  29 - C  30          0.01163     0.62776   
   579. BD*(   2) C  29 - C  30          0.19437     0.05861  584(v),587(v),571(v),369(g)
                                                    356(g),395(v),300(v),357(g)
   580. BD*(   1) C  29 - C  31          0.01316     0.62060   
   581. BD*(   1) C  30 - C  32          0.00709     0.63614   
   582. BD*(   1) C  30 - H  33          0.00674     0.51976   
   583. BD*(   1) C  31 - C  34          0.01271     0.64384   
   584. BD*(   2) C  31 - C  34          0.15805     0.06320  579(v),587(v),384(g),593(v)
                                                    412(g),413(g)
   585. BD*(   1) C  31 - H  35          0.00636     0.51646   
   586. BD*(   1) C  32 - C  36          0.01307     0.61782   
   587. BD*(   2) C  32 - C  36          0.18541     0.05048  579(v),584(v),429(g),395(g)
                                                    397(g),438(v)
   588. BD*(   1) C  32 - H  37          0.00659     0.50661   
   589. BD*(   1) C  34 - C  36          0.02298     0.58758   
   590. BD*(   1) C  34 - O  40          0.01347     0.44050   
   591. BD*(   1) C  36 - O  38          0.01047     0.42866   
   592. BD*(   1) O  38 - H  39          0.00353     0.46409   
   593. BD*(   1) O  40 - C  41          0.00442     0.36431   
   594. BD*(   1) C  41 - H  42          0.00804     0.46694   
   595. BD*(   1) C  41 - H  43          0.00439     0.48402   
   596. BD*(   1) C  41 - H  44          0.00845     0.47583   
   597. BD*(   1) C  45 - H  46          0.00648     0.47416   
       -------------------------------
              Total Lewis   93.91650  ( 97.5359%)
        Valence non-Lewis    2.18949  (  2.2739%)
        Rydberg non-Lewis    0.18316  (  0.1902%)
       -------------------------------
            Total unit  1   96.28915  (100.0000%)
           Charge unit  1    0.21085
 
 Molecular unit  2  (H)
   104. LP*(   1) H  47                  0.35597     0.02046  103(r),107(r),500(g),549(r)
                                                    577(r),597(r),505(r),503(r)
                                                    497(r),486(r),488(r),493(r)
                                                    489(r),496(r),598(r),574(r)
                                                    490(r),546(r),572(r),508(r)
                                                    569(r),575(r),600(r),311(r)
                                                    142(r),576(r),510(r),492(r)
                                                    506(r),515(r),299(r),494(r)
                                                    512(r),573(r),341(r),507(r)
                                                    313(r),498(r)
   500. RY*(   1) H  47                  0.00298     0.81147   
   501. RY*(   2) H  47                  0.00031     2.11492   
       -------------------------------
              Total Lewis    0.00000  (  0.0000%)
        Valence non-Lewis    0.35597  ( 99.0842%)
        Rydberg non-Lewis    0.00329  (  0.9158%)
       -------------------------------
            Total unit  2    0.35926  (100.0000%)
           Charge unit  2    0.14074
 
 Molecular unit  3  (NO2)
    58. BD (   1) O  48 - N  50          0.99661    -1.02150  104(r),107(g),515(v),500(r)
                                                    485(r),103(r),487(r),124(r)
                                                    111(r)
    59. BD (   1) O  49 - N  50          0.99913    -0.55045  599(g),504(v),124(r)
    60. BD (   2) O  49 - N  50          0.99208    -1.25875  107(v),502(v),529(g),104(r)
                                                    488(r)
    88. CR (   1) O  48                  0.99994   -19.55270  104(r),107(g),531(v),500(r)
                                                    501(r)
    89. CR (   1) O  49                  0.99990   -19.48642  529(v)
    90. CR (   1) N  50                  0.99988   -14.80787  517(v),104(r)
   105. LP (   1) O  48                  0.98288    -0.93451  104(r),107(g),531(v),501(r)
                                                    103(r),500(r),597(r),549(r)
                                                    577(r)
   106. LP (   2) O  48                  0.87769    -0.40342  599(v),530(v),104(r),549(r)
                                                    577(r),548(r)
   107. LP (   3) O  48                  0.40293    -0.25694  104(r),103(r),600(v),503(g)
                                                    528(v),500(r),577(r)
   108. LP (   1) O  49                  0.99601    -0.90278  529(v),528(v),104(r),485(r)
   109. LP (   2) O  49                  0.94167    -0.42278  598(v),107(r),528(v),531(v)
                                                    529(v),104(r)
   110. LP (   1) N  50                  0.97830    -0.62445  107(v),515(v),541(r),502(v)
                                                    506(v),104(r),500(r),543(r)
                                                    549(r),577(r)
   502. RY*(   1) O  48                  0.00141     1.24608   
   503. RY*(   2) O  48                  0.00065     1.84668   
   504. RY*(   3) O  48                  0.00058     1.03801   
   505. RY*(   4) O  48                  0.00016     1.58342   
   506. RY*(   5) O  48                  0.00005     2.78118   
   507. RY*(   6) O  48                  0.00000     4.90465   
   508. RY*(   7) O  48                  0.00000    49.67153   
   509. RY*(   8) O  48                  0.00001     4.47328   
   510. RY*(   9) O  48                  0.00000     3.08406   
   511. RY*(  10) O  48                  0.00000     3.16195   
   512. RY*(  11) O  48                  0.00000     4.86563   
   513. RY*(  12) O  48                  0.00000     2.85884   
   514. RY*(  13) O  48                  0.00000     3.15393   
   515. RY*(   1) O  49                  0.00239     1.08721   
   516. RY*(   2) O  49                  0.00056     0.97886   
   517. RY*(   3) O  49                  0.00011     1.59553   
   518. RY*(   4) O  49                  0.00004     2.92603   
   519. RY*(   5) O  49                  0.00000    49.78825   
   520. RY*(   6) O  49                  0.00000     4.91735   
   521. RY*(   7) O  49                  0.00001     1.87543   
   522. RY*(   8) O  49                  0.00000     4.81923   
   523. RY*(   9) O  49                  0.00000     3.04886   
   524. RY*(  10) O  49                  0.00000     4.90982   
   525. RY*(  11) O  49                  0.00000     2.81439   
   526. RY*(  12) O  49                  0.00000     2.99409   
   527. RY*(  13) O  49                  0.00001     2.92375   
   528. RY*(   1) N  50                  0.00630     1.40844   
   529. RY*(   2) N  50                  0.00329     0.95663   
   530. RY*(   3) N  50                  0.00227     2.12455   
   531. RY*(   4) N  50                  0.00097     1.23431   
   532. RY*(   5) N  50                  0.00033     3.33084   
   533. RY*(   6) N  50                  0.00005     1.34345   
   534. RY*(   7) N  50                  0.00001     3.45374   
   535. RY*(   8) N  50                  0.00001     1.85917   
   536. RY*(   9) N  50                  0.00000     2.35413   
   537. RY*(  10) N  50                  0.00001     2.17545   
   538. RY*(  11) N  50                  0.00000     3.34786   
   539. RY*(  12) N  50                  0.00000    34.83536   
   540. RY*(  13) N  50                  0.00001     3.65778   
   598. BD*(   1) O  48 - N  50          0.04170     0.34375   
   599. BD*(   1) O  49 - N  50          0.11903    -0.03805  516(g),530(g),537(g),526(g)
                                                    541(r),543(r)
   600. BD*(   2) O  49 - N  50          0.00458     0.62807   
       -------------------------------
              Total Lewis   11.16702  ( 98.3742%)
        Valence non-Lewis    0.16532  (  1.4563%)
        Rydberg non-Lewis    0.01924  (  0.1695%)
       -------------------------------
            Total unit  3   11.35158  (100.0000%)
           Charge unit  3    0.14842
 1\1\GINC-N02\SP\UM062X\6-311G(d)\C21H20N1O8(2)\UNKNOWN\02-Dec-2024\0\\
 # pop=nbo M062X/6-311g(d) scrf=(smd,solvent=generic,read) temperature=
 298.15 Geom=Check Guess=Read\\Reagente 1\\0,2\C,0,-2.4629578986,0.4099
 448228,-0.0159339641\H,0,-2.0623699185,0.8647779248,-0.9188856792\C,0,
 -1.7493520128,0.4742375747,1.1198817687\H,0,-2.105855467,0.0443824421,
 2.0505700392\C,0,-0.4566382389,1.1599611023,1.2328075449\O,0,0.1497795
 151,1.2181609574,2.2818565818\C,0,-3.7709389062,-0.2090881139,-0.19499
 41594\C,0,-4.4243161203,-0.048909278,-1.4198843008\C,0,-4.4058646177,-
 0.9558766047,0.8108770543\C,0,-5.6778528091,-0.6044748285,-1.637605064
 \H,0,-3.9522614837,0.5313861869,-2.2063093881\C,0,-5.6518176662,-1.512
 4634667,0.6059595876\H,0,-3.9403299652,-1.1124401563,1.7779710599\C,0,
 -6.3013971852,-1.3359703502,-0.6321056448\H,0,-6.1837590447,-0.4648267
 92,-2.5881297446\O,0,-7.523907471,-1.8922273227,-0.77064663\H,0,-7.874
 7931861,-1.7025020894,-1.6505805081\O,0,-6.2654595248,-2.1996117248,1.
 6112947787\C,0,-6.2969480236,-3.6123927951,1.4078979254\H,0,-5.2797276
 929,-4.0094312508,1.34124254\H,0,-6.7967648674,-4.0381171574,2.2761102
 018\H,0,-6.854025555,-3.8683660923,0.504891902\C,0,2.6932643174,0.3682
 946507,0.0422462328\H,0,1.7463501651,-0.152788199,-0.0886656441\C,0,2.
 6867119025,1.698745917,0.2151630491\H,0,3.5987113523,2.2672584979,0.36
 99309272\C,0,1.4651098268,2.5167701522,0.2468854631\O,0,1.5043934127,3
 .7088857436,0.4531107888\C,0,3.8662785902,-0.5024533156,0.0144965609\C
 ,0,3.6819080964,-1.8779744122,-0.1437916319\C,0,5.1782547407,-0.016203
 6395,0.1361010696\C,0,4.7645513214,-2.7478498381,-0.1661086641\H,0,2.6
 773386314,-2.2753646277,-0.243014992\C,0,6.2618796186,-0.8709769485,0.
 1202342492\H,0,5.3811131077,1.0423771566,0.25621532\C,0,6.0579574248,-
 2.2567573315,-0.0281674874\H,0,4.6086848935,-3.8162781429,-0.281669939
 8\O,0,7.1543587059,-3.046646547,-0.0180129423\H,0,6.8945646699,-3.9713
 044787,-0.1211957408\O,0,7.5220660499,-0.3756449294,0.2843738211\C,0,8
 .3054850965,-0.3882370254,-0.9089527206\H,0,7.8295761865,0.221208806,-
 1.6827958155\H,0,9.2703777478,0.0434778924,-0.6492198638\H,0,8.4487403
 515,-1.4061844341,-1.2758072684\C,0,0.1336240061,1.8259233028,0.002562
 1945\H,0,0.1001254963,1.2182541007,-0.9034172588\H,0,-0.6293752728,2.7
 50742238,-0.2508675862\O,0,-1.4947232061,3.6544584155,-0.7066110302\O,
 0,-2.7027188882,3.8372021883,-2.3967726092\N,0,-1.9040174048,3.1453572
 092,-1.8641140127\\Version=ES64L-G16RevA.03\State=2-A\HF=-1468.3552808
 \S2=0.763366\S2-1=0.\S2A=0.750123\RMSD=1.886e-09\Dipole=-0.3960279,-4.
 4014108,-2.726241\Quadrupole=18.189234,-8.5765928,-9.6126412,-1.323935
 7,1.5382063,0.3291733\PG=C01 [X(C21H20N1O8)]\\@


 This summer one third of the nation will be ill-housed
 ill-nourished and ill-clad. Only they call it a vacation.
 -- Jonas Salk
 Job cpu time:       0 days  0 hours  1 minutes 24.5 seconds.
 Elapsed time:       0 days  0 hours  1 minutes 25.0 seconds.
 File lengths (MBytes):  RWF=    645 Int=      0 D2E=      0 Chk=     50 Scr=      1
 Normal termination of Gaussian 16 at Mon Dec  2 13:09:15 2024.
