 Entering Gaussian System, Link 0=g16
 Initial command:
 /sw/cluster/pub/apps//g16/l1.exe "/data/mmaximo/25391/Gau-1508487.inp" -scrdir="/data/mmaximo/25391/"
 Entering Link 1 = /sw/cluster/pub/apps//g16/l1.exe PID=   1508488.
  
 Copyright (c) 1988,1990,1992,1993,1995,1998,2003,2009,2016,
            Gaussian, Inc.  All Rights Reserved.
  
 This is part of the Gaussian(R) 16 program.  It is based on
 the Gaussian(R) 09 system (copyright 2009, Gaussian, Inc.),
 the Gaussian(R) 03 system (copyright 2003, Gaussian, Inc.),
 the Gaussian(R) 98 system (copyright 1998, Gaussian, Inc.),
 the Gaussian(R) 94 system (copyright 1995, Gaussian, Inc.),
 the Gaussian 92(TM) system (copyright 1992, Gaussian, Inc.),
 the Gaussian 90(TM) system (copyright 1990, Gaussian, Inc.),
 the Gaussian 88(TM) system (copyright 1988, Gaussian, Inc.),
 the Gaussian 86(TM) system (copyright 1986, Carnegie Mellon
 University), and the Gaussian 82(TM) system (copyright 1983,
 Carnegie Mellon University). Gaussian is a federally registered
 trademark of Gaussian, Inc.
  
 This software contains proprietary and confidential information,
 including trade secrets, belonging to Gaussian, Inc.
  
 This software is provided under written license and may be
 used, copied, transmitted, or stored only in accord with that
 written license.
  
 The following legend is applicable only to US Government
 contracts under FAR:
  
                    RESTRICTED RIGHTS LEGEND
  
 Use, reproduction and disclosure by the US Government is
 subject to restrictions as set forth in subparagraphs (a)
 and (c) of the Commercial Computer Software - Restricted
 Rights clause in FAR 52.227-19.
  
 Gaussian, Inc.
 340 Quinnipiac St., Bldg. 40, Wallingford CT 06492
  
  
 ---------------------------------------------------------------
 Warning -- This program may not be used in any manner that
 competes with the business of Gaussian, Inc. or will provide
 assistance to any competitor of Gaussian, Inc.  The licensee
 of this program is prohibited from giving any competitor of
 Gaussian, Inc. access to this program.  By using this program,
 the user acknowledges that Gaussian, Inc. is engaged in the
 business of creating and licensing software in the field of
 computational chemistry and represents and warrants to the
 licensee that it is not a competitor of Gaussian, Inc. and that
 it will not use this program in any manner prohibited above.
 ---------------------------------------------------------------
  

 Cite this work as:
 Gaussian 16, Revision A.03,
 M. J. Frisch, G. W. Trucks, H. B. Schlegel, G. E. Scuseria, 
 M. A. Robb, J. R. Cheeseman, G. Scalmani, V. Barone, 
 G. A. Petersson, H. Nakatsuji, X. Li, M. Caricato, A. V. Marenich, 
 J. Bloino, B. G. Janesko, R. Gomperts, B. Mennucci, H. P. Hratchian, 
 J. V. Ortiz, A. F. Izmaylov, J. L. Sonnenberg, D. Williams-Young, 
 F. Ding, F. Lipparini, F. Egidi, J. Goings, B. Peng, A. Petrone, 
 T. Henderson, D. Ranasinghe, V. G. Zakrzewski, J. Gao, N. Rega, 
 G. Zheng, W. Liang, M. Hada, M. Ehara, K. Toyota, R. Fukuda, 
 J. Hasegawa, M. Ishida, T. Nakajima, Y. Honda, O. Kitao, H. Nakai, 
 T. Vreven, K. Throssell, J. A. Montgomery, Jr., J. E. Peralta, 
 F. Ogliaro, M. J. Bearpark, J. J. Heyd, E. N. Brothers, K. N. Kudin, 
 V. N. Staroverov, T. A. Keith, R. Kobayashi, J. Normand, 
 K. Raghavachari, A. P. Rendell, J. C. Burant, S. S. Iyengar, 
 J. Tomasi, M. Cossi, J. M. Millam, M. Klene, C. Adamo, R. Cammi, 
 J. W. Ochterski, R. L. Martin, K. Morokuma, O. Farkas, 
 J. B. Foresman, and D. J. Fox, Gaussian, Inc., Wallingford CT, 2016.
 
 ******************************************
 Gaussian 16:  ES64L-G16RevA.03 25-Dec-2016
                 6-Nov-2024 
 ******************************************
 %chk=CURCUMIN-OPT-FREQ-TS2-M06-2X-6-311G-D-298.chk
 ----------------------------------------------------------------------
 # opt=(calcfc) freq=noraman M062X/6-311g(d) scrf=(smd,solvent=generic,
 read) temperature=298.15 SCF=(MaxCycle=500)
 ----------------------------------------------------------------------
 1/10=4,18=20,19=15,26=3,38=1,40=2,112=298150/1,3;
 2/9=110,12=2,17=6,18=5,40=1/2;
 3/5=4,6=6,7=1,11=2,25=1,30=1,70=32203,71=2,72=-2,74=-55,140=1/1,2,3;
 4//1;
 5/5=2,7=500,38=5/2;
 8/6=4,10=90,11=11/1;
 11/6=1,8=1,9=11,15=111,16=1/1,2,10;
 10/6=1,13=1/2;
 6/7=2,8=2,9=2,10=2,28=1/1;
 7/10=1,18=20,25=1/1,2,3,16;
 1/10=4,18=20,19=15,26=3/3(2);
 2/9=110/2;
 99//99;
 2/9=110/2;
 3/5=4,6=6,7=1,11=2,25=1,30=1,70=32205,71=1,72=-2,74=-55/1,2,3;
 4/5=5,16=3,69=1/1;
 5/5=2,7=500,38=5/2;
 7//1,2,3,16;
 1/18=20,19=15,26=3/3(-5);
 2/9=110/2;
 6/7=2,8=2,9=2,10=2,19=2,28=1/1;
 99/9=1/99;
 ---
 XXX
 ---
 Symbolic Z-matrix:
 Charge =  0 Multiplicity = 2
 C                    -2.70606   0.25508  -0.19933 
 H                    -2.41365   0.95345  -0.97915 
 C                    -1.83253  -0.02274   0.79259 
 H                    -2.09149  -0.72436   1.58017 
 C                    -0.46772   0.5082    0.94103 
 O                     0.25161   0.09722   1.86074 
 C                    -4.04464  -0.29118  -0.37093 
 C                    -4.80762   0.12619  -1.47355 
 C                    -4.61986  -1.22918   0.51001 
 C                    -6.09143  -0.35965  -1.68287 
 H                    -4.39056   0.84506  -2.17123 
 C                    -5.89855  -1.72122   0.31526 
 H                    -4.08007  -1.58611   1.37977 
 C                    -6.65291  -1.27779  -0.79499 
 H                    -6.67293  -0.01825  -2.53481 
 O                    -7.91077  -1.76443  -0.93606 
 H                    -8.32323  -1.38295  -1.72402 
 O                    -6.43285  -2.57834   1.23962 
 C                    -6.64663  -3.92644   0.79199 
 H                    -5.70652  -4.37361   0.45281 
 H                    -7.01541  -4.4759    1.65762 
 H                    -7.38699  -3.97026  -0.0087 
 C                     2.69561   0.06086  -0.02281 
 H                     1.78647  -0.52653  -0.09076 
 C                     2.58654   1.40826   0.05028 
 H                     3.46451   2.04591   0.08572 
 C                     1.34203   2.15065  -0.02103 
 O                     1.3848    3.39138  -0.16025 
 C                     3.91506  -0.72438  -0.03611 
 C                     3.81205  -2.12277  -0.13352 
 C                     5.20648  -0.1615    0.03586 
 C                     4.9435   -2.92551  -0.14659 
 H                     2.83146  -2.58322  -0.19192 
 C                     6.34327  -0.94885   0.0258 
 H                     5.34859   0.90999   0.11522 
 C                     6.21463  -2.35473  -0.06162 
 H                     4.84696  -4.0058   -0.21086 
 O                     7.35144  -3.09058  -0.04424 
 H                     7.13484  -4.03212  -0.10311 
 O                     7.56915  -0.35694   0.16712 
 C                     8.42085  -0.39999  -0.9893 
 H                     7.93353   0.07888  -1.8447 
 H                     9.31649   0.16081  -0.72407 
 H                     8.6963   -1.42436  -1.24613 
 C                     0.00262   1.53622   0.013 
 H                    -0.72717   2.05167  -0.60036 
 H                     0.07476   4.43042  -0.39033 
 O                    -0.67897   5.05541  -0.56849 
 O                    -2.10566   6.09034   0.62812 
 N                    -1.19204   5.34253   0.68534 
 
 Add virtual bond connecting atoms H47        and O28        Dist= 3.19D+00.

 GradGradGradGradGradGradGradGradGradGradGradGradGradGradGradGradGradGrad
 Berny optimization.
 Initialization pass.
                           ----------------------------
                           !    Initial Parameters    !
                           ! (Angstroms and Degrees)  !
 --------------------------                            --------------------------
 ! Name  Definition              Value          Derivative Info.                !
 --------------------------------------------------------------------------------
 ! R1    R(1,2)                  1.0869         calculate D2E/DX2 analytically  !
 ! R2    R(1,3)                  1.3506         calculate D2E/DX2 analytically  !
 ! R3    R(1,7)                  1.4559         calculate D2E/DX2 analytically  !
 ! R4    R(3,4)                  1.0861         calculate D2E/DX2 analytically  !
 ! R5    R(3,5)                  1.472          calculate D2E/DX2 analytically  !
 ! R6    R(5,6)                  1.2378         calculate D2E/DX2 analytically  !
 ! R7    R(5,45)                 1.4626         calculate D2E/DX2 analytically  !
 ! R8    R(7,8)                  1.4043         calculate D2E/DX2 analytically  !
 ! R9    R(7,9)                  1.4095         calculate D2E/DX2 analytically  !
 ! R10   R(8,10)                 1.3885         calculate D2E/DX2 analytically  !
 ! R11   R(8,11)                 1.0851         calculate D2E/DX2 analytically  !
 ! R12   R(9,12)                 1.3839         calculate D2E/DX2 analytically  !
 ! R13   R(9,13)                 1.0841         calculate D2E/DX2 analytically  !
 ! R14   R(10,14)                1.3952         calculate D2E/DX2 analytically  !
 ! R15   R(10,15)                1.0865         calculate D2E/DX2 analytically  !
 ! R16   R(12,14)                1.4136         calculate D2E/DX2 analytically  !
 ! R17   R(12,18)                1.3691         calculate D2E/DX2 analytically  !
 ! R18   R(14,16)                1.3561         calculate D2E/DX2 analytically  !
 ! R19   R(16,17)                0.9677         calculate D2E/DX2 analytically  !
 ! R20   R(18,19)                1.4365         calculate D2E/DX2 analytically  !
 ! R21   R(19,20)                1.0949         calculate D2E/DX2 analytically  !
 ! R22   R(19,21)                1.0896         calculate D2E/DX2 analytically  !
 ! R23   R(19,22)                1.0914         calculate D2E/DX2 analytically  !
 ! R24   R(23,24)                1.0845         calculate D2E/DX2 analytically  !
 ! R25   R(23,25)                1.3538         calculate D2E/DX2 analytically  !
 ! R26   R(23,29)                1.4505         calculate D2E/DX2 analytically  !
 ! R27   R(25,26)                1.0857         calculate D2E/DX2 analytically  !
 ! R28   R(25,27)                1.4509         calculate D2E/DX2 analytically  !
 ! R29   R(27,28)                1.2492         calculate D2E/DX2 analytically  !
 ! R30   R(27,45)                1.474          calculate D2E/DX2 analytically  !
 ! R31   R(28,47)                1.6878         calculate D2E/DX2 analytically  !
 ! R32   R(29,30)                1.4056         calculate D2E/DX2 analytically  !
 ! R33   R(29,31)                1.4106         calculate D2E/DX2 analytically  !
 ! R34   R(30,32)                1.3874         calculate D2E/DX2 analytically  !
 ! R35   R(30,33)                1.0849         calculate D2E/DX2 analytically  !
 ! R36   R(31,34)                1.3829         calculate D2E/DX2 analytically  !
 ! R37   R(31,35)                1.0838         calculate D2E/DX2 analytically  !
 ! R38   R(32,36)                1.396          calculate D2E/DX2 analytically  !
 ! R39   R(32,37)                1.0865         calculate D2E/DX2 analytically  !
 ! R40   R(34,36)                1.4145         calculate D2E/DX2 analytically  !
 ! R41   R(34,40)                1.3686         calculate D2E/DX2 analytically  !
 ! R42   R(36,38)                1.3543         calculate D2E/DX2 analytically  !
 ! R43   R(38,39)                0.9679         calculate D2E/DX2 analytically  !
 ! R44   R(40,41)                1.4369         calculate D2E/DX2 analytically  !
 ! R45   R(41,42)                1.0948         calculate D2E/DX2 analytically  !
 ! R46   R(41,43)                1.0895         calculate D2E/DX2 analytically  !
 ! R47   R(41,44)                1.0914         calculate D2E/DX2 analytically  !
 ! R48   R(45,46)                1.0837         calculate D2E/DX2 analytically  !
 ! R49   R(47,48)                0.9952         calculate D2E/DX2 analytically  !
 ! R50   R(48,50)                1.3848         calculate D2E/DX2 analytically  !
 ! R51   R(49,50)                1.182          calculate D2E/DX2 analytically  !
 ! A1    A(2,1,3)              119.0187         calculate D2E/DX2 analytically  !
 ! A2    A(2,1,7)              113.8202         calculate D2E/DX2 analytically  !
 ! A3    A(3,1,7)              127.1597         calculate D2E/DX2 analytically  !
 ! A4    A(1,3,4)              120.7461         calculate D2E/DX2 analytically  !
 ! A5    A(1,3,5)              126.8382         calculate D2E/DX2 analytically  !
 ! A6    A(4,3,5)              112.3935         calculate D2E/DX2 analytically  !
 ! A7    A(3,5,6)              119.6034         calculate D2E/DX2 analytically  !
 ! A8    A(3,5,45)             119.1895         calculate D2E/DX2 analytically  !
 ! A9    A(6,5,45)             121.1932         calculate D2E/DX2 analytically  !
 ! A10   A(1,7,8)              118.7223         calculate D2E/DX2 analytically  !
 ! A11   A(1,7,9)              123.451          calculate D2E/DX2 analytically  !
 ! A12   A(8,7,9)              117.8256         calculate D2E/DX2 analytically  !
 ! A13   A(7,8,10)             121.1115         calculate D2E/DX2 analytically  !
 ! A14   A(7,8,11)             119.5315         calculate D2E/DX2 analytically  !
 ! A15   A(10,8,11)            119.356          calculate D2E/DX2 analytically  !
 ! A16   A(7,9,12)             121.7173         calculate D2E/DX2 analytically  !
 ! A17   A(7,9,13)             121.1532         calculate D2E/DX2 analytically  !
 ! A18   A(12,9,13)            117.1245         calculate D2E/DX2 analytically  !
 ! A19   A(8,10,14)            120.4249         calculate D2E/DX2 analytically  !
 ! A20   A(8,10,15)            120.2049         calculate D2E/DX2 analytically  !
 ! A21   A(14,10,15)           119.3662         calculate D2E/DX2 analytically  !
 ! A22   A(9,12,14)            119.4773         calculate D2E/DX2 analytically  !
 ! A23   A(9,12,18)            119.2195         calculate D2E/DX2 analytically  !
 ! A24   A(14,12,18)           121.2227         calculate D2E/DX2 analytically  !
 ! A25   A(10,14,12)           119.4379         calculate D2E/DX2 analytically  !
 ! A26   A(10,14,16)           122.9047         calculate D2E/DX2 analytically  !
 ! A27   A(12,14,16)           117.6536         calculate D2E/DX2 analytically  !
 ! A28   A(14,16,17)           109.7904         calculate D2E/DX2 analytically  !
 ! A29   A(12,18,19)           115.7985         calculate D2E/DX2 analytically  !
 ! A30   A(18,19,20)           110.612          calculate D2E/DX2 analytically  !
 ! A31   A(18,19,21)           106.0252         calculate D2E/DX2 analytically  !
 ! A32   A(18,19,22)           111.5457         calculate D2E/DX2 analytically  !
 ! A33   A(20,19,21)           109.3156         calculate D2E/DX2 analytically  !
 ! A34   A(20,19,22)           109.8027         calculate D2E/DX2 analytically  !
 ! A35   A(21,19,22)           109.4508         calculate D2E/DX2 analytically  !
 ! A36   A(24,23,25)           118.3536         calculate D2E/DX2 analytically  !
 ! A37   A(24,23,29)           114.2668         calculate D2E/DX2 analytically  !
 ! A38   A(25,23,29)           127.3762         calculate D2E/DX2 analytically  !
 ! A39   A(23,25,26)           121.4115         calculate D2E/DX2 analytically  !
 ! A40   A(23,25,27)           125.1504         calculate D2E/DX2 analytically  !
 ! A41   A(26,25,27)           113.2494         calculate D2E/DX2 analytically  !
 ! A42   A(25,27,28)           118.967          calculate D2E/DX2 analytically  !
 ! A43   A(25,27,45)           124.403          calculate D2E/DX2 analytically  !
 ! A44   A(28,27,45)           116.5953         calculate D2E/DX2 analytically  !
 ! A45   A(27,28,47)           126.872          calculate D2E/DX2 analytically  !
 ! A46   A(23,29,30)           118.5308         calculate D2E/DX2 analytically  !
 ! A47   A(23,29,31)           123.5873         calculate D2E/DX2 analytically  !
 ! A48   A(30,29,31)           117.8809         calculate D2E/DX2 analytically  !
 ! A49   A(29,30,32)           121.1007         calculate D2E/DX2 analytically  !
 ! A50   A(29,30,33)           119.4876         calculate D2E/DX2 analytically  !
 ! A51   A(32,30,33)           119.41           calculate D2E/DX2 analytically  !
 ! A52   A(29,31,34)           121.6704         calculate D2E/DX2 analytically  !
 ! A53   A(29,31,35)           121.2182         calculate D2E/DX2 analytically  !
 ! A54   A(34,31,35)           117.1064         calculate D2E/DX2 analytically  !
 ! A55   A(30,32,36)           120.3616         calculate D2E/DX2 analytically  !
 ! A56   A(30,32,37)           120.2251         calculate D2E/DX2 analytically  !
 ! A57   A(36,32,37)           119.409          calculate D2E/DX2 analytically  !
 ! A58   A(31,34,36)           119.446          calculate D2E/DX2 analytically  !
 ! A59   A(31,34,40)           119.2959         calculate D2E/DX2 analytically  !
 ! A60   A(36,34,40)           121.1787         calculate D2E/DX2 analytically  !
 ! A61   A(32,36,34)           119.5354         calculate D2E/DX2 analytically  !
 ! A62   A(32,36,38)           122.8852         calculate D2E/DX2 analytically  !
 ! A63   A(34,36,38)           117.5758         calculate D2E/DX2 analytically  !
 ! A64   A(36,38,39)           109.8716         calculate D2E/DX2 analytically  !
 ! A65   A(34,40,41)           115.7767         calculate D2E/DX2 analytically  !
 ! A66   A(40,41,42)           110.6028         calculate D2E/DX2 analytically  !
 ! A67   A(40,41,43)           106.0176         calculate D2E/DX2 analytically  !
 ! A68   A(40,41,44)           111.538          calculate D2E/DX2 analytically  !
 ! A69   A(42,41,43)           109.3291         calculate D2E/DX2 analytically  !
 ! A70   A(42,41,44)           109.8172         calculate D2E/DX2 analytically  !
 ! A71   A(43,41,44)           109.4469         calculate D2E/DX2 analytically  !
 ! A72   A(5,45,27)            126.8577         calculate D2E/DX2 analytically  !
 ! A73   A(5,45,46)            118.4803         calculate D2E/DX2 analytically  !
 ! A74   A(27,45,46)           113.6146         calculate D2E/DX2 analytically  !
 ! A75   A(47,48,50)           104.4012         calculate D2E/DX2 analytically  !
 ! A76   A(48,50,49)           111.944          calculate D2E/DX2 analytically  !
 ! A77   L(28,47,48,1,-1)      181.2865         calculate D2E/DX2 analytically  !
 ! A78   L(28,47,48,1,-2)      182.4615         calculate D2E/DX2 analytically  !
 ! D1    D(2,1,3,4)           -179.3439         calculate D2E/DX2 analytically  !
 ! D2    D(2,1,3,5)             -1.1918         calculate D2E/DX2 analytically  !
 ! D3    D(7,1,3,4)              0.1973         calculate D2E/DX2 analytically  !
 ! D4    D(7,1,3,5)            178.3495         calculate D2E/DX2 analytically  !
 ! D5    D(2,1,7,8)             -0.5928         calculate D2E/DX2 analytically  !
 ! D6    D(2,1,7,9)            179.0093         calculate D2E/DX2 analytically  !
 ! D7    D(3,1,7,8)            179.8456         calculate D2E/DX2 analytically  !
 ! D8    D(3,1,7,9)             -0.5522         calculate D2E/DX2 analytically  !
 ! D9    D(1,3,5,6)           -175.4351         calculate D2E/DX2 analytically  !
 ! D10   D(1,3,5,45)             5.905          calculate D2E/DX2 analytically  !
 ! D11   D(4,3,5,6)              2.8473         calculate D2E/DX2 analytically  !
 ! D12   D(4,3,5,45)          -175.8126         calculate D2E/DX2 analytically  !
 ! D13   D(3,5,45,27)         -177.8679         calculate D2E/DX2 analytically  !
 ! D14   D(3,5,45,46)           14.6364         calculate D2E/DX2 analytically  !
 ! D15   D(6,5,45,27)            3.4942         calculate D2E/DX2 analytically  !
 ! D16   D(6,5,45,46)         -164.0015         calculate D2E/DX2 analytically  !
 ! D17   D(1,7,8,10)          -179.7967         calculate D2E/DX2 analytically  !
 ! D18   D(1,7,8,11)            -0.1779         calculate D2E/DX2 analytically  !
 ! D19   D(9,7,8,10)             0.5786         calculate D2E/DX2 analytically  !
 ! D20   D(9,7,8,11)          -179.8026         calculate D2E/DX2 analytically  !
 ! D21   D(1,7,9,12)           179.7434         calculate D2E/DX2 analytically  !
 ! D22   D(1,7,9,13)             0.5768         calculate D2E/DX2 analytically  !
 ! D23   D(8,7,9,12)            -0.6511         calculate D2E/DX2 analytically  !
 ! D24   D(8,7,9,13)          -179.8177         calculate D2E/DX2 analytically  !
 ! D25   D(7,8,10,14)            0.0472         calculate D2E/DX2 analytically  !
 ! D26   D(7,8,10,15)          179.3143         calculate D2E/DX2 analytically  !
 ! D27   D(11,8,10,14)        -179.5723         calculate D2E/DX2 analytically  !
 ! D28   D(11,8,10,15)          -0.3052         calculate D2E/DX2 analytically  !
 ! D29   D(7,9,12,14)            0.0964         calculate D2E/DX2 analytically  !
 ! D30   D(7,9,12,18)         -176.6822         calculate D2E/DX2 analytically  !
 ! D31   D(13,9,12,14)         179.2951         calculate D2E/DX2 analytically  !
 ! D32   D(13,9,12,18)           2.5165         calculate D2E/DX2 analytically  !
 ! D33   D(8,10,14,12)          -0.6169         calculate D2E/DX2 analytically  !
 ! D34   D(8,10,14,16)         178.6549         calculate D2E/DX2 analytically  !
 ! D35   D(15,10,14,12)       -179.8901         calculate D2E/DX2 analytically  !
 ! D36   D(15,10,14,16)         -0.6184         calculate D2E/DX2 analytically  !
 ! D37   D(9,12,14,10)           0.5442         calculate D2E/DX2 analytically  !
 ! D38   D(9,12,14,16)        -178.7655         calculate D2E/DX2 analytically  !
 ! D39   D(18,12,14,10)        177.2565         calculate D2E/DX2 analytically  !
 ! D40   D(18,12,14,16)         -2.0533         calculate D2E/DX2 analytically  !
 ! D41   D(9,12,18,19)        -112.6498         calculate D2E/DX2 analytically  !
 ! D42   D(14,12,18,19)         70.6296         calculate D2E/DX2 analytically  !
 ! D43   D(10,14,16,17)          0.27           calculate D2E/DX2 analytically  !
 ! D44   D(12,14,16,17)        179.554          calculate D2E/DX2 analytically  !
 ! D45   D(12,18,19,20)         58.3843         calculate D2E/DX2 analytically  !
 ! D46   D(12,18,19,21)        176.7898         calculate D2E/DX2 analytically  !
 ! D47   D(12,18,19,22)        -64.1392         calculate D2E/DX2 analytically  !
 ! D48   D(24,23,25,26)       -177.8885         calculate D2E/DX2 analytically  !
 ! D49   D(24,23,25,27)         -3.2249         calculate D2E/DX2 analytically  !
 ! D50   D(29,23,25,26)          1.4015         calculate D2E/DX2 analytically  !
 ! D51   D(29,23,25,27)        176.0652         calculate D2E/DX2 analytically  !
 ! D52   D(24,23,29,30)          0.0592         calculate D2E/DX2 analytically  !
 ! D53   D(24,23,29,31)        179.6824         calculate D2E/DX2 analytically  !
 ! D54   D(25,23,29,30)       -179.2555         calculate D2E/DX2 analytically  !
 ! D55   D(25,23,29,31)          0.3677         calculate D2E/DX2 analytically  !
 ! D56   D(23,25,27,28)       -168.461          calculate D2E/DX2 analytically  !
 ! D57   D(23,25,27,45)          9.3204         calculate D2E/DX2 analytically  !
 ! D58   D(26,25,27,28)          6.5833         calculate D2E/DX2 analytically  !
 ! D59   D(26,25,27,45)       -175.6354         calculate D2E/DX2 analytically  !
 ! D60   D(25,27,28,47)        174.6708         calculate D2E/DX2 analytically  !
 ! D61   D(45,27,28,47)         -3.2821         calculate D2E/DX2 analytically  !
 ! D62   D(25,27,45,5)          46.5627         calculate D2E/DX2 analytically  !
 ! D63   D(25,27,45,46)       -145.4252         calculate D2E/DX2 analytically  !
 ! D64   D(28,27,45,5)        -135.6081         calculate D2E/DX2 analytically  !
 ! D65   D(28,27,45,46)         32.404          calculate D2E/DX2 analytically  !
 ! D66   D(27,28,48,50)         84.3617         calculate D2E/DX2 analytically  !
 ! D67   D(23,29,30,32)       -179.7953         calculate D2E/DX2 analytically  !
 ! D68   D(23,29,30,33)         -0.2632         calculate D2E/DX2 analytically  !
 ! D69   D(31,29,30,32)          0.5598         calculate D2E/DX2 analytically  !
 ! D70   D(31,29,30,33)       -179.908          calculate D2E/DX2 analytically  !
 ! D71   D(23,29,31,34)        179.7206         calculate D2E/DX2 analytically  !
 ! D72   D(23,29,31,35)          0.5637         calculate D2E/DX2 analytically  !
 ! D73   D(30,29,31,34)         -0.6539         calculate D2E/DX2 analytically  !
 ! D74   D(30,29,31,35)       -179.8109         calculate D2E/DX2 analytically  !
 ! D75   D(29,30,32,36)          0.0467         calculate D2E/DX2 analytically  !
 ! D76   D(29,30,32,37)        179.294          calculate D2E/DX2 analytically  !
 ! D77   D(33,30,32,36)       -179.4858         calculate D2E/DX2 analytically  !
 ! D78   D(33,30,32,37)         -0.2384         calculate D2E/DX2 analytically  !
 ! D79   D(29,31,34,36)          0.1394         calculate D2E/DX2 analytically  !
 ! D80   D(29,31,34,40)       -176.6586         calculate D2E/DX2 analytically  !
 ! D81   D(35,31,34,36)        179.3294         calculate D2E/DX2 analytically  !
 ! D82   D(35,31,34,40)          2.5315         calculate D2E/DX2 analytically  !
 ! D83   D(30,32,36,34)         -0.5763         calculate D2E/DX2 analytically  !
 ! D84   D(30,32,36,38)        178.7072         calculate D2E/DX2 analytically  !
 ! D85   D(37,32,36,34)       -179.8298         calculate D2E/DX2 analytically  !
 ! D86   D(37,32,36,38)         -0.5462         calculate D2E/DX2 analytically  !
 ! D87   D(31,34,36,32)          0.4829         calculate D2E/DX2 analytically  !
 ! D88   D(31,34,36,38)       -178.8383         calculate D2E/DX2 analytically  !
 ! D89   D(40,34,36,32)        177.2189         calculate D2E/DX2 analytically  !
 ! D90   D(40,34,36,38)         -2.1024         calculate D2E/DX2 analytically  !
 ! D91   D(31,34,40,41)       -112.2534         calculate D2E/DX2 analytically  !
 ! D92   D(36,34,40,41)         71.0059         calculate D2E/DX2 analytically  !
 ! D93   D(32,36,38,39)          0.294          calculate D2E/DX2 analytically  !
 ! D94   D(34,36,38,39)        179.5908         calculate D2E/DX2 analytically  !
 ! D95   D(34,40,41,42)         58.274          calculate D2E/DX2 analytically  !
 ! D96   D(34,40,41,43)        176.6863         calculate D2E/DX2 analytically  !
 ! D97   D(34,40,41,44)        -64.2563         calculate D2E/DX2 analytically  !
 ! D98   D(47,48,50,49)        179.7479         calculate D2E/DX2 analytically  !
 --------------------------------------------------------------------------------
 Trust Radius=3.00D-01 FncErr=1.00D-07 GrdErr=1.00D-06 EigMax=2.50D+02 EigMin=1.00D-04
 Number of steps in this run=    237 maximum allowed number of steps=    300.
 GradGradGradGradGradGradGradGradGradGradGradGradGradGradGradGradGradGrad

                          Input orientation:                          
 ---------------------------------------------------------------------
 Center     Atomic      Atomic             Coordinates (Angstroms)
 Number     Number       Type             X           Y           Z
 ---------------------------------------------------------------------
      1          6           0       -2.706063    0.255079   -0.199328
      2          1           0       -2.413647    0.953447   -0.979154
      3          6           0       -1.832525   -0.022744    0.792593
      4          1           0       -2.091485   -0.724356    1.580170
      5          6           0       -0.467715    0.508197    0.941029
      6          8           0        0.251613    0.097224    1.860741
      7          6           0       -4.044642   -0.291176   -0.370933
      8          6           0       -4.807618    0.126191   -1.473548
      9          6           0       -4.619859   -1.229182    0.510014
     10          6           0       -6.091430   -0.359650   -1.682865
     11          1           0       -4.390562    0.845057   -2.171226
     12          6           0       -5.898547   -1.721223    0.315258
     13          1           0       -4.080067   -1.586109    1.379766
     14          6           0       -6.652908   -1.277794   -0.794985
     15          1           0       -6.672929   -0.018250   -2.534810
     16          8           0       -7.910772   -1.764431   -0.936055
     17          1           0       -8.323230   -1.382950   -1.724018
     18          8           0       -6.432848   -2.578340    1.239615
     19          6           0       -6.646625   -3.926444    0.791993
     20          1           0       -5.706524   -4.373609    0.452807
     21          1           0       -7.015406   -4.475895    1.657622
     22          1           0       -7.386988   -3.970264   -0.008702
     23          6           0        2.695606    0.060859   -0.022810
     24          1           0        1.786470   -0.526532   -0.090764
     25          6           0        2.586543    1.408258    0.050277
     26          1           0        3.464509    2.045912    0.085717
     27          6           0        1.342031    2.150652   -0.021029
     28          8           0        1.384803    3.391378   -0.160254
     29          6           0        3.915058   -0.724381   -0.036111
     30          6           0        3.812047   -2.122765   -0.133519
     31          6           0        5.206478   -0.161500    0.035858
     32          6           0        4.943503   -2.925505   -0.146594
     33          1           0        2.831461   -2.583220   -0.191924
     34          6           0        6.343265   -0.948854    0.025795
     35          1           0        5.348594    0.909989    0.115219
     36          6           0        6.214632   -2.354729   -0.061623
     37          1           0        4.846963   -4.005805   -0.210855
     38          8           0        7.351444   -3.090582   -0.044242
     39          1           0        7.134844   -4.032121   -0.103107
     40          8           0        7.569150   -0.356935    0.167124
     41          6           0        8.420854   -0.399991   -0.989296
     42          1           0        7.933525    0.078878   -1.844700
     43          1           0        9.316487    0.160809   -0.724072
     44          1           0        8.696302   -1.424360   -1.246130
     45          6           0        0.002617    1.536218    0.012995
     46          1           0       -0.727169    2.051671   -0.600355
     47          1           0        0.074762    4.430422   -0.390325
     48          8           0       -0.678967    5.055408   -0.568489
     49          8           0       -2.105655    6.090339    0.628115
     50          7           0       -1.192038    5.342529    0.685339
 ---------------------------------------------------------------------
                    Distance matrix (angstroms):
                    1          2          3          4          5
     1  C    0.000000
     2  H    1.086901   0.000000
     3  C    1.350615   2.104695   0.000000
     4  H    2.122172   3.077166   1.086093   0.000000
     5  C    2.524814   2.769838   1.471950   2.136426   0.000000
     6  O    3.607859   3.987698   2.344987   2.498764   1.237821
     7  C    1.455897   2.139898   2.513824   2.794507   3.892897
     8  C    2.461053   2.580673   3.742827   4.174446   4.981051
     9  C    2.523651   3.442218   3.050340   2.791551   4.521566
    10  C    3.746930   3.968063   4.937577   5.174937   6.266111
    11  H    2.659698   2.311055   4.010094   4.671379   5.018798
    12  C    3.789792   4.579726   4.432292   4.133699   5.903883
    13  H    2.787723   3.845881   2.800058   2.176520   4.198535
    14  C    4.275756   4.794131   5.227968   5.172450   6.667842
    15  H    4.611422   4.637429   5.873767   6.198490   7.131850
    16  O    5.631180   6.132463   6.554905   6.424737   8.005459
    17  H    6.046518   6.398183   7.093148   7.084211   8.508115
    18  O    4.897729   5.792273   5.281465   4.732934   6.722996
    19  C    5.830599   6.698388   6.197938   5.623512   7.607048
    20  H    5.554530   6.424257   5.835525   5.258945   7.177431
    21  H    6.663394   7.589896   6.887749   6.190722   8.259960
    22  H    6.308797   7.065326   6.861272   6.411145   8.296683
    23  C    5.408041   5.274066   4.601722   5.109046   3.337019
    24  H    4.561311   4.540986   3.759155   4.227256   2.686375
    25  C    5.422527   5.125279   4.703930   5.364006   3.306364
    26  H    6.431508   6.072903   5.730408   6.385675   4.307959
    27  C    4.473483   4.056651   3.932358   4.755895   2.626480
    28  O    5.154909   4.587192   4.786998   5.661530   3.599636
    29  C    6.695164   6.614903   5.849253   6.220203   4.656474
    30  C    6.938604   6.995530   6.093354   6.304282   5.137410
    31  C    7.926989   7.767861   7.080923   7.480773   5.784833
    32  C    8.284610   8.358653   7.431194   7.570854   6.500347
    33  H    6.222553   6.374865   5.410922   5.552575   4.661009
    34  C    9.131838   9.017327   8.263728   8.579714   7.024963
    35  H    8.087357   7.839128   7.273053   7.757057   5.888366
    36  C    9.295637   9.286177   8.421673   8.622365   7.338625
    37  H    8.671993   8.826150   7.841380   7.881481   7.067450
    38  O   10.600516  10.610619   9.718910   9.869481   8.663788
    39  H   10.734654  10.807267   9.863625   9.944842   8.916480
    40  O   10.299944  10.133474   9.428382   9.770341   8.120257
    41  C   11.174142  10.918714  10.413896  10.826663   9.140986
    42  H   10.767503  10.420077  10.116391  10.624300   8.861458
    43  H   12.034365  11.759651  11.253197  11.671970   9.930954
    44  H   11.572823  11.364691  10.815596  11.173823   9.617570
    45  C    3.003888   2.676250   2.530984   3.457094   1.462630
    46  H    2.702700   2.047875   2.732273   3.784491   2.196700
    47  H    5.020255   4.316046   4.986755   5.928508   4.177396
    48  O    5.223845   4.472566   5.382459   6.325948   4.795873
    49  O    5.924138   5.391274   6.121392   6.880892   5.825897
    50  N    5.381176   4.850454   5.404432   6.198130   4.894976
                    6          7          8          9         10
     6  O    0.000000
     7  C    4.856854   0.000000
     8  C    6.059219   1.404310   0.000000
     9  C    5.226381   1.409538   2.409732   0.000000
    10  C    7.280115   2.432117   1.388535   2.780346   0.000000
    11  H    6.194013   2.156790   1.085108   3.397660   2.140740
    12  C    6.596949   2.439848   2.793366   1.383863   2.425609
    13  H    4.672087   2.177855   3.406274   1.084085   3.863870
    14  C    7.524358   2.820689   2.415930   2.416335   1.395198
    15  H    8.202651   3.415369   2.150936   3.866834   1.086511
    16  O    8.826798   4.175740   3.673270   3.634242   2.416845
    17  H    9.411129   4.618347   3.834028   4.327759   2.455559
    18  O    7.226788   3.678113   4.161384   2.374758   3.685111
    19  C    8.057159   4.619295   4.993844   3.385634   4.376663
    20  H    7.580899   4.484045   4.976653   3.327392   4.563016
    21  H    8.588611   5.518365   5.988134   4.194853   5.381083
    22  H    8.853672   4.983791   5.057654   3.929326   4.185430
    23  C    3.085804   6.758407   7.642466   7.447425   8.952352
    24  H    2.559928   5.842581   6.769057   6.472689   8.038902
    25  C    3.232412   6.858433   7.657634   7.687631   9.024217
    26  H    4.155815   7.877681   8.633928   8.732885  10.011522
    27  C    2.991093   5.924627   6.635242   6.873821   8.019954
    28  O    4.027405   6.563876   7.122659   7.606234   8.501918
    29  C    4.206413   7.978508   8.881147   8.567257  10.147642
    30  C    4.645655   8.070852   9.008446   8.503509  10.177814
    31  C    5.286570   9.260967  10.131298   9.895538  11.429611
    32  C    5.931283   9.368926  10.303301   9.734811  11.433000
    33  H    4.248980   7.250262   8.206034   7.605807   9.315855
    34  C    6.447444  10.416263  11.302475  10.977392  12.565362
    35  H    5.448546   9.482195  10.309567  10.203037  11.649860
    36  C    6.727938  10.469318  11.385890  10.907787  12.571711
    37  H    6.499508   9.637673  10.577274   9.891916  11.623670
    38  O    8.012407  11.739428  12.658331  12.127824  13.814990
    39  H    8.263598  11.791832  12.719751  12.099811  13.817272
    40  O    7.524689  11.626435  12.494383  12.224988  13.785279
    41  C    8.666397  12.481298  13.247786  13.152782  14.528904
    42  H    8.528916  12.074163  12.746636  12.839126  14.032742
    43  H    9.426412  13.373435  14.144018  14.059758  15.446490
    44  H    9.125823  12.821144  13.594550  13.432881  14.832443
    45  C    2.355179   4.457250   5.228417   5.409413   6.603610
    46  H    3.291636   4.067824   4.595650   5.210562   5.980100
    47  H    4.886223   6.266048   6.598288   7.408184   7.914378
    48  O    5.599172   6.320819   6.493233   7.495990   7.736888
    49  O    6.556943   6.743997   6.876675   7.740191   7.926499
    50  N    5.565871   6.402475   6.703983   7.414046   7.882086
                   11         12         13         14         15
    11  H    0.000000
    12  C    3.878455   0.000000
    13  H    4.314686   2.111469   0.000000
    14  C    3.393928   1.413623   3.382915   0.000000
    15  H    2.467122   3.409204   4.950255   2.147986   0.000000
    16  O    4.552686   2.369958   4.479858   1.356075   2.671595
    17  H    4.542014   3.186246   5.261101   1.914193   2.289822
    18  O    5.246372   1.369147   2.557292   2.424756   4.567054
    19  C    6.052909   2.376951   3.522764   3.087699   5.132474
    20  H    5.987636   2.662883   3.357793   3.469394   5.369259
    21  H    7.061332   3.261523   4.128472   4.046546   6.128978
    22  H    6.069794   2.716356   4.306712   2.899398   4.744420
    23  C    7.446102   8.783483   7.112627   9.475387   9.699786
    24  H    6.660728   7.787915   6.140148   8.501966   8.820042
    25  C    7.343859   9.047686   7.428153   9.659027   9.718818
    26  H    8.260629  10.095089   8.472707  10.685728  10.672187
    27  C    6.260235   8.217693   6.732366   8.733401   8.675414
    28  O    6.624394   8.911340   7.550619   9.317127   9.065932
    29  C    8.718095   9.870360   8.165127  10.609621  10.901724
    30  C    8.957846   9.729248   8.053788  10.519829  10.960379
    31  C    9.898866  11.217503   9.490812  11.940747  12.155211
    32  C   10.268449  10.918500   9.249247  11.730819  12.210536
    33  H    8.235796   8.787111   7.157769   9.592762  10.119368
    34  C   11.102255  12.269568  10.530203  13.026219  13.298272
    35  H   10.004159  11.552553   9.835102  12.233189  12.345092
    36  C   11.276489  12.135587  10.423493  12.933337  13.329104
    37  H   10.616298  10.998277   9.384928  11.833439  12.410047
    38  O   12.565350  13.325414  11.617688  14.141135  14.571383
    39  H   12.684596  13.243284  11.573941  14.077184  14.583516
    40  O   12.245300  13.537433  11.776486  14.284277  14.500068
    41  C   12.925923  14.439278  12.778590  15.100550  15.177504
    42  H   12.352197  14.114957  12.549731  14.686950  14.623070
    43  H   13.800204  15.366181  13.672802  16.034219  16.092615
    44  H   13.314356  14.681133  13.044428  15.356538  15.487127
    45  C    4.954649   6.747297   5.318392   7.271005   7.312359
    46  H    4.164613   6.466547   5.328813   6.799824   6.586255
    47  H    5.997130   8.603546   7.522930   8.832272   8.361868
    48  O    5.837102   8.599288   7.711869   8.709117   8.095431
    49  O    6.369466   8.689327   7.961855   8.774515   8.257054
    50  N    6.214320   8.496163   7.538499   8.708682   8.315496
                   16         17         18         19         20
    16  O    0.000000
    17  H    0.967747   0.000000
    18  O    2.753225   3.712899   0.000000
    19  C    3.042781   3.951035   1.436472   0.000000
    20  H    3.687202   4.530978   2.090360   1.094894   0.000000
    21  H    3.857574   4.765732   2.028502   1.089591   1.781913
    22  H    2.449496   3.242384   2.099079   1.091407   1.788753
    23  C   10.800970  11.242484   9.585810  10.190180   9.512440
    24  H    9.812411  10.276527   8.575372   9.135412   8.440405
    25  C   11.010560  11.400093   9.932618  10.689274  10.117657
    26  H   12.039923  12.408990  10.985120  11.764476  11.200574
    27  C   10.088583  10.430905   9.187020  10.070289   9.616269
    28  O   10.657952  10.930941   9.935433  10.906930  10.533650
    29  C   11.905539  12.371679  10.589797  11.067435  10.301978
    30  C   11.755720  12.261401  10.346541  10.653340   9.798636
    31  C   13.250519  13.698252  11.948391  12.459639  11.705098
    32  C   12.930728  13.448939  11.465752  11.671071  10.764728
    33  H   10.799061  11.323210   9.374260   9.623225   8.747477
    34  C   14.309713  14.776886  12.936678  13.348796  12.534301
    35  H   13.567184  13.984246  12.338358  12.951231  12.257488
    36  C   14.164749  14.664834  12.716209  12.985025  12.101838
    37  H   12.973414  13.513808  11.461922  11.537529  10.580728
    38  O   15.345659  15.856641  13.853425  14.047914  13.130261
    39  H   15.238333  15.766975  13.711260  13.810911  12.857931
    40  O   15.582876  16.037358  14.217624  14.670382  13.872952
    41  C   16.388610  16.788996  15.177144  15.576835  14.746257
    42  H   15.977020  16.322794  14.932062  15.348470  14.531143
    43  H   17.335799  17.735352  16.105917  16.547659  15.736482
    44  H   16.613449  17.026290  15.375363  15.678641  14.799522
    45  C    8.626512   8.992135   7.736239   8.640598   8.228838
    46  H    8.141221   8.411860   7.574778   8.527394   8.196789
    47  H   10.121402  10.300500   9.701981  10.789445  10.566225
    48  O    9.947076  10.060937   9.728849  10.869108  10.734325
    49  O    9.891583  10.002041   9.707962  10.999237  11.067574
    50  N    9.913586  10.094106   9.513857  10.755359  10.716249
                   21         22         23         24         25
    21  H    0.000000
    22  H    1.780554   0.000000
    23  C   10.849412  10.858584   0.000000
    24  H    9.804455   9.798896   1.084516   0.000000
    25  C   11.375598  11.331518   1.353780   2.098433   0.000000
    26  H   12.443210  12.407992   2.131531   3.076431   1.085672
    27  C   10.797025  10.661217   2.489860   2.714720   1.450877
    28  O   11.651702  11.452557   3.581822   3.939059   2.328361
    29  C   11.679796  11.758943   1.450463   2.138462   2.514073
    30  C   11.224043  11.351089   2.454977   2.579293   3.742160
    31  C   13.062104  13.156901   2.521381   3.441764   3.054244
    32  C   12.193212  12.375441   3.739884   3.965482   4.937157
    33  H   10.196265  10.313785   2.652962   2.309157   4.006313
    34  C   13.912475  14.058804   3.785142   4.577808   4.435035
    35  H   13.574065  13.639182   2.788982   3.846394   2.807386
    36  C   13.508851  13.697329   4.268503   4.790801   5.228348
    37  H   12.017820  12.235673   4.604504   4.635340   5.872799
    38  O   14.533472  14.764704   5.622176   6.127434   6.553837
    39  H   14.266278  14.522271   6.038689   6.394874   7.092834
    40  O   15.228155  15.387434   4.895106   5.790912   5.287337
    41  C   16.183241  16.235649   5.824512   6.696150   6.195939
    42  H   16.015079  15.952572   5.545755   6.420989   5.826526
    43  H   17.143577  17.221603   6.658665   7.587798   6.888243
    44  H   16.266573  16.330495   6.301646   7.063055   6.858101
    45  C    9.386317   9.215643   3.070856   2.729072   2.587361
    46  H    9.340744   8.998163   4.001535   3.636646   3.437730
    47  H   11.566635  11.242548   5.108519   5.252721   3.954320
    48  O   11.659836  11.259381   6.052357   6.120838   4.934382
    49  O   11.696617  11.380411   7.735014   7.710279   6.653758
    50  N   11.456806  11.206570   6.596309   6.627196   5.491764
                   26         27         28         29         30
    26  H    0.000000
    27  C    2.127740   0.000000
    28  O    2.489168   1.249245   0.000000
    29  C    2.809334   3.858304   4.832916   0.000000
    30  C    4.188880   4.937178   6.024782   1.405552   0.000000
    31  C    2.812403   4.503691   5.221743   1.410596   2.412403
    32  C    5.191953   6.225250   7.250348   2.432047   1.387355
    33  H    4.680459   4.965597   6.147328   2.157253   1.084887
    34  C    4.154449   5.884001   6.592312   2.439346   2.794729
    35  H    2.200220   4.196469   4.684529   2.179241   3.408877
    36  C    5.191390   6.636441   7.506978   2.818994   2.414827
    37  H    6.214693   7.086787   8.167462   3.415659   2.150086
    38  O    6.442726   7.973965   8.810793   4.172256   3.670418
    39  H    7.102781   8.472904   9.390132   4.616563   3.832433
    40  O    4.756930   6.715684   7.239004   3.678139   4.162255
    41  C    5.630582   7.586373   8.035409   4.616924   4.994137
    42  H    5.250508   7.146035   7.529660   4.479319   4.976138
    43  H    6.201211   8.248981   8.582894   5.516547   5.988516
    44  H    6.417808   8.268427   8.822045   4.981407   5.057828
    45  C    3.499968   1.474014   2.319929   4.518840   5.284068
    46  H    4.247457   2.151047   2.539474   5.438300   6.184524
    47  H    4.171677   2.634331   1.687825   6.437805   7.548345
    48  O    5.162697   3.580748   2.682312   7.402328   8.478477
    49  O    6.904948   5.275326   4.482099   9.117598  10.151569
    50  N    5.736781   4.136247   3.340977   7.963060   9.024523
                   31         32         33         34         35
    31  C    0.000000
    32  C    2.782475   0.000000
    33  H    3.399606   2.140078   0.000000
    34  C    1.382864   2.428209   3.879603   0.000000
    35  H    1.083782   3.865703   4.316573   2.110134   0.000000
    36  C    2.415808   1.395985   3.393381   1.414451   3.382259
    37  H    3.868953   1.086507   2.467054   3.411726   4.952069
    38  O    3.631366   2.415762   4.550766   2.368191   4.476763
    39  H    4.326617   2.455293   4.541620   3.185867   5.259544
    40  O    2.374372   3.686461   5.246995   1.368626   2.557080
    41  C    3.382312   4.379536   6.053396   2.376560   3.517781
    42  H    3.321305   4.566192   5.987444   2.661562   3.348716
    43  H    4.192082   5.383475   7.061759   3.260936   4.124301
    44  H    3.926472   4.188785   6.070475   2.716741   4.302279
    45  C    5.473841   6.659189   5.001412   6.810254   5.383501
    46  H    6.364830   7.558750   5.857720   7.706248   6.223374
    47  H    6.899412   8.824608   7.538563   8.270665   6.361000
    48  O    7.887955   9.771650   8.415078   9.258298   7.347343
    49  O    9.638649  11.470669  10.013901  11.013504   9.092025
    50  N    8.465056  10.329442   8.931721   9.838561   7.921636
                   36         37         38         39         40
    36  C    0.000000
    37  H    2.149149   0.000000
    38  O    1.354298   2.671670   0.000000
    39  H    1.913676   2.290568   0.967924   0.000000
    40  O    2.424505   4.568087   2.750436   3.710612   0.000000
    41  C    3.090145   5.136201   3.045660   3.953672   1.436858
    42  H    3.472233   5.374100   3.691334   4.535565   2.090487
    43  H    4.048243   6.131942   3.859418   4.767161   2.028664
    44  H    2.902986   4.749007   2.455499   3.247317   2.099322
    45  C    7.330359   7.364225   8.684228   9.049229   7.801295
    46  H    8.239854   8.241097   9.592498   9.953443   8.672907
    47  H    9.156655   9.694124  10.470691  11.024604   8.910409
    48  O   10.133546  10.619293  11.450742  11.993974   9.892725
    49  O   11.875272  12.287184  13.197655  13.725367  11.635364
    50  N   10.708151  11.165305  12.026668  12.563545  10.464743
                   41         42         43         44         45
    41  C    0.000000
    42  H    1.094770   0.000000
    43  H    1.089495   1.781882   0.000000
    44  H    1.091406   1.788809   1.780431   0.000000
    45  C    8.695988   8.274912   9.443685   9.269875   0.000000
    46  H    9.478831   8.969277  10.220846  10.064871   1.083733
    47  H    9.661724   9.100071  10.185797  10.456664   2.923062
    48  O   10.618154  10.028439  11.130607  11.416753   3.631443
    49  O   12.471880  11.959833  12.940366  13.291568   5.056006
    50  N   11.322042  10.834344  11.801091  12.136747   4.045646
                   46         47         48         49         50
    46  H    0.000000
    47  H    2.519060   0.000000
    48  O    3.004293   0.995217   0.000000
    49  O    4.440743   2.923485   2.130348   0.000000
    50  N    3.563546   1.895725   1.384834   1.182028   0.000000
 Stoichiometry    C21H20NO8(2)
 Framework group  C1[X(C21H20NO8)]
 Deg. of freedom   144
 Full point group                 C1      NOp   1
 Largest Abelian subgroup         C1      NOp   1
 Largest concise Abelian subgroup C1      NOp   1
                         Standard orientation:                         
 ---------------------------------------------------------------------
 Center     Atomic      Atomic             Coordinates (Angstroms)
 Number     Number       Type             X           Y           Z
 ---------------------------------------------------------------------
      1          6           0        2.706063    0.255079    0.199328
      2          1           0        2.413647    0.953447    0.979154
      3          6           0        1.832525   -0.022744   -0.792593
      4          1           0        2.091485   -0.724356   -1.580170
      5          6           0        0.467715    0.508197   -0.941029
      6          8           0       -0.251613    0.097224   -1.860741
      7          6           0        4.044642   -0.291176    0.370933
      8          6           0        4.807618    0.126191    1.473548
      9          6           0        4.619859   -1.229182   -0.510014
     10          6           0        6.091430   -0.359650    1.682865
     11          1           0        4.390562    0.845057    2.171226
     12          6           0        5.898547   -1.721223   -0.315258
     13          1           0        4.080067   -1.586109   -1.379766
     14          6           0        6.652908   -1.277794    0.794985
     15          1           0        6.672929   -0.018250    2.534810
     16          8           0        7.910772   -1.764431    0.936055
     17          1           0        8.323230   -1.382950    1.724018
     18          8           0        6.432848   -2.578340   -1.239615
     19          6           0        6.646625   -3.926444   -0.791993
     20          1           0        5.706524   -4.373609   -0.452807
     21          1           0        7.015406   -4.475895   -1.657622
     22          1           0        7.386988   -3.970264    0.008702
     23          6           0       -2.695606    0.060859    0.022810
     24          1           0       -1.786470   -0.526532    0.090764
     25          6           0       -2.586543    1.408258   -0.050277
     26          1           0       -3.464509    2.045912   -0.085717
     27          6           0       -1.342031    2.150652    0.021029
     28          8           0       -1.384803    3.391378    0.160254
     29          6           0       -3.915058   -0.724381    0.036111
     30          6           0       -3.812047   -2.122765    0.133519
     31          6           0       -5.206478   -0.161500   -0.035858
     32          6           0       -4.943503   -2.925505    0.146594
     33          1           0       -2.831461   -2.583220    0.191924
     34          6           0       -6.343265   -0.948854   -0.025795
     35          1           0       -5.348594    0.909989   -0.115219
     36          6           0       -6.214632   -2.354729    0.061623
     37          1           0       -4.846963   -4.005805    0.210855
     38          8           0       -7.351444   -3.090582    0.044242
     39          1           0       -7.134844   -4.032121    0.103107
     40          8           0       -7.569150   -0.356935   -0.167124
     41          6           0       -8.420854   -0.399991    0.989296
     42          1           0       -7.933525    0.078878    1.844700
     43          1           0       -9.316487    0.160809    0.724072
     44          1           0       -8.696302   -1.424360    1.246130
     45          6           0       -0.002617    1.536218   -0.012995
     46          1           0        0.727169    2.051671    0.600355
     47          1           0       -0.074762    4.430422    0.390325
     48          8           0        0.678967    5.055408    0.568489
     49          8           0        2.105655    6.090339   -0.628115
     50          7           0        1.192038    5.342529   -0.685339
 ---------------------------------------------------------------------
 Rotational constants (GHZ):           0.1744253           0.0494082           0.0400494
 Standard basis: 6-311G(d) (5D, 7F)
 There are   630 symmetry adapted cartesian basis functions of A   symmetry.
 There are   600 symmetry adapted basis functions of A   symmetry.
   600 basis functions,  1060 primitive gaussians,   630 cartesian basis functions
   109 alpha electrons      108 beta electrons
       nuclear repulsion energy      2538.9928752901 Hartrees.
 NAtoms=   50 NActive=   50 NUniq=   50 SFac= 1.00D+00 NAtFMM=   60 NAOKFM=F Big=F
 Integral buffers will be    131072 words long.
 Raffenetti 2 integral format.
 Two-electron integral symmetry is turned on.
 Force inversion solution in PCM.
 Using the following non-standard input for PCM:
 Eps=7
 EpsInf=1.85341
 HbondAcidity=0
 HbondBasicity=0.48
 SurfaceTensionAtInterface=60.62
 CarbonAromaticity=0
 ElectronegativeHalogenicity=0
 --- end of non-standard input.
 Force inversion solution in PCM.
 ------------------------------------------------------------------------------
 Polarizable Continuum Model (PCM)
 =================================
 Model                : PCM.
 Atomic radii         : SMD-Coulomb.
 Polarization charges : Total charges.
 Charge compensation  : None.
 Solution method      : Matrix inversion.
 Cavity type          : VdW (van der Waals Surface) (Alpha=1.000).
 Cavity algorithm     : GePol (No added spheres)
                        Default sphere list used, NSphG=   50.
                        Lebedev-Laikov grids with approx.  5.0 points / Ang**2.
                        Smoothing algorithm: York/Karplus (Gamma=1.0000).
                        Polarization charges: spherical gaussians, with
                                              point-specific exponents (IZeta= 3).
                        Self-potential: point-specific (ISelfS= 7).
                        Self-field    : sphere-specific E.n sum rule (ISelfD= 2).
 1st derivatives      : Analytical E(r).r(x)/FMM algorithm (CHGder, D1EAlg=3).
                        Cavity 1st derivative terms included.
 2nd derivatives      : Analytical E(r).r(xy)/FMM algorithm (CHGder, D2EAlg=3).
                        Cavity 2nd derivative terms included.
 Solvent              : Generic,
                        Eps                           =   7.000000
                        Eps(infinity)                 =   1.853410
                        RSolv                         =   0.000000 Ang.
                        Molar volume                  =   0.000000 cm**3/mol
                        Thermal expansion coefficient =   0.000000 K**-1
                        Absolute temperature          = 298.150000 K
                        Numeral density               =   0.000000 Ang**-3
                        Hydrogen bond acidity         =   0.000000
                        Hydrogen bond basicity        =   0.480000
                        Surface tension at interface  =  60.620000 (cal/mol)*Ang**-2
                        Carbon aromaticity            =   0.000000
                        Electronegative halogenicity  =   0.000000
 ------------------------------------------------------------------------------
 ------------------------------------------------------------------------------
 Atomic radii for non-electrostatic terms: SMD-CDS.
 ------------------------------------------------------------------------------
 Nuclear repulsion after PCM non-electrostatic terms =     2538.9908880238 Hartrees.
 One-electron integrals computed using PRISM.
 NBasis=   600 RedAO= T EigKep=  1.74D-04  NBF=   600
 NBsUse=   600 1.00D-06 EigRej= -1.00D+00 NBFU=   600
 ExpMin= 1.03D-01 ExpMax= 8.59D+03 ExpMxC= 1.30D+03 IAcc=3 IRadAn=         5 AccDes= 0.00D+00
 Harris functional with IExCor= 1009 and IRadAn=       5 diagonalized for initial guess.
 HarFok:  IExCor= 1009 AccDes= 0.00D+00 IRadAn=         5 IDoV= 1 UseB2=F ITyADJ=14
 ICtDFT=  3500011 ScaDFX=  1.000000  1.000000  1.000000  1.000000
 FoFCou: FMM=F IPFlag=           0 FMFlag=      100000 FMFlg1=           0
         NFxFlg=           0 DoJE=T BraDBF=F KetDBF=T FulRan=T
         wScrn=  0.000000 ICntrl=       500 IOpCl=  0 I1Cent=   200000004 NGrid=           0
         NMat0=    1 NMatS0=      1 NMatT0=    0 NMatD0=    1 NMtDS0=    0 NMtDT0=    0
 Petite list used in FoFCou.
 Initial guess <Sx>= 0.0000 <Sy>= 0.0000 <Sz>= 0.5000 <S**2>= 0.7500 S= 0.5000
 Requested convergence on RMS density matrix=1.00D-08 within 500 cycles.
 Requested convergence on MAX density matrix=1.00D-06.
 Requested convergence on             energy=1.00D-06.
 No special actions if energy rises.
 Inv3:  Mode=1 IEnd=    57238272.
 Iteration    1 A*A^-1 deviation from unit magnitude is 3.89D-15 for   2923.
 Iteration    1 A*A^-1 deviation from orthogonality  is 2.45D-15 for   1302    338.
 Iteration    1 A^-1*A deviation from unit magnitude is 3.66D-15 for   2923.
 Iteration    1 A^-1*A deviation from orthogonality  is 2.07D-15 for   3094   2323.
 Restarting incremental Fock formation.
 Error on total polarization charges =  0.03443
 SCF Done:  E(UM062X) =  -1468.39821209     A.U. after   23 cycles
            NFock= 23  Conv=0.68D-08     -V/T= 2.0034
 <Sx>= 0.0000 <Sy>= 0.0000 <Sz>= 0.5000 <S**2>= 0.7678 S= 0.5089
 <L.S>=  0.00000000000    
 SMD-CDS (non-electrostatic) energy       (kcal/mol) =      -1.25
 (included in total energy above)
 Annihilation of the first spin contaminant:
 S**2 before annihilation     0.7678,   after     0.7502
 DoSCS=F DFT=T ScalE2(SS,OS)=  1.000000  1.000000
 Range of M.O.s used for correlation:     1   600
 NBasis=   600 NAE=   109 NBE=   108 NFC=     0 NFV=     0
 NROrb=    600 NOA=   109 NOB=   108 NVA=   491 NVB=   492

 **** Warning!!: The largest alpha MO coefficient is  0.12317535D+02


 **** Warning!!: The largest beta MO coefficient is  0.12751552D+02

 Symmetrizing basis deriv contribution to polar:
 IMax=3 JMax=2 DiffMx= 0.00D+00
 G2DrvN: will do    26 centers at a time, making    2 passes.
 Calling FoFCou, ICntrl=  3107 FMM=F I1Cent=   0 AccDes= 0.00D+00.
 Calling FoFCou, ICntrl=  3107 FMM=F I1Cent=   0 AccDes= 0.00D+00.
 NEqPCM:  Using equilibrium solvation (IEInf=0, Eps=   7.0000, EpsInf=   1.8534)
 G2PCM: DoFxE=T DoFxN=T DoGrad=T DoDP/DQ/DG/TGxP=FFFF NFrqRd=   0 IEInf=0 SqF1=F DoCFld=F IF1Alg=4.
 End of G2Drv F.D. properties file   721 does not exist.
 End of G2Drv F.D. properties file   722 does not exist.
 End of G2Drv F.D. properties file   788 does not exist.
          IDoAtm=11111111111111111111111111111111111111111111111111
 NEqPCM:  Using equilibrium solvation (IEInf=0, Eps=   7.0000, EpsInf=   1.8534)
          Differentiating once with respect to nuclear coordinates.
 CalDSu exits because no D1Ps are significant.
          There are   153 degrees of freedom in the 1st order CPHF.  IDoFFX=6 NUNeed=     0.
    150 vectors produced by pass  0 Test12= 1.07D-13 1.00D-09 XBig12= 2.38D-01 1.23D-01.
 AX will form    50 AO Fock derivatives at one time.
    150 vectors produced by pass  1 Test12= 1.07D-13 1.00D-09 XBig12= 1.51D-02 2.21D-02.
    149 vectors produced by pass  2 Test12= 1.07D-13 1.00D-09 XBig12= 3.87D-04 3.57D-03.
    147 vectors produced by pass  3 Test12= 1.07D-13 1.00D-09 XBig12= 8.19D-06 6.20D-04.
    147 vectors produced by pass  4 Test12= 1.07D-13 1.00D-09 XBig12= 1.05D-07 4.77D-05.
    147 vectors produced by pass  5 Test12= 1.07D-13 1.00D-09 XBig12= 1.02D-09 5.57D-06.
    133 vectors produced by pass  6 Test12= 1.07D-13 1.00D-09 XBig12= 9.54D-12 4.25D-07.
     72 vectors produced by pass  7 Test12= 1.07D-13 1.00D-09 XBig12= 7.37D-14 2.17D-08.
     14 vectors produced by pass  8 Test12= 1.07D-13 1.00D-09 XBig12= 5.42D-15 2.59D-09.
      5 vectors produced by pass  9 Test12= 1.07D-13 1.00D-09 XBig12= 3.21D-15 2.71D-09.
      1 vectors produced by pass 10 Test12= 1.07D-13 1.00D-09 XBig12= 1.61D-15 1.85D-09.
 InvSVY:  IOpt=1 It=  1 EMax= 6.11D-16
 Solved reduced A of dimension  1115 with   153 vectors.
 End of Minotr F.D. properties file   721 does not exist.
 End of Minotr F.D. properties file   722 does not exist.
 End of Minotr F.D. properties file   788 does not exist.

 **********************************************************************

            Population analysis using the SCF density.

 **********************************************************************

 Orbital symmetries:
 Alpha Orbitals:
       Occupied  (A) (A) (A) (A) (A) (A) (A) (A) (A) (A) (A) (A)
                 (A) (A) (A) (A) (A) (A) (A) (A) (A) (A) (A) (A)
                 (A) (A) (A) (A) (A) (A) (A) (A) (A) (A) (A) (A)
                 (A) (A) (A) (A) (A) (A) (A) (A) (A) (A) (A) (A)
                 (A) (A) (A) (A) (A) (A) (A) (A) (A) (A) (A) (A)
                 (A) (A) (A) (A) (A) (A) (A) (A) (A) (A) (A) (A)
                 (A) (A) (A) (A) (A) (A) (A) (A) (A) (A) (A) (A)
                 (A) (A) (A) (A) (A) (A) (A) (A) (A) (A) (A) (A)
                 (A) (A) (A) (A) (A) (A) (A) (A) (A) (A) (A) (A)
                 (A)
       Virtual   (A) (A) (A) (A) (A) (A) (A) (A) (A) (A) (A) (A)
                 (A) (A) (A) (A) (A) (A) (A) (A) (A) (A) (A) (A)
                 (A) (A) (A) (A) (A) (A) (A) (A) (A) (A) (A) (A)
                 (A) (A) (A) (A) (A) (A) (A) (A) (A) (A) (A) (A)
                 (A) (A) (A) (A) (A) (A) (A) (A) (A) (A) (A) (A)
                 (A) (A) (A) (A) (A) (A) (A) (A) (A) (A) (A) (A)
                 (A) (A) (A) (A) (A) (A) (A) (A) (A) (A) (A) (A)
                 (A) (A) (A) (A) (A) (A) (A) (A) (A) (A) (A) (A)
                 (A) (A) (A) (A) (A) (A) (A) (A) (A) (A) (A) (A)
                 (A) (A) (A) (A) (A) (A) (A) (A) (A) (A) (A) (A)
                 (A) (A) (A) (A) (A) (A) (A) (A) (A) (A) (A) (A)
                 (A) (A) (A) (A) (A) (A) (A) (A) (A) (A) (A) (A)
                 (A) (A) (A) (A) (A) (A) (A) (A) (A) (A) (A) (A)
                 (A) (A) (A) (A) (A) (A) (A) (A) (A) (A) (A) (A)
                 (A) (A) (A) (A) (A) (A) (A) (A) (A) (A) (A) (A)
                 (A) (A) (A) (A) (A) (A) (A) (A) (A) (A) (A) (A)
                 (A) (A) (A) (A) (A) (A) (A) (A) (A) (A) (A) (A)
                 (A) (A) (A) (A) (A) (A) (A) (A) (A) (A) (A) (A)
                 (A) (A) (A) (A) (A) (A) (A) (A) (A) (A) (A) (A)
                 (A) (A) (A) (A) (A) (A) (A) (A) (A) (A) (A) (A)
                 (A) (A) (A) (A) (A) (A) (A) (A) (A) (A) (A) (A)
                 (A) (A) (A) (A) (A) (A) (A) (A) (A) (A) (A) (A)
                 (A) (A) (A) (A) (A) (A) (A) (A) (A) (A) (A) (A)
                 (A) (A) (A) (A) (A) (A) (A) (A) (A) (A) (A) (A)
                 (A) (A) (A) (A) (A) (A) (A) (A) (A) (A) (A) (A)
                 (A) (A) (A) (A) (A) (A) (A) (A) (A) (A) (A) (A)
                 (A) (A) (A) (A) (A) (A) (A) (A) (A) (A) (A) (A)
                 (A) (A) (A) (A) (A) (A) (A) (A) (A) (A) (A) (A)
                 (A) (A) (A) (A) (A) (A) (A) (A) (A) (A) (A) (A)
                 (A) (A) (A) (A) (A) (A) (A) (A) (A) (A) (A) (A)
                 (A) (A) (A) (A) (A) (A) (A) (A) (A) (A) (A) (A)
                 (A) (A) (A) (A) (A) (A) (A) (A) (A) (A) (A) (A)
                 (A) (A) (A) (A) (A) (A) (A) (A) (A) (A) (A) (A)
                 (A) (A) (A) (A) (A) (A) (A) (A) (A) (A) (A) (A)
                 (A) (A) (A) (A) (A) (A) (A) (A) (A) (A) (A) (A)
                 (A) (A) (A) (A) (A) (A) (A) (A) (A) (A) (A) (A)
                 (A) (A) (A) (A) (A) (A) (A) (A) (A) (A) (A) (A)
                 (A) (A) (A) (A) (A) (A) (A) (A) (A) (A) (A) (A)
                 (A) (A) (A) (A) (A) (A) (A) (A) (A) (A) (A) (A)
                 (A) (A) (A) (A) (A) (A) (A) (A) (A) (A) (A) (A)
                 (A) (A) (A) (A) (A) (A) (A) (A) (A) (A) (A)
 Beta  Orbitals:
       Occupied  (A) (A) (A) (A) (A) (A) (A) (A) (A) (A) (A) (A)
                 (A) (A) (A) (A) (A) (A) (A) (A) (A) (A) (A) (A)
                 (A) (A) (A) (A) (A) (A) (A) (A) (A) (A) (A) (A)
                 (A) (A) (A) (A) (A) (A) (A) (A) (A) (A) (A) (A)
                 (A) (A) (A) (A) (A) (A) (A) (A) (A) (A) (A) (A)
                 (A) (A) (A) (A) (A) (A) (A) (A) (A) (A) (A) (A)
                 (A) (A) (A) (A) (A) (A) (A) (A) (A) (A) (A) (A)
                 (A) (A) (A) (A) (A) (A) (A) (A) (A) (A) (A) (A)
                 (A) (A) (A) (A) (A) (A) (A) (A) (A) (A) (A) (A)
       Virtual   (A) (A) (A) (A) (A) (A) (A) (A) (A) (A) (A) (A)
                 (A) (A) (A) (A) (A) (A) (A) (A) (A) (A) (A) (A)
                 (A) (A) (A) (A) (A) (A) (A) (A) (A) (A) (A) (A)
                 (A) (A) (A) (A) (A) (A) (A) (A) (A) (A) (A) (A)
                 (A) (A) (A) (A) (A) (A) (A) (A) (A) (A) (A) (A)
                 (A) (A) (A) (A) (A) (A) (A) (A) (A) (A) (A) (A)
                 (A) (A) (A) (A) (A) (A) (A) (A) (A) (A) (A) (A)
                 (A) (A) (A) (A) (A) (A) (A) (A) (A) (A) (A) (A)
                 (A) (A) (A) (A) (A) (A) (A) (A) (A) (A) (A) (A)
                 (A) (A) (A) (A) (A) (A) (A) (A) (A) (A) (A) (A)
                 (A) (A) (A) (A) (A) (A) (A) (A) (A) (A) (A) (A)
                 (A) (A) (A) (A) (A) (A) (A) (A) (A) (A) (A) (A)
                 (A) (A) (A) (A) (A) (A) (A) (A) (A) (A) (A) (A)
                 (A) (A) (A) (A) (A) (A) (A) (A) (A) (A) (A) (A)
                 (A) (A) (A) (A) (A) (A) (A) (A) (A) (A) (A) (A)
                 (A) (A) (A) (A) (A) (A) (A) (A) (A) (A) (A) (A)
                 (A) (A) (A) (A) (A) (A) (A) (A) (A) (A) (A) (A)
                 (A) (A) (A) (A) (A) (A) (A) (A) (A) (A) (A) (A)
                 (A) (A) (A) (A) (A) (A) (A) (A) (A) (A) (A) (A)
                 (A) (A) (A) (A) (A) (A) (A) (A) (A) (A) (A) (A)
                 (A) (A) (A) (A) (A) (A) (A) (A) (A) (A) (A) (A)
                 (A) (A) (A) (A) (A) (A) (A) (A) (A) (A) (A) (A)
                 (A) (A) (A) (A) (A) (A) (A) (A) (A) (A) (A) (A)
                 (A) (A) (A) (A) (A) (A) (A) (A) (A) (A) (A) (A)
                 (A) (A) (A) (A) (A) (A) (A) (A) (A) (A) (A) (A)
                 (A) (A) (A) (A) (A) (A) (A) (A) (A) (A) (A) (A)
                 (A) (A) (A) (A) (A) (A) (A) (A) (A) (A) (A) (A)
                 (A) (A) (A) (A) (A) (A) (A) (A) (A) (A) (A) (A)
                 (A) (A) (A) (A) (A) (A) (A) (A) (A) (A) (A) (A)
                 (A) (A) (A) (A) (A) (A) (A) (A) (A) (A) (A) (A)
                 (A) (A) (A) (A) (A) (A) (A) (A) (A) (A) (A) (A)
                 (A) (A) (A) (A) (A) (A) (A) (A) (A) (A) (A) (A)
                 (A) (A) (A) (A) (A) (A) (A) (A) (A) (A) (A) (A)
                 (A) (A) (A) (A) (A) (A) (A) (A) (A) (A) (A) (A)
                 (A) (A) (A) (A) (A) (A) (A) (A) (A) (A) (A) (A)
                 (A) (A) (A) (A) (A) (A) (A) (A) (A) (A) (A) (A)
                 (A) (A) (A) (A) (A) (A) (A) (A) (A) (A) (A) (A)
                 (A) (A) (A) (A) (A) (A) (A) (A) (A) (A) (A) (A)
                 (A) (A) (A) (A) (A) (A) (A) (A) (A) (A) (A) (A)
                 (A) (A) (A) (A) (A) (A) (A) (A) (A) (A) (A) (A)
                 (A) (A) (A) (A) (A) (A) (A) (A) (A) (A) (A) (A)
 The electronic state is 2-A.
 Alpha  occ. eigenvalues --  -19.68294 -19.66529 -19.66356 -19.66150 -19.63767
 Alpha  occ. eigenvalues --  -19.63719 -19.63220 -19.61584 -14.92463 -10.65293
 Alpha  occ. eigenvalues --  -10.63966 -10.62318 -10.62053 -10.60600 -10.60500
 Alpha  occ. eigenvalues --  -10.59353 -10.57558 -10.57535 -10.57522 -10.57081
 Alpha  occ. eigenvalues --  -10.56133 -10.56041 -10.55721 -10.55512 -10.55420
 Alpha  occ. eigenvalues --  -10.55254 -10.55235 -10.55142 -10.55051 -10.55007
 Alpha  occ. eigenvalues --   -1.34180  -1.20647  -1.20429  -1.18247  -1.17282
 Alpha  occ. eigenvalues --   -1.17201  -1.16741  -1.16138  -0.97634  -0.97468
 Alpha  occ. eigenvalues --   -0.92264  -0.91286  -0.87927  -0.86121  -0.85979
 Alpha  occ. eigenvalues --   -0.84663  -0.82657  -0.78144  -0.78082  -0.77209
 Alpha  occ. eigenvalues --   -0.75994  -0.74980  -0.71986  -0.70865  -0.67612
 Alpha  occ. eigenvalues --   -0.67176  -0.65996  -0.64564  -0.63669  -0.63389
 Alpha  occ. eigenvalues --   -0.61188  -0.59629  -0.59273  -0.58781  -0.58235
 Alpha  occ. eigenvalues --   -0.57646  -0.57359  -0.56038  -0.55191  -0.54936
 Alpha  occ. eigenvalues --   -0.54079  -0.54011  -0.53791  -0.52960  -0.51465
 Alpha  occ. eigenvalues --   -0.51203  -0.51005  -0.50559  -0.50230  -0.49980
 Alpha  occ. eigenvalues --   -0.49611  -0.49251  -0.48832  -0.48454  -0.47539
 Alpha  occ. eigenvalues --   -0.47184  -0.44921  -0.44838  -0.44300  -0.44190
 Alpha  occ. eigenvalues --   -0.44008  -0.43880  -0.43073  -0.42951  -0.40741
 Alpha  occ. eigenvalues --   -0.40643  -0.40535  -0.37152  -0.36035  -0.35856
 Alpha  occ. eigenvalues --   -0.35495  -0.35410  -0.34018  -0.33788  -0.32216
 Alpha  occ. eigenvalues --   -0.30957  -0.30782  -0.27291  -0.26777
 Alpha virt. eigenvalues --   -0.06045  -0.03427  -0.01168   0.01872   0.02036
 Alpha virt. eigenvalues --    0.03811   0.06207   0.07201   0.07258   0.08780
 Alpha virt. eigenvalues --    0.09574   0.10103   0.10251   0.10594   0.11366
 Alpha virt. eigenvalues --    0.11587   0.12283   0.13735   0.13786   0.15031
 Alpha virt. eigenvalues --    0.15730   0.15850   0.15921   0.15942   0.17541
 Alpha virt. eigenvalues --    0.17897   0.18542   0.19076   0.19917   0.20063
 Alpha virt. eigenvalues --    0.20764   0.21230   0.21839   0.23115   0.23566
 Alpha virt. eigenvalues --    0.25491   0.25997   0.27151   0.27658   0.28189
 Alpha virt. eigenvalues --    0.29461   0.30168   0.30719   0.30998   0.32019
 Alpha virt. eigenvalues --    0.32409   0.33683   0.34265   0.34296   0.34642
 Alpha virt. eigenvalues --    0.35205   0.36247   0.36376   0.36986   0.38019
 Alpha virt. eigenvalues --    0.39028   0.39337   0.39897   0.40020   0.40266
 Alpha virt. eigenvalues --    0.40758   0.40901   0.41244   0.41724   0.41918
 Alpha virt. eigenvalues --    0.42015   0.42431   0.42805   0.44039   0.44513
 Alpha virt. eigenvalues --    0.44661   0.45162   0.45322   0.46142   0.46595
 Alpha virt. eigenvalues --    0.47072   0.47325   0.48011   0.48477   0.48583
 Alpha virt. eigenvalues --    0.48893   0.49493   0.50037   0.50098   0.50588
 Alpha virt. eigenvalues --    0.51249   0.52228   0.52458   0.53173   0.53265
 Alpha virt. eigenvalues --    0.53832   0.54442   0.55980   0.56059   0.56819
 Alpha virt. eigenvalues --    0.57050   0.57757   0.57862   0.59087   0.59236
 Alpha virt. eigenvalues --    0.59608   0.60287   0.61220   0.61906   0.61984
 Alpha virt. eigenvalues --    0.62498   0.62639   0.63098   0.63514   0.63784
 Alpha virt. eigenvalues --    0.64080   0.64316   0.64745   0.65557   0.65679
 Alpha virt. eigenvalues --    0.65839   0.66443   0.66596   0.67287   0.67694
 Alpha virt. eigenvalues --    0.67946   0.68141   0.68372   0.69152   0.69474
 Alpha virt. eigenvalues --    0.69863   0.71342   0.72309   0.73172   0.73288
 Alpha virt. eigenvalues --    0.74640   0.75159   0.75186   0.76752   0.77422
 Alpha virt. eigenvalues --    0.78442   0.79279   0.79361   0.81156   0.81791
 Alpha virt. eigenvalues --    0.82330   0.82533   0.83190   0.83640   0.84439
 Alpha virt. eigenvalues --    0.84537   0.84926   0.85162   0.85538   0.86119
 Alpha virt. eigenvalues --    0.86265   0.87086   0.87682   0.88407   0.88827
 Alpha virt. eigenvalues --    0.89298   0.89727   0.90708   0.91433   0.92934
 Alpha virt. eigenvalues --    0.93333   0.94095   0.94956   0.95057   0.95543
 Alpha virt. eigenvalues --    0.96357   0.97766   0.98110   0.98360   0.99386
 Alpha virt. eigenvalues --    1.00062   1.00302   1.01122   1.02007   1.02854
 Alpha virt. eigenvalues --    1.03028   1.03637   1.03832   1.05094   1.06850
 Alpha virt. eigenvalues --    1.07080   1.08776   1.09221   1.09938   1.10969
 Alpha virt. eigenvalues --    1.11722   1.12788   1.14433   1.15506   1.17254
 Alpha virt. eigenvalues --    1.18319   1.19295   1.19571   1.19786   1.19996
 Alpha virt. eigenvalues --    1.20407   1.22776   1.23682   1.24650   1.25093
 Alpha virt. eigenvalues --    1.26794   1.27243   1.27545   1.28205   1.28841
 Alpha virt. eigenvalues --    1.30877   1.31605   1.32425   1.32581   1.33873
 Alpha virt. eigenvalues --    1.35799   1.37937   1.40297   1.40452   1.42272
 Alpha virt. eigenvalues --    1.42509   1.43801   1.47162   1.48112   1.48644
 Alpha virt. eigenvalues --    1.50037   1.50115   1.50732   1.51706   1.53573
 Alpha virt. eigenvalues --    1.54400   1.54695   1.55047   1.56010   1.56624
 Alpha virt. eigenvalues --    1.56877   1.57319   1.58329   1.58514   1.59457
 Alpha virt. eigenvalues --    1.59557   1.60614   1.61216   1.61685   1.62858
 Alpha virt. eigenvalues --    1.63193   1.65405   1.66449   1.67374   1.68481
 Alpha virt. eigenvalues --    1.70437   1.72241   1.72731   1.73391   1.73492
 Alpha virt. eigenvalues --    1.74450   1.75149   1.75428   1.76029   1.78764
 Alpha virt. eigenvalues --    1.79529   1.79998   1.80635   1.81535   1.82226
 Alpha virt. eigenvalues --    1.82898   1.83394   1.84421   1.85207   1.86185
 Alpha virt. eigenvalues --    1.87097   1.87562   1.88006   1.88570   1.88915
 Alpha virt. eigenvalues --    1.90138   1.91840   1.93142   1.94259   1.94381
 Alpha virt. eigenvalues --    1.95856   1.98266   1.99256   1.99618   2.02220
 Alpha virt. eigenvalues --    2.05575   2.06604   2.06986   2.07253   2.10595
 Alpha virt. eigenvalues --    2.10759   2.12919   2.14570   2.16406   2.17043
 Alpha virt. eigenvalues --    2.18207   2.18925   2.20293   2.21329   2.21578
 Alpha virt. eigenvalues --    2.27094   2.28055   2.28913   2.30141   2.31654
 Alpha virt. eigenvalues --    2.32580   2.33397   2.34165   2.34498   2.34782
 Alpha virt. eigenvalues --    2.36483   2.37040   2.37295   2.38352   2.39551
 Alpha virt. eigenvalues --    2.43236   2.44527   2.44628   2.45235   2.45967
 Alpha virt. eigenvalues --    2.47278   2.48514   2.49631   2.53330   2.56519
 Alpha virt. eigenvalues --    2.56868   2.57989   2.58071   2.60249   2.64136
 Alpha virt. eigenvalues --    2.66335   2.67185   2.67668   2.70332   2.71765
 Alpha virt. eigenvalues --    2.71970   2.72738   2.74179   2.75046   2.78741
 Alpha virt. eigenvalues --    2.81777   2.82674   2.82897   2.83485   2.84134
 Alpha virt. eigenvalues --    2.85092   2.85153   2.88648   2.88713   2.89362
 Alpha virt. eigenvalues --    2.91223   2.91761   2.93688   2.94134   2.95725
 Alpha virt. eigenvalues --    2.96189   2.98095   2.99163   2.99907   3.00047
 Alpha virt. eigenvalues --    3.02246   3.02297   3.02801   3.03465   3.04826
 Alpha virt. eigenvalues --    3.05242   3.05501   3.07369   3.08063   3.08826
 Alpha virt. eigenvalues --    3.09523   3.09603   3.14479   3.15453   3.15535
 Alpha virt. eigenvalues --    3.17525   3.18753   3.19842   3.20560   3.21206
 Alpha virt. eigenvalues --    3.21357   3.21533   3.22349   3.22929   3.23381
 Alpha virt. eigenvalues --    3.23604   3.24380   3.25601   3.26314   3.26621
 Alpha virt. eigenvalues --    3.31205   3.31614   3.31743   3.33465   3.35135
 Alpha virt. eigenvalues --    3.35680   3.35996   3.36104   3.37076   3.37641
 Alpha virt. eigenvalues --    3.37937   3.38790   3.39097   3.40836   3.41341
 Alpha virt. eigenvalues --    3.44648   3.45473   3.47457   3.50612   3.51673
 Alpha virt. eigenvalues --    3.52706   3.53565   3.54296   3.55973   3.56190
 Alpha virt. eigenvalues --    3.58164   3.59687   3.63205   3.64514   3.67377
 Alpha virt. eigenvalues --    3.68801   3.76330   3.76481   3.78082   3.85593
 Alpha virt. eigenvalues --    3.92174   3.92221   3.94455   3.94742   3.99187
 Alpha virt. eigenvalues --    3.99500   4.04648   4.06900   4.09911   4.13138
 Alpha virt. eigenvalues --    4.13206   4.24077   4.36135   4.47315   4.61184
 Alpha virt. eigenvalues --    4.80808   4.81058   4.90835   4.91526   4.93765
 Alpha virt. eigenvalues --    4.93943   4.96854   5.00293   5.01195   5.02657
 Alpha virt. eigenvalues --    5.09166   5.09261   5.17146   5.22928   5.22976
 Alpha virt. eigenvalues --    5.26570   5.27587   5.27645   5.42952   5.59694
 Alpha virt. eigenvalues --    5.59891   5.68908   5.73500   5.77192   5.77239
 Alpha virt. eigenvalues --    5.91997  23.31384  23.34111  23.51351  23.51387
 Alpha virt. eigenvalues --   23.60444  23.65460  23.78027  23.86040  23.86468
 Alpha virt. eigenvalues --   23.91194  23.92315  23.94066  23.94604  24.05870
 Alpha virt. eigenvalues --   24.06181  24.12615  24.12638  24.18832  24.18973
 Alpha virt. eigenvalues --   24.20712  24.21767  35.33391  49.88726  49.94237
 Alpha virt. eigenvalues --   49.97926  49.98122  50.04035  50.04230  50.04715
 Alpha virt. eigenvalues --   50.08881
  Beta  occ. eigenvalues --  -19.68294 -19.66530 -19.66355 -19.66149 -19.63767
  Beta  occ. eigenvalues --  -19.63720 -19.62971 -19.61222 -14.92462 -10.65362
  Beta  occ. eigenvalues --  -10.64061 -10.62318 -10.62053 -10.60600 -10.60500
  Beta  occ. eigenvalues --  -10.58849 -10.57557 -10.57535 -10.57522 -10.57084
  Beta  occ. eigenvalues --  -10.56132 -10.56040 -10.55721 -10.55513 -10.55420
  Beta  occ. eigenvalues --  -10.55254 -10.55235 -10.55142 -10.55039 -10.54994
  Beta  occ. eigenvalues --   -1.34179  -1.20645  -1.20427  -1.17618  -1.17282
  Beta  occ. eigenvalues --   -1.17201  -1.16105  -1.15701  -0.97625  -0.97460
  Beta  occ. eigenvalues --   -0.91709  -0.91212  -0.86522  -0.86103  -0.85966
  Beta  occ. eigenvalues --   -0.84597  -0.81702  -0.78143  -0.78081  -0.77195
  Beta  occ. eigenvalues --   -0.75925  -0.74854  -0.71896  -0.70757  -0.67510
  Beta  occ. eigenvalues --   -0.67135  -0.65794  -0.64534  -0.63650  -0.63367
  Beta  occ. eigenvalues --   -0.60802  -0.59418  -0.59187  -0.58684  -0.58234
  Beta  occ. eigenvalues --   -0.57444  -0.57242  -0.55833  -0.54904  -0.54654
  Beta  occ. eigenvalues --   -0.54077  -0.54007  -0.53402  -0.52716  -0.51194
  Beta  occ. eigenvalues --   -0.51053  -0.50943  -0.50258  -0.49951  -0.49572
  Beta  occ. eigenvalues --   -0.49443  -0.48790  -0.48399  -0.47492  -0.47101
  Beta  occ. eigenvalues --   -0.46771  -0.44847  -0.44773  -0.44229  -0.44092
  Beta  occ. eigenvalues --   -0.43905  -0.43641  -0.43027  -0.42806  -0.40720
  Beta  occ. eigenvalues --   -0.40610  -0.40520  -0.36526  -0.35651  -0.35544
  Beta  occ. eigenvalues --   -0.35244  -0.34994  -0.33794  -0.33285  -0.30961
  Beta  occ. eigenvalues --   -0.30829  -0.27077  -0.26825
  Beta virt. eigenvalues --   -0.10360  -0.05295  -0.02195  -0.01167   0.01921
  Beta virt. eigenvalues --    0.02082   0.04283   0.06838   0.07206   0.07287
  Beta virt. eigenvalues --    0.08825   0.09578   0.10179   0.10297   0.10706
  Beta virt. eigenvalues --    0.11437   0.11792   0.12329   0.13737   0.14341
  Beta virt. eigenvalues --    0.15560   0.15808   0.15904   0.15929   0.16127
  Beta virt. eigenvalues --    0.17899   0.17911   0.18792   0.19130   0.19944
  Beta virt. eigenvalues --    0.20117   0.20988   0.21264   0.22011   0.23392
  Beta virt. eigenvalues --    0.23803   0.25562   0.26058   0.27423   0.27694
  Beta virt. eigenvalues --    0.28300   0.29609   0.30211   0.30764   0.31020
  Beta virt. eigenvalues --    0.32457   0.32580   0.33752   0.34295   0.34513
  Beta virt. eigenvalues --    0.34792   0.35260   0.36317   0.36611   0.37192
  Beta virt. eigenvalues --    0.38487   0.39061   0.39439   0.39931   0.40061
  Beta virt. eigenvalues --    0.40330   0.40945   0.41060   0.41419   0.41877
[...]
 00007336,-0.00002027,0.00000848,0.00058287,-0.00033605,0.00007816,-0.0
 0003479,0.00004157,-0.00000160,-0.00069584,0.00046392,-0.00008566,0.00
 002567,-0.00010655,0.00000763,-0.00032866,-0.00013759,0.00005735,0.000
 10299,0.00000446,-0.00013365,0.00000181,0.00000033,0.00002065,-0.00002
 616,-0.00001278,0.00000879,0.00000860,0.00001333,0.00000248,0.00159101
 ,0.00022042,-0.00020568,-0.00009350,-0.00072271,-0.00083408,-0.0700184
 0,0.06431432,0.00009488,-0.00011103,-0.00000156,-0.00004460,0.00006650
 ,0.00009183,-0.00007254,0.00003489,-0.00010686,0.00001079,0.00002048,0
 .00000605,0.00013891,0.00003780,0.00027598,-0.00014243,0.00004683,-0.0
 0030360,-0.00001082,0.00000288,-0.00001735,0.00001335,-0.00002535,0.00
 000499,0.00000414,0.00000486,-0.00000337,-0.00000795,-0.00000795,-0.00
 000330,-0.00001011,0.00000617,0.00000568,-0.00000571,0.00000434,-0.000
 00517,-0.00000094,0.00000574,0.00000197,0.00000961,0.00000599,0.000002
 95,-0.00000427,0.00000224,0.00000335,-0.00001359,-0.00000684,-0.000006
 88,-0.00000025,0.00000207,0.00000604,0.00000017,-0.00000428,-0.0000084
 7,-0.00000033,0.00000816,0.00000514,0.00000183,-0.00000156,0.00000046,
 0.00000075,0.,-0.00000078,-0.00000173,0.00000011,-0.00000045,-0.000173
 90,0.00026748,0.00012048,-0.00000992,0.00000293,0.00008167,0.00005640,
 -0.00005921,0.00181367,0.00001654,-0.00000798,-0.00001683,-0.00057713,
 0.00076616,0.00013375,0.00039638,-0.00069616,-0.00889738,0.00014320,-0
 .00005543,-0.00021775,-0.00001297,0.00005721,-0.00003952,-0.00004274,-
 0.00001517,-0.00000144,0.00004371,0.00000892,0.00002500,-0.00000126,-0
 .00000085,-0.00000205,-0.00000171,-0.00005078,0.00000665,-0.00000071,0
 .00000172,0.00001014,-0.00004529,0.00002330,-0.00000655,0.00000061,-0.
 00000218,0.00000819,0.00005304,-0.00003396,-0.00000164,-0.00000127,0.0
 0000770,0.00000547,0.00002189,0.00000974,-0.00001651,-0.00000906,-0.00
 000377,0.00002386,-0.00000121,0.00000251,-0.00000447,0.00000078,0.0000
 0042,-0.00000154,0.00000039,-0.00000166,-0.00000057,0.00047006,0.00024
 639,-0.00070587,-0.00039625,-0.00052881,-0.00019428,-0.01328410,-0.021
 31800,0.06298624,-0.00028772,0.00017943,-0.00041179,-0.00082686,0.0004
 2539,0.00062317,0.00076721,-0.00005097,-0.00021047,0.00013088,0.000157
 53,0.00005529,-0.00113267,-0.00129126,0.00200594,0.00028234,0.00028716
 ,-0.00086450,0.00025972,0.00001935,0.00001708,-0.00000367,-0.00000356,
 -0.00015857,0.00000610,-0.00003225,-0.00001658,0.00012438,-0.00001985,
 -0.00004291,-0.00000266,0.00007340,0.00015007,0.00006886,0.00005953,-0
 .00004742,-0.00001736,0.00002033,0.00002896,0.00003184,0.00000584,0.00
 006377,0.00000701,0.00002497,0.00002428,0.00001121,-0.00003957,-0.0000
 2343,0.00001505,0.00003496,0.00002088,-0.00005965,-0.00015083,0.000026
 94,0.00001725,0.00009624,0.00004951,0.00000955,-0.00001150,-0.00001137
 ,-0.00000487,-0.00001031,0.00000193,-0.00000400,-0.00000338,-0.0000072
 1,0.00034887,-0.00260410,0.00012806,0.00007523,-0.00004477,-0.00006733
 ,-0.00205651,0.00596981,-0.00093685,0.00008395,-0.00012694,0.00001013,
 -0.00271104,-0.01466789,0.00118860,-0.02658045,0.02387262,-0.00097952,
 -0.00098463,0.00093593,-0.00000823,-0.00003419,-0.00065732,-0.00000221
 ,0.00049710,0.00023115,0.00005691,-0.00057980,-0.00005568,-0.00007063,
 0.00002699,-0.00001158,0.00000842,0.00012837,0.00071546,0.00000352,0.0
 0008476,-0.00002950,0.00001620,0.00071365,-0.00042073,0.00009902,-0.00
 004703,0.00005433,-0.00000229,-0.00085401,0.00057936,-0.00010756,0.000
 02928,-0.00013379,0.00001151,-0.00037762,-0.00014305,0.00006274,0.0001
 2340,-0.00000207,-0.00014773,-0.00000122,-0.00000173,0.00001870,-0.000
 02747,-0.00001761,0.00001110,0.00001005,0.00001958,0.00000105,0.001348
 99,0.00206504,-0.00031986,-0.00023891,0.00035913,-0.00039493,-0.376925
 55,0.10924134,-0.03804687,0.58399801,-0.00011471,-0.00109701,0.0005139
 3,-0.00159597,-0.00077895,-0.00021872,-0.00004024,-0.00028543,-0.00033
 029,-0.00002521,0.00008012,-0.00002494,-0.00003642,-0.00014555,0.00052
 328,-0.00000852,0.00002158,-0.00021501,0.00003307,0.00017047,-0.000172
 32,0.00004349,-0.00000535,-0.00006765,0.00008133,0.00000706,-0.0000168
 6,0.00003180,-0.00004914,0.00001990,0.00000910,0.00006174,0.00010705,0
 .00001246,0.00006894,-0.00007371,-0.00001024,0.00002271,0.00000870,0.0
 0008871,0.00003089,0.00002782,-0.00000218,0.00000831,0.00000732,-0.000
 09373,-0.00003646,-0.00002348,0.00002033,0.00000760,0.00002136,-0.0000
 3615,-0.00008791,0.00000880,0.00001954,0.00006469,0.00003109,0.0000042
 2,-0.00000792,-0.00000493,-0.00000142,-0.00000651,0.00000251,-0.000003
 95,0.00000011,-0.00000579,0.00002056,-0.00018910,0.00002270,0.00000070
 ,0.00000998,-0.00000072,-0.00017910,0.00010262,-0.00002989,-0.00006425
 ,0.00002899,-0.00000555,-0.00036340,0.00056039,0.00013618,0.00642735,0
 .00209442,-0.00051328,-0.00007496,0.00006732,-0.00001367,0.00000266,-0
 .00004346,-0.00000338,0.00003249,0.00000207,0.00000006,-0.00003537,0.0
 0000036,-0.00000824,0.00000260,0.00000004,0.00000437,-0.00000255,0.000
 03793,-0.00000060,0.00000512,-0.00000225,0.00000636,0.00004475,-0.0000
 2888,0.00001054,-0.00000380,0.00000493,0.00000215,-0.00005341,0.000037
 67,-0.00001217,0.00000150,-0.00000749,0.00000442,-0.00000675,0.0000036
 8,-0.00000604,0.00000306,-0.00000454,0.00000714,-0.00000210,-0.0000003
 8,-0.00000408,0.00000049,-0.00000262,0.00000050,0.00000072,0.00000239,
 -0.00000104,0.00011790,-0.00091676,0.00016839,0.00210470,-0.00234258,0
 .00024040,0.08699032,-0.06247712,0.02778067,-0.09728449,0.14559677,-0.
 00062824,-0.00004819,-0.00012054,0.00007395,0.00009005,-0.00087331,-0.
 00023244,0.00009661,0.00079637,-0.00005860,-0.00015249,-0.00006356,0.0
 0132841,0.00085188,-0.00208097,0.00008731,-0.00027858,0.00123291,-0.00
 007633,0.00003272,0.00002643,-0.00010704,0.00025676,-0.00007547,-0.000
 03295,-0.00005354,0.00016136,-0.00001041,0.00008111,0.00002854,0.00006
 359,-0.00003307,-0.00012530,0.00005249,-0.00018191,0.00018012,-0.00000
 148,-0.00006310,-0.00001967,-0.00029686,-0.00004522,-0.00010235,0.0000
 4226,-0.00001898,-0.00002273,0.00031683,0.00009974,0.00007188,-0.00004
 173,-0.00001341,-0.00006113,0.00011056,0.00024229,-0.00002137,-0.00003
 665,-0.00016867,-0.00008473,-0.00001426,0.00002085,0.00001232,0.000003
 67,0.00001918,-0.00000325,0.00001183,-0.00000014,0.00001390,-0.0001899
 0,0.00113314,-0.00012417,-0.00000852,-0.00001266,-0.00001039,0.0010400
 6,-0.00250031,-0.00025003,-0.00003088,0.00003434,-0.00001641,-0.000252
 51,0.00707498,-0.00075792,0.00657568,-0.00781200,0.00536862,0.00040370
 ,-0.00039915,0.00009662,0.00001402,0.00029027,0.00002421,-0.00021920,-
 0.00009169,-0.00001731,0.00025111,0.00002167,0.00003396,-0.00001122,0.
 00000446,-0.00001438,-0.00005200,-0.00030754,-0.00000338,-0.00003724,0
 .00001179,-0.00002475,-0.00031509,0.00018787,-0.00005244,0.00002125,-0
 .00002515,-0.00000831,0.00037443,-0.00025452,0.00006254,-0.00001324,0.
 00005754,-0.00001613,0.00014765,0.00005483,-0.00000241,-0.00004543,0.0
 0000671,0.00003182,0.00000303,-0.00000226,-0.00000046,0.00001134,0.000
 00937,-0.00000336,-0.00000579,-0.00000790,0.00000081,-0.00170547,-0.00
 059097,-0.00008433,0.00070943,0.00036007,0.00038436,-0.00243326,0.0206
 3942,-0.04731589,-0.05067189,-0.13457830,0.21233753,-0.00011758,0.0004
 6531,-0.00068367,-0.00041024,-0.00028055,0.00063889,0.00105026,-0.0000
 1570,-0.00021125,0.00012378,0.00026304,0.00009766,-0.00253891,-0.00243
 401,0.00225151,0.00068315,0.00056048,-0.00099083,0.00048142,0.00020120
 ,0.00016662,-0.00007254,0.00004674,-0.00010862,-0.00002565,-0.00006121
 ,0.00001757,0.00018226,0.00002430,-0.00008988,-0.00003033,0.00010852,0
 .00020074,0.00012373,0.00006659,-0.00003737,-0.00002223,0.00004885,0.0
 0003518,0.00002362,0.00000763,0.00008256,-0.00000074,0.00003018,0.0000
 3603,0.00004744,-0.00004448,-0.00004105,0.00001354,0.00004778,0.000031
 53,-0.00007100,-0.00018408,0.00000823,0.00002094,0.00012117,0.00006596
 ,0.00001241,-0.00001495,-0.00001146,-0.00000448,-0.00001198,-0.0000006
 5,-0.00000704,-0.00000523,-0.00000920,0.00039865,-0.00175757,0.0001772
 7,0.00006505,-0.00008837,-0.00001734,-0.00164392,0.00317889,-0.0004234
 1,-0.00003982,-0.00001006,-0.00002850,0.00218215,-0.00809525,0.0005679
 3,-0.00879374,0.00881103,-0.00053323,-0.00069721,0.00057147,-0.0000767
 1,-0.00000424,-0.00045618,-0.00000909,0.00033179,0.00016760,0.00003516
 ,-0.00040239,-0.00004196,-0.00004925,0.00001961,-0.00001119,0.00000947
 ,0.00009319,0.00049542,0.00000851,0.00006354,-0.00002097,0.00001499,0.
 00050468,-0.00030608,0.00007118,-0.00003235,0.00003731,0.00000274,-0.0
 0060367,0.00041748,-0.00008103,0.00002138,-0.00009855,0.00001200,-0.00
 027032,-0.00009281,0.00004030,0.00009252,-0.00000685,-0.00009790,-0.00
 000309,0.00000006,0.00001070,-0.00002012,-0.00001452,0.00000676,0.0000
 0758,0.00001540,0.00000088,0.00115177,0.00142623,-0.00013408,-0.000165
 84,-0.00030037,-0.00054275,0.01925492,-0.00916443,0.00725129,-0.103065
 61,-0.05700345,0.10758808,0.90658186,0.00029335,-0.00014298,-0.0003079
 3,0.00000981,-0.00004613,-0.00005339,0.00014198,-0.00033817,-0.0000895
 3,-0.00003020,0.00007271,0.00002283,0.00003279,0.00008520,0.00014734,0
 .00002780,-0.00009942,0.00000078,0.00008350,0.00012533,0.00004544,0.00
 009775,0.00001513,0.00006270,-0.00001018,0.00001054,0.00001522,-0.0000
 3619,-0.00000577,0.00001333,0.00001817,0.00003128,-0.00001010,0.000024
 63,0.00000865,-0.00000454,0.00000584,0.00000835,-0.00000565,0.00002462
 ,0.00002262,-0.00001684,-0.00000466,-0.00000374,-0.00000505,-0.0000371
 0,-0.00000116,-0.00000024,0.00000492,-0.00000730,-0.00000069,-0.000009
 26,-0.00000551,0.00000060,0.00000313,0.00000093,0.00000105,-0.00000086
 ,0.00000055,0.00000099,0.00000051,-0.00000087,0.00000010,-0.00000055,0
 .00000017,-0.00000113,-0.00005676,0.00008796,-0.00002292,-0.00000904,0
 .00001360,0.00000916,0.00005847,-0.00004483,0.00005130,0.00001099,-0.0
 0000611,0.00001281,-0.00041928,0.00028764,0.00002615,-0.00074655,0.000
 36559,-0.00054881,0.00003790,-0.00001574,0.00000383,-0.00000268,0.0000
 2533,-0.00000307,-0.00001493,-0.00001001,-0.00000482,0.00002234,0.0000
 0372,0.00000146,-0.00000067,0.00000104,0.00000126,-0.00000988,-0.00003
 023,-0.00000130,-0.00000570,0.00000084,0.00000261,-0.00003158,0.000021
 15,-0.00000296,0.00000135,-0.00000202,0.00000080,0.00003792,-0.0000267
 2,0.00000337,-0.00000235,0.00000649,0.00000063,0.00002252,0.00000625,-
 0.00000630,-0.00000864,0.00000031,0.00001103,0.00000001,0.00000031,-0.
 00000142,0.00000153,0.00000104,-0.00000058,-0.00000029,-0.00000129,-0.
 00000038,-0.00004409,0.00013831,0.00017913,0.00008856,-0.00011769,-0.0
 0007556,-0.00175944,0.00257675,0.01136251,-0.05429892,0.01876809,-0.02
 264675,-0.10493458,0.06072306,-0.00040842,-0.00009430,-0.00005685,0.00
 000386,-0.00026394,-0.00036944,0.00025289,0.00009471,0.00017051,0.0000
 0559,0.00003323,0.00000910,-0.00024962,-0.00048390,-0.00000196,0.00017
 943,0.00008441,0.00009210,0.00014749,0.00001497,-0.00009362,0.00002413
 ,0.00008048,-0.00007834,0.00000930,-0.00002878,0.00003851,0.00005923,0
 .00002429,-0.00002168,-0.00000753,0.00002039,-0.00001616,0.00004485,-0
 .00003294,0.00004196,-0.00000723,-0.00001448,0.00000405,-0.00008498,-0
 .00000870,-0.00000829,0.00001829,0.00000715,0.00000636,0.00011557,0.00
 001834,0.00001499,-0.00000840,0.00001077,-0.00001287,0.00001590,0.0000
 2330,0.00000799,-0.00000679,-0.00002377,-0.00001027,-0.00000116,0.0000
 0303,0.00000015,-0.00000053,0.00000243,-0.00000115,0.00000259,-0.00000
 097,0.00000233,-0.00000271,0.00021336,-0.00000859,0.00000988,-0.000033
 88,0.00000473,0.00013578,-0.00070468,0.00005061,-0.00004110,0.00002200
 ,-0.00001422,0.00106880,0.00210484,-0.00031805,0.00288362,-0.00338331,
 0.00068203,0.00006161,-0.00009179,-0.00000751,0.00000779,0.00004971,0.
 00000463,-0.00004217,-0.00000948,-0.00000292,0.00004032,0.00000181,0.0
 0000833,-0.00000198,-0.00000084,-0.00000431,-0.00000342,-0.00004982,0.
 00000222,-0.00000363,0.00000153,-0.00000599,-0.00004854,0.00002768,-0.
 00001009,0.00000332,-0.00000426,-0.00000164,0.00005763,-0.00003788,0.0
 0001136,-0.00000178,0.00000822,-0.00000351,0.00001492,0.00000768,0.000
 00279,-0.00000381,0.00000065,0.00000010,0.00000041,-0.00000022,0.00000
 085,0.00000117,0.00000138,-0.00000045,-0.00000089,-0.00000096,0.000000
 48,-0.00034785,0.00023532,0.00002757,0.00008402,-0.00008812,-0.0001488
 5,0.00070929,0.01371379,-0.00690969,0.10024537,-0.02178247,-0.01030390
 ,-0.12116811,-0.03777024,0.09645682,0.00023390,-0.00068027,0.00082200,
 0.00066820,0.00035677,-0.00066364,-0.00143819,0.00010137,0.00015326,-0
 .00014938,-0.00035617,-0.00014640,0.00257882,0.00334520,-0.00283634,-0
 .00067836,-0.00078389,0.00146772,-0.00059178,-0.00026152,-0.00011213,0
 .00000444,0.00009235,0.00027151,-0.00002965,0.00007379,0.00003972,-0.0
 0023859,-0.00000230,0.00009876,0.00002604,-0.00011326,-0.00030706,-0.0
 0011644,-0.00011515,0.00008988,0.00002748,-0.00006093,-0.00004979,-0.0
 0007489,0.00000716,-0.00013505,0.00000647,-0.00003838,-0.00004232,-0.0
 0000080,0.00006612,0.00005245,-0.00002600,-0.00005703,-0.00004313,0.00
 011197,0.00026713,-0.00003322,-0.00003361,-0.00017025,-0.00009176,-0.0
 0001673,0.00002054,0.00001652,0.00000642,0.00001823,-0.00000037,0.0000
 0976,0.00000617,0.00001337,-0.00051802,0.00216018,-0.00019892,-0.00007
 015,0.00008231,0.00003078,0.00201644,-0.00377652,0.00055502,0.00003549
 ,0.00000952,0.00002817,-0.00289283,0.01036518,-0.00065442,0.01030849,-
 0.00992703,-0.00043239,0.00083952,-0.00069197,0.00007242,-0.00000042,0
 .00054732,0.00000830,-0.00040537,-0.00019247,-0.00003887,0.00047888,0.
 00005105,0.00006212,-0.00002354,0.00001235,-0.00001403,-0.00010543,-0.
 00058289,-0.00000813,-0.00007370,0.00002503,-0.00001981,-0.00059395,0.
 00035797,-0.00008614,0.00003778,-0.00004381,-0.00000366,0.00070801,-0.
 00049077,0.00009651,-0.00002405,0.00011577,-0.00001517,0.00030907,0.00
 010572,-0.00004342,-0.00010551,0.00000895,0.00010918,0.00000409,-0.000
 00025,-0.00001112,0.00002256,0.00001693,-0.00000789,-0.00000911,-0.000
 01802,-0.00000053,-0.00255499,-0.00051783,0.00032124,0.00029430,0.0003
 4060,0.00083845,-0.03844033,-0.02443737,0.04419095,-0.07237655,0.06094
 337,-0.06170203,-0.81448810,0.16142399,0.01623760,0.91734825,0.0006190
 1,-0.00035667,0.00043289,-0.00011958,-0.00095789,-0.00059943,-0.000430
 07,-0.00051650,-0.00002982,-0.00008505,-0.00007014,-0.00003377,0.00115
 391,-0.00007831,-0.00125148,-0.00043303,0.00005079,0.00038927,-0.00013
 184,-0.00001945,-0.00013943,0.00000144,0.00009873,0.00014432,0.0000033
 6,0.00000423,0.00003810,-0.00006903,0.00000314,0.00002435,0.00002048,-
 0.00007243,-0.00014281,-0.00000660,-0.00003103,0.00004696,0.00000982,-
 0.00002741,-0.00002264,-0.00005911,0.00001419,-0.00006614,0.00000910,-
 0.00000803,-0.00000808,0.00004865,0.00001990,0.00002434,-0.00001372,-0
 .00000944,-0.00001940,0.00005046,0.00009259,-0.00000306,-0.00001616,-0
 .00006657,-0.00003665,-0.00000586,0.00000877,0.00000501,0.00000088,0.0
 0000649,-0.00000037,0.00000521,0.00000153,0.00000614,-0.00010522,0.000
 73977,-0.00003742,-0.00002005,0.00002704,-0.00000814,0.00074235,-0.001
 66281,0.00021895,0.00000066,0.00003025,-0.00002708,-0.00044067,0.00375
 243,-0.00044680,0.00589504,-0.00553550,0.00136888,0.00030098,-0.000262
 91,0.00002671,0.00000294,0.00019177,0.00001070,-0.00014318,-0.00006898
 ,-0.00000798,0.00017178,0.00001520,0.00002590,-0.00000743,0.00000420,-
 0.00000785,-0.00003042,-0.00020423,-0.00000152,-0.00002135,0.00000962,
 -0.00001525,-0.00020779,0.00011856,-0.00003385,0.00001437,-0.00001662,
 -0.00000387,0.00024743,-0.00016424,0.00003904,-0.00000766,0.00003595,-
 0.00000925,0.00009888,0.00004061,-0.00000406,-0.00002820,0.00000207,0.
 00002526,0.00000130,-0.00000114,-0.00000185,0.00000778,0.00000543,-0.0
 0000269,-0.00000373,-0.00000447,0.00000050,0.00023065,-0.00215028,-0.0
 0073499,-0.00004515,0.00035875,0.00016628,-0.00463104,0.00379386,-0.01
 785577,0.02668579,-0.09934644,0.13860888,0.16834277,-0.08250326,0.0481
 0428,-0.19760310,0.18470887,0.00126028,-0.00013027,0.00043603,-0.00033
 774,-0.00087876,0.00054415,0.00005178,0.00009200,-0.00108554,-0.000000
 71,0.00013228,0.00004390,-0.00099146,-0.00003673,0.00106919,-0.0000469
 6,0.00012782,-0.00082711,-0.00004311,-0.00007552,-0.00015128,0.0001674
 4,-0.00029404,0.00019003,0.00006598,0.00011709,-0.00020176,-0.00005665
 ,-0.00011076,0.00000363,-0.00004842,0.00006359,0.00011994,-0.00011047,
 0.00024500,-0.00024795,0.00001209,0.00006939,0.00000894,0.00042079,0.0
 0006666,0.00010561,-0.00005308,0.00001421,0.00001494,-0.00046913,-0.00
 012498,-0.00008234,0.00005580,0.00000094,0.00007012,-0.00012890,-0.000
 28096,0.00003205,0.00004533,0.00019146,0.00009267,0.00001394,-0.000022
 80,-0.00001367,-0.00000438,-0.00002350,0.00000590,-0.00001253,0.000002
 17,-0.00001645,0.00021835,-0.00133337,0.00009311,-0.00000988,0.0000676
 1,-0.00001980,-0.00110496,0.00308614,-0.00032566,0.00008702,-0.0000532
 7,0.00003699,-0.00118599,-0.00928120,0.00104533,-0.01043796,0.01144871
 ,-0.00168010,-0.00045981,0.00048297,-0.00001242,-0.00001925,-0.0003277
 3,-0.00001450,0.00025528,0.00009109,0.00002281,-0.00027713,-0.00002311
 ,-0.00004378,0.00001225,-0.00000111,0.00001642,0.00004780,0.00034015,-
 0.00000285,0.00003727,-0.00001240,0.00002283,0.00034137,-0.00020172,0.
 00005724,-0.00002262,0.00002732,0.00000562,-0.00040561,0.00027443,-0.0
 0006435,0.00001350,-0.00006165,0.00001462,-0.00014980,-0.00005749,0.00
 000725,0.00004691,-0.00000519,-0.00003798,-0.00000260,0.00000063,0.000
 00117,-0.00001083,-0.00000968,0.00000412,0.00000559,0.00000881,-0.0000
 0116,0.00218180,-0.00044559,0.00016308,-0.00026180,-0.00014555,-0.0003
 3590,0.01465272,-0.01291909,-0.00082979,-0.01137899,0.12845750,-0.1582
 0398,0.00591562,0.04960379,-0.07923023,0.00212182,-0.16815533,0.239200
 95\\-0.00000434,0.00000005,0.00000291,0.00000566,0.00000546,0.00000300
 ,0.00000284,0.00000472,-0.00000282,0.00000352,0.00000315,0.00000192,-0
 .00000615,-0.00001032,0.00001560,-0.00000263,0.00000529,-0.00001385,0.
 00000352,0.00000738,-0.00000067,-0.00000039,0.00000376,-0.00000076,-0.
 00000252,0.00000197,-0.00000100,0.00000104,0.00000811,-0.00000030,0.00
 000253,0.00000116,-0.00000310,0.00000236,0.00000236,-0.00000104,-0.000
 00484,0.00000485,-0.00000147,-0.00000255,0.00000400,0.00000083,-0.0000
 0050,0.00000484,-0.00000062,0.00000122,0.00000799,0.00000011,0.0000000
 6,0.00000772,-0.00000036,-0.00000100,0.00000570,-0.00000088,-0.0000023
 6,0.00000943,-0.00000119,-0.00000354,0.00000645,0.00000120,-0.00000364
 ,0.00000726,0.00000183,-0.00000421,0.00000802,-0.00000155,0.00000055,0
 .00000338,0.00000447,-0.00000368,-0.00000285,-0.00000269,0.00000240,-0
 .00000409,0.00000329,0.00000053,-0.00000439,-0.00000194,-0.00000674,-0
 .00000673,-0.00000345,0.00001166,0.00000049,0.00000031,-0.00000029,-0.
 00000439,0.00000018,0.00000174,-0.00000383,0.00000308,0.00000020,-0.00
 000760,-0.00000174,-0.00000217,-0.00000138,0.00000157,-0.00000243,-0.0
 0000309,0.00000052,-0.00000115,-0.00000477,-0.00000034,0.00000375,-0.0
 0000277,0.00000090,-0.00000379,-0.00000589,0.00000104,-0.00000366,-0.0
 0000827,0.00000097,0.00000164,-0.00000425,-0.00000314,-0.00000327,-0.0
 0000618,0.00000170,0.00000031,-0.00000823,0.00000150,-0.00000045,-0.00
 000943,0.00000476,-0.00000017,-0.00000856,-0.00000122,-0.00000022,-0.0
 0000872,0.00000050,-0.00000220,-0.00000888,0.00000119,0.00001830,0.000
 00264,-0.00000304,-0.00000286,-0.00000040,-0.00000301,0.00000847,0.000
 00558,-0.00000392,-0.00001377,-0.00001713,0.00002245,0.00000864,0.0000
 0657,-0.00000400,0.00000457,0.00001381,-0.00001768\\\@


 A CHEMICAL PHYSICIST MAKES PRECISE MEASUREMENTS ON IMPURE COMPOUNDS.
 A THEORETICAL PHYSICAL CHEMIST MAKES IMPRECISE
     MEASUREMENTS ON PURE COMPOUNDS.
 AN EXPERIMENTAL PHYSICAL CHEMIST MAKES IMPRECISE
     MEASUREMENTS ON IMPURE COMPOUNDS.
 Job cpu time:       0 days  3 hours 28 minutes 27.2 seconds.
 Elapsed time:       0 days  3 hours 28 minutes 46.1 seconds.
 File lengths (MBytes):  RWF=   3762 Int=      0 D2E=      0 Chk=     63 Scr=      1
 Normal termination of Gaussian 16 at Thu Nov  7 00:02:43 2024.
