 Entering Gaussian System, Link 0=g16
 Initial command:
 /sw/cluster/pub/apps//g16/l1.exe "/data/natrosa/25873/Gau-317769.inp" -scrdir="/data/natrosa/25873/"
 Entering Link 1 = /sw/cluster/pub/apps//g16/l1.exe PID=    317770.
  
 Copyright (c) 1988,1990,1992,1993,1995,1998,2003,2009,2016,
            Gaussian, Inc.  All Rights Reserved.
  
 This is part of the Gaussian(R) 16 program.  It is based on
 the Gaussian(R) 09 system (copyright 2009, Gaussian, Inc.),
 the Gaussian(R) 03 system (copyright 2003, Gaussian, Inc.),
 the Gaussian(R) 98 system (copyright 1998, Gaussian, Inc.),
 the Gaussian(R) 94 system (copyright 1995, Gaussian, Inc.),
 the Gaussian 92(TM) system (copyright 1992, Gaussian, Inc.),
 the Gaussian 90(TM) system (copyright 1990, Gaussian, Inc.),
 the Gaussian 88(TM) system (copyright 1988, Gaussian, Inc.),
 the Gaussian 86(TM) system (copyright 1986, Carnegie Mellon
 University), and the Gaussian 82(TM) system (copyright 1983,
 Carnegie Mellon University). Gaussian is a federally registered
 trademark of Gaussian, Inc.
  
 This software contains proprietary and confidential information,
 including trade secrets, belonging to Gaussian, Inc.
  
 This software is provided under written license and may be
 used, copied, transmitted, or stored only in accord with that
 written license.
  
 The following legend is applicable only to US Government
 contracts under FAR:
  
                    RESTRICTED RIGHTS LEGEND
  
 Use, reproduction and disclosure by the US Government is
 subject to restrictions as set forth in subparagraphs (a)
 and (c) of the Commercial Computer Software - Restricted
 Rights clause in FAR 52.227-19.
  
 Gaussian, Inc.
 340 Quinnipiac St., Bldg. 40, Wallingford CT 06492
  
  
 ---------------------------------------------------------------
 Warning -- This program may not be used in any manner that
 competes with the business of Gaussian, Inc. or will provide
 assistance to any competitor of Gaussian, Inc.  The licensee
 of this program is prohibited from giving any competitor of
 Gaussian, Inc. access to this program.  By using this program,
 the user acknowledges that Gaussian, Inc. is engaged in the
 business of creating and licensing software in the field of
 computational chemistry and represents and warrants to the
 licensee that it is not a competitor of Gaussian, Inc. and that
 it will not use this program in any manner prohibited above.
 ---------------------------------------------------------------
  

 Cite this work as:
 Gaussian 16, Revision A.03,
 M. J. Frisch, G. W. Trucks, H. B. Schlegel, G. E. Scuseria, 
 M. A. Robb, J. R. Cheeseman, G. Scalmani, V. Barone, 
 G. A. Petersson, H. Nakatsuji, X. Li, M. Caricato, A. V. Marenich, 
 J. Bloino, B. G. Janesko, R. Gomperts, B. Mennucci, H. P. Hratchian, 
 J. V. Ortiz, A. F. Izmaylov, J. L. Sonnenberg, D. Williams-Young, 
 F. Ding, F. Lipparini, F. Egidi, J. Goings, B. Peng, A. Petrone, 
 T. Henderson, D. Ranasinghe, V. G. Zakrzewski, J. Gao, N. Rega, 
 G. Zheng, W. Liang, M. Hada, M. Ehara, K. Toyota, R. Fukuda, 
 J. Hasegawa, M. Ishida, T. Nakajima, Y. Honda, O. Kitao, H. Nakai, 
 T. Vreven, K. Throssell, J. A. Montgomery, Jr., J. E. Peralta, 
 F. Ogliaro, M. J. Bearpark, J. J. Heyd, E. N. Brothers, K. N. Kudin, 
 V. N. Staroverov, T. A. Keith, R. Kobayashi, J. Normand, 
 K. Raghavachari, A. P. Rendell, J. C. Burant, S. S. Iyengar, 
 J. Tomasi, M. Cossi, J. M. Millam, M. Klene, C. Adamo, R. Cammi, 
 J. W. Ochterski, R. L. Martin, K. Morokuma, O. Farkas, 
 J. B. Foresman, and D. J. Fox, Gaussian, Inc., Wallingford CT, 2016.
 
 ******************************************
 Gaussian 16:  ES64L-G16RevA.03 25-Dec-2016
                 2-Dec-2024 
 ******************************************
 %oldchk=/home/natrosa/MOSSRI/REACAO-2/CURCUMIN-OPT-FREQ-Prod2-M06-2X-6-311G-D-29
 8.chk
 %chk=CURCUMIN-Prod-2-M062X-6-311G-D-298-NBO.chk
 Copying data from "/home/natrosa/MOSSRI/REACAO-2/CURCUMIN-OPT-FREQ-Prod2-M06-2X-6-311G-D-298.chk" to current chk file "CURCUMIN-Prod-2-M062X-6-311G-D-298-NBO.chk"
 IOpt=  2 FromEx=T IUOpen= 4 IOptOp= 5 NList=   0 IFRang= 0 IUIn= 4 IUOut= 2.
 ----------------------------------------------------------------------
 # pop=nbo M062X/6-311g(d) scrf=(smd,solvent=generic,read) temperature=
 298.15 Geom=Check Guess=Read
 ----------------------------------------------------------------------
 1/29=2,38=1,40=2,112=298150,172=1/1;
 2/12=2,40=1/2;
 3/5=4,6=6,7=1,11=2,14=-4,25=1,30=1,70=32203,72=-2,74=-55,116=-2/1,2,3;
 4/5=1/1;
 5/5=2,38=6/2;
 6/7=2,8=2,9=2,10=2,28=1,40=1/1,7;
 99/5=1,9=1/99;
 ----------
 Reagente 1
 ----------
 Structure from the checkpoint file:  "CURCUMIN-Prod-2-M062X-6-311G-D-298-NBO.chk"
 Charge =  0 Multiplicity = 2
 Redundant internal coordinates found in file.  (old form).
 C,0,-2.7117248434,0.286643621,-0.3406180544
 H,0,-2.451000555,1.0193392308,-1.1001854062
 C,0,-1.7751187761,-0.1310417024,0.5235555966
 H,0,-2.012888062,-0.8290349686,1.3204960709
 C,0,-0.3835440151,0.3587492606,0.5826723382
 O,0,0.3187414901,0.0929818101,1.552540268
 C,0,-4.1161977581,-0.1188895162,-0.3666543245
 C,0,-4.9796774826,0.5116578028,-1.265303027
 C,0,-4.6430803716,-1.1090256664,0.4782280666
 C,0,-6.3278076473,0.180724361,-1.3164007875
 H,0,-4.5952378577,1.2810644048,-1.9265145401
 C,0,-5.9813184006,-1.4458515329,0.4376621079
 H,0,-4.0197806745,-1.6321690037,1.1951432457
 C,0,-6.8405343765,-0.7931374374,-0.4672782833
 H,0,-6.991232152,0.6864582064,-2.0114892767
 O,0,-8.1437062831,-1.1523858925,-0.4511594975
 H,0,-8.6353324035,-0.6337820712,-1.1010863105
 O,0,-6.4739351503,-2.3820695963,1.2992566539
 C,0,-6.8010494149,-3.6231563381,0.675020302
 H,0,-5.9112123669,-4.0646252629,0.2165086882
 H,0,-7.1660755503,-4.2788534319,1.4635836521
 H,0,-7.5792259461,-3.4924210527,-0.0791119446
 C,0,2.8649823827,0.0016872748,-0.2089287478
 H,0,1.9906288526,-0.6330100142,-0.3286221867
 C,0,2.693293818,1.3360753982,-0.2068052607
 H,0,3.5182470547,2.033209101,-0.1037148059
 C,0,1.3960321114,1.9636399163,-0.3996801008
 O,0,1.3002395956,3.1852827005,-0.5173823132
 C,0,4.1226218235,-0.7191808007,-0.0700862899
 C,0,4.0970527379,-2.1171987242,-0.0687228643
 C,0,5.3650357594,-0.0744556131,0.057654264
 C,0,5.2653541056,-2.8545540531,0.06472784
 H,0,3.1481399297,-2.6336869902,-0.1662701586
 C,0,6.5325388059,-0.7962944514,0.193106159
 H,0,5.4463391377,1.0068227649,0.0645554199
 C,0,6.4880550609,-2.2047942863,0.1988386784
 H,0,5.2325213355,-3.9400023533,0.0741071968
 O,0,7.6611258508,-2.8553007921,0.3467910821
 H,0,7.5123510502,-3.80996052,0.342945465
 O,0,7.7210610386,-0.1478299737,0.3560202748
 C,0,8.5619642795,-0.1919148302,-0.7970108321
 H,0,8.0648745337,0.2826646584,-1.648121518
 H,0,9.4618311858,0.3659522921,-0.5443991938
 H,0,8.8295757428,-1.21927639,-1.0508105206
 C,0,0.1419837023,1.1702562164,-0.5129060516
 H,0,-0.4426496688,1.3509301429,-1.4065542263
 H,0,-0.2831714389,3.8521052661,-0.5958610807
 O,0,-1.2437833895,4.0812336107,-0.5915217828
 O,0,-2.902564614,3.568880545,0.5910083504
 N,0,-1.7454001861,3.4063646812,0.4750016656
 Recover connectivity data from disk.
                           ----------------------------
                           !    Current Parameters    !
                           ! (Angstroms and Degrees)  !
 --------------------------                            --------------------------
 ! Name  Definition              Value                                          !
 --------------------------------------------------------------------------------
 ! R1    R(1,2)                  1.0871                                         !
 ! R2    R(1,3)                  1.3411                                         !
 ! R3    R(1,7)                  1.4621                                         !
 ! R4    R(3,4)                  1.0857                                         !
 ! R5    R(3,5)                  1.4764                                         !
 ! R6    R(5,6)                  1.2266                                         !
 ! R7    R(5,45)                 1.4612                                         !
 ! R8    R(7,8)                  1.3967                                         !
 ! R9    R(7,9)                  1.4042                                         !
 ! R10   R(8,10)                 1.3891                                         !
 ! R11   R(8,11)                 1.0849                                         !
 ! R12   R(9,12)                 1.3806                                         !
 ! R13   R(9,13)                 1.0845                                         !
 ! R14   R(10,14)                1.3901                                         !
 ! R15   R(10,15)                1.0858                                         !
 ! R16   R(12,14)                1.4083                                         !
 ! R17   R(12,18)                1.3644                                         !
 ! R18   R(14,16)                1.3519                                         !
 ! R19   R(16,17)                0.9659                                         !
 ! R20   R(18,19)                1.4272                                         !
 ! R21   R(19,20)                1.094                                          !
 ! R22   R(19,21)                1.0886                                         !
 ! R23   R(19,22)                1.0915                                         !
 ! R24   R(23,24)                1.087                                          !
 ! R25   R(23,25)                1.3454                                         !
 ! R26   R(23,29)                1.4562                                         !
 ! R27   R(25,26)                1.085                                          !
 ! R28   R(25,27)                1.4539                                         !
 ! R29   R(27,28)                1.231                                          !
 ! R30   R(27,45)                1.4883                                         !
 ! R31   R(28,47)                1.7199                                         !
 ! R32   R(29,30)                1.3983                                         !
 ! R33   R(29,31)                1.4056                                         !
 ! R34   R(30,32)                1.388                                          !
 ! R35   R(30,33)                1.0848                                         !
 ! R36   R(31,34)                1.3793                                         !
 ! R37   R(31,35)                1.0844                                         !
 ! R38   R(32,36)                1.3911                                         !
 ! R39   R(32,37)                1.086                                          !
 ! R40   R(34,36)                1.4092                                         !
 ! R41   R(34,40)                1.3637                                         !
 ! R42   R(36,38)                1.3495                                         !
 ! R43   R(38,39)                0.9662                                         !
 ! R44   R(40,41)                1.4278                                         !
 ! R45   R(41,42)                1.0939                                         !
 ! R46   R(41,43)                1.0885                                         !
 ! R47   R(41,44)                1.0916                                         !
 ! R48   R(45,46)                1.0831                                         !
 ! R49   R(47,48)                0.9876                                         !
 ! R50   R(48,50)                1.3581                                         !
 ! R51   R(49,50)                1.1743                                         !
 ! A1    A(2,1,3)              119.5157                                         !
 ! A2    A(2,1,7)              113.8842                                         !
 ! A3    A(3,1,7)              126.5817                                         !
 ! A4    A(1,3,4)              121.35                                           !
 ! A5    A(1,3,5)              125.5023                                         !
 ! A6    A(4,3,5)              112.9719                                         !
 ! A7    A(3,5,6)              119.9623                                         !
 ! A8    A(3,5,45)             119.5517                                         !
 ! A9    A(6,5,45)             120.483                                          !
 ! A10   A(1,7,8)              118.6926                                         !
 ! A11   A(1,7,9)              123.0449                                         !
 ! A12   A(8,7,9)              118.2609                                         !
 ! A13   A(7,8,10)             121.0719                                         !
 ! A14   A(7,8,11)             119.5539                                         !
 ! A15   A(10,8,11)            119.37                                           !
 ! A16   A(7,9,12)             121.2025                                         !
 ! A17   A(7,9,13)             121.4819                                         !
 ! A18   A(12,9,13)            117.3125                                         !
 ! A19   A(8,10,14)            120.1593                                         !
 ! A20   A(8,10,15)            120.3678                                         !
 ! A21   A(14,10,15)           119.47                                           !
 ! A22   A(9,12,14)            119.8161                                         !
 ! A23   A(9,12,18)            119.9235                                         !
 ! A24   A(14,12,18)           120.2348                                         !
 ! A25   A(10,14,12)           119.485                                          !
 ! A26   A(10,14,16)           123.2995                                         !
 ! A27   A(12,14,16)           117.2139                                         !
 ! A28   A(14,16,17)           109.8724                                         !
 ! A29   A(12,18,19)           113.7813                                         !
 ! A30   A(18,19,20)           110.3516                                         !
 ! A31   A(18,19,21)           106.4873                                         !
 ! A32   A(18,19,22)           111.1887                                         !
 ! A33   A(20,19,21)           109.4673                                         !
 ! A34   A(20,19,22)           109.7941                                         !
 ! A35   A(21,19,22)           109.4859                                         !
 ! A36   A(24,23,25)           118.4656                                         !
 ! A37   A(24,23,29)           114.5898                                         !
 ! A38   A(25,23,29)           126.9443                                         !
 ! A39   A(23,25,26)           122.7109                                         !
 ! A40   A(23,25,27)           122.8031                                         !
 ! A41   A(26,25,27)           114.436                                          !
 ! A42   A(25,27,28)           120.694                                          !
 ! A43   A(25,27,45)           122.1285                                         !
 ! A44   A(28,27,45)           117.1413                                         !
 ! A45   A(27,28,47)           117.4361                                         !
 ! A46   A(23,29,30)           118.636                                          !
 ! A47   A(23,29,31)           123.0239                                         !
 ! A48   A(30,29,31)           118.3396                                         !
 ! A49   A(29,30,32)           121.0552                                         !
 ! A50   A(29,30,33)           119.4694                                         !
 ! A51   A(32,30,33)           119.4739                                         !
 ! A52   A(29,31,34)           121.1361                                         !
 ! A53   A(29,31,35)           121.6179                                         !
 ! A54   A(34,31,35)           117.2429                                         !
 ! A55   A(30,32,36)           120.0644                                         !
 ! A56   A(30,32,37)           120.4224                                         !
 ! A57   A(36,32,37)           119.5111                                         !
 ! A58   A(31,34,36)           119.7854                                         !
 ! A59   A(31,34,40)           120.0394                                         !
 ! A60   A(36,34,40)           120.1529                                         !
 ! A61   A(32,36,34)           119.6169                                         !
 ! A62   A(32,36,38)           123.3295                                         !
 ! A63   A(34,36,38)           117.052                                          !
 ! A64   A(36,38,39)           109.9986                                         !
 ! A65   A(34,40,41)           113.7127                                         !
 ! A66   A(40,41,42)           110.3215                                         !
 ! A67   A(40,41,43)           106.4788                                         !
 ! A68   A(40,41,44)           111.1753                                         !
 ! A69   A(42,41,43)           109.5044                                         !
 ! A70   A(42,41,44)           109.8047                                         !
 ! A71   A(43,41,44)           109.4908                                         !
 ! A72   A(5,45,27)            122.826                                          !
 ! A73   A(5,45,46)            121.1422                                         !
 ! A74   A(27,45,46)           115.3843                                         !
 ! A75   A(47,48,50)           104.325                                          !
 ! A76   A(48,50,49)           111.8866                                         !
 ! A77   L(28,47,48,1,-1)      170.4109                                         !
 ! A78   L(28,47,48,1,-2)      177.6742                                         !
 ! D1    D(2,1,3,4)            177.3215                                         !
 ! D2    D(2,1,3,5)              2.4876                                         !
 ! D3    D(7,1,3,4)             -1.0196                                         !
 ! D4    D(7,1,3,5)           -175.8535                                         !
 ! D5    D(2,1,7,8)             -4.1757                                         !
 ! D6    D(2,1,7,9)            176.2947                                         !
 ! D7    D(3,1,7,8)            174.2455                                         !
 ! D8    D(3,1,7,9)             -5.284                                          !
 ! D9    D(1,3,5,6)            166.8679                                         !
 ! D10   D(1,3,5,45)           -12.5109                                         !
 ! D11   D(4,3,5,6)             -8.3411                                         !
 ! D12   D(4,3,5,45)           172.2801                                         !
 ! D13   D(3,5,45,27)          165.1919                                         !
 ! D14   D(3,5,45,46)           -5.1554                                         !
 ! D15   D(6,5,45,27)          -14.1836                                         !
 ! D16   D(6,5,45,46)          175.4692                                         !
 ! D17   D(1,7,8,10)          -178.9233                                         !
 ! D18   D(1,7,8,11)             0.3294                                         !
 ! D19   D(9,7,8,10)             0.629                                          !
 ! D20   D(9,7,8,11)           179.8816                                         !
 ! D21   D(1,7,9,12)           178.8448                                         !
 ! D22   D(1,7,9,13)            -0.4968                                         !
 ! D23   D(8,7,9,12)            -0.6866                                         !
 ! D24   D(8,7,9,13)           179.9718                                         !
 ! D25   D(7,8,10,14)           -0.0979                                         !
 ! D26   D(7,8,10,15)          179.2801                                         !
 ! D27   D(11,8,10,14)        -179.3519                                         !
 ! D28   D(11,8,10,15)           0.026                                          !
 ! D29   D(7,9,12,14)            0.2125                                         !
 ! D30   D(7,9,12,18)         -177.9493                                         !
 ! D31   D(13,9,12,14)         179.5805                                         !
 ! D32   D(13,9,12,18)           1.4188                                         !
 ! D33   D(8,10,14,12)          -0.3902                                         !
 ! D34   D(8,10,14,16)         179.1247                                         !
 ! D35   D(15,10,14,12)       -179.7738                                         !
 ! D36   D(15,10,14,16)         -0.2589                                         !
 ! D37   D(9,12,14,10)           0.3332                                         !
 ! D38   D(9,12,14,16)        -179.2109                                         !
 ! D39   D(18,12,14,10)        178.4891                                         !
 ! D40   D(18,12,14,16)         -1.055                                          !
 ! D41   D(9,12,18,19)        -108.0712                                         !
 ! D42   D(14,12,18,19)         73.7749                                         !
 ! D43   D(10,14,16,17)         -0.2696                                         !
 ! D44   D(12,14,16,17)        179.2556                                         !
 ! D45   D(12,18,19,20)         60.5622                                         !
 ! D46   D(12,18,19,21)        179.2794                                         !
 ! D47   D(12,18,19,22)        -61.5222                                         !
 ! D48   D(24,23,25,26)       -179.2797                                         !
 ! D49   D(24,23,25,27)         -1.9938                                         !
 ! D50   D(29,23,25,26)          0.4945                                         !
 ! D51   D(29,23,25,27)        177.7803                                         !
 ! D52   D(24,23,29,30)         -1.5291                                         !
 ! D53   D(24,23,29,31)        178.2099                                         !
 ! D54   D(25,23,29,30)        178.6893                                         !
 ! D55   D(25,23,29,31)         -1.5717                                         !
 ! D56   D(23,25,27,28)       -173.0666                                         !
 ! D57   D(23,25,27,45)          4.6802                                         !
 ! D58   D(26,25,27,28)          4.4252                                         !
 ! D59   D(26,25,27,45)       -177.828                                          !
 ! D60   D(25,27,28,47)       -174.4804                                         !
 ! D61   D(45,27,28,47)          7.6638                                         !
 ! D62   D(25,27,45,5)          64.4814                                         !
 ! D63   D(25,27,45,46)       -124.6586                                         !
 ! D64   D(28,27,45,5)        -117.6958                                         !
 ! D65   D(28,27,45,46)         53.1641                                         !
 ! D66   D(27,28,48,50)         47.8788                                         !
 ! D67   D(23,29,30,32)       -179.7954                                         !
 ! D68   D(23,29,30,33)         -0.2455                                         !
 ! D69   D(31,29,30,32)          0.4532                                         !
 ! D70   D(31,29,30,33)       -179.9968                                         !
 ! D71   D(23,29,31,34)        179.701                                          !
 ! D72   D(23,29,31,35)          0.3552                                         !
 ! D73   D(30,29,31,34)         -0.5592                                         !
 ! D74   D(30,29,31,35)       -179.9051                                         !
 ! D75   D(29,30,32,36)         -0.059                                          !
 ! D76   D(29,30,32,37)        179.4054                                         !
 ! D77   D(33,30,32,36)       -179.6089                                         !
 ! D78   D(33,30,32,37)         -0.1445                                         !
 ! D79   D(29,31,34,36)          0.269                                          !
 ! D80   D(29,31,34,40)       -178.0175                                         !
 ! D81   D(35,31,34,36)        179.6425                                         !
 ! D82   D(35,31,34,40)          1.356                                          !
 ! D83   D(30,32,36,34)         -0.2417                                         !
 ! D84   D(30,32,36,38)        179.2774                                         !
 ! D85   D(37,32,36,34)       -179.7111                                         !
 ! D86   D(37,32,36,38)         -0.1919                                         !
 ! D87   D(31,34,36,32)          0.1374                                         !
 ! D88   D(31,34,36,38)       -179.4115                                         !
 ! D89   D(40,34,36,32)        178.422                                          !
 ! D90   D(40,34,36,38)         -1.1269                                         !
 ! D91   D(31,34,40,41)       -107.1762                                         !
 ! D92   D(36,34,40,41)         74.5436                                         !
 ! D93   D(32,36,38,39)          0.0491                                         !
 ! D94   D(34,36,38,39)        179.5797                                         !
 ! D95   D(34,40,41,42)         60.5336                                         !
 ! D96   D(34,40,41,43)        179.274                                          !
 ! D97   D(34,40,41,44)        -61.5344                                         !
 ! D98   D(47,48,50,49)       -178.7261                                         !
 --------------------------------------------------------------------------------
                          Input orientation:                          
 ---------------------------------------------------------------------
 Center     Atomic      Atomic             Coordinates (Angstroms)
 Number     Number       Type             X           Y           Z
 ---------------------------------------------------------------------
      1          6           0       -2.711725    0.286644   -0.340618
      2          1           0       -2.451001    1.019339   -1.100185
      3          6           0       -1.775119   -0.131042    0.523556
      4          1           0       -2.012888   -0.829035    1.320496
      5          6           0       -0.383544    0.358749    0.582672
      6          8           0        0.318741    0.092982    1.552540
      7          6           0       -4.116198   -0.118890   -0.366654
      8          6           0       -4.979677    0.511658   -1.265303
      9          6           0       -4.643080   -1.109026    0.478228
     10          6           0       -6.327808    0.180724   -1.316401
     11          1           0       -4.595238    1.281064   -1.926515
     12          6           0       -5.981318   -1.445852    0.437662
     13          1           0       -4.019781   -1.632169    1.195143
     14          6           0       -6.840534   -0.793137   -0.467278
     15          1           0       -6.991232    0.686458   -2.011489
     16          8           0       -8.143706   -1.152386   -0.451159
     17          1           0       -8.635332   -0.633782   -1.101086
     18          8           0       -6.473935   -2.382070    1.299257
     19          6           0       -6.801049   -3.623156    0.675020
     20          1           0       -5.911212   -4.064625    0.216509
     21          1           0       -7.166076   -4.278853    1.463584
     22          1           0       -7.579226   -3.492421   -0.079112
     23          6           0        2.864982    0.001687   -0.208929
     24          1           0        1.990629   -0.633010   -0.328622
     25          6           0        2.693294    1.336075   -0.206805
     26          1           0        3.518247    2.033209   -0.103715
     27          6           0        1.396032    1.963640   -0.399680
     28          8           0        1.300240    3.185283   -0.517382
     29          6           0        4.122622   -0.719181   -0.070086
     30          6           0        4.097053   -2.117199   -0.068723
     31          6           0        5.365036   -0.074456    0.057654
     32          6           0        5.265354   -2.854554    0.064728
     33          1           0        3.148140   -2.633687   -0.166270
     34          6           0        6.532539   -0.796294    0.193106
     35          1           0        5.446339    1.006823    0.064555
     36          6           0        6.488055   -2.204794    0.198839
     37          1           0        5.232521   -3.940002    0.074107
     38          8           0        7.661126   -2.855301    0.346791
     39          1           0        7.512351   -3.809961    0.342945
     40          8           0        7.721061   -0.147830    0.356020
     41          6           0        8.561964   -0.191915   -0.797011
     42          1           0        8.064875    0.282665   -1.648122
     43          1           0        9.461831    0.365952   -0.544399
     44          1           0        8.829576   -1.219276   -1.050811
     45          6           0        0.141984    1.170256   -0.512906
     46          1           0       -0.442650    1.350930   -1.406554
     47          1           0       -0.283171    3.852105   -0.595861
     48          8           0       -1.243783    4.081234   -0.591522
     49          8           0       -2.902565    3.568881    0.591008
     50          7           0       -1.745400    3.406365    0.475002
 ---------------------------------------------------------------------
                    Distance matrix (angstroms):
                    1          2          3          4          5
     1  C    0.000000
     2  H    1.087089   0.000000
     3  C    1.341077   2.101601   0.000000
     4  H    2.119531   3.077032   1.085745   0.000000
     5  C    2.505612   2.746410   1.476438   2.147086   0.000000
     6  O    3.578447   3.945448   2.343768   2.518026   1.226573
     7  C    1.462080   2.146279   2.504650   2.788314   3.880987
     8  C    2.459529   2.584417   3.725892   4.157602   4.956091
     9  C    2.519630   3.438974   3.030464   2.775918   4.506542
    10  C    3.746922   3.972362   4.920327   5.156682   6.242791
    11  H    2.655478   2.312806   3.993740   4.654474   4.988492
    12  C    3.781204   4.572230   4.407745   4.111970   5.883255
    13  H    2.784136   3.841888   2.782610   2.165261   4.190596
    14  C    4.269548   4.790997   5.203706   5.148164   6.642437
    15  H    4.611491   4.642735   5.856842   6.179220   7.106237
    16  O    5.620449   6.127359   6.523199   6.389855   7.973234
    17  H    6.042733   6.401466   7.067867   7.054003   8.480105
    18  O    4.895452   5.788861   5.267610   4.723697   6.717027
    19  C    5.748098   6.605077   6.121910   5.581240   7.553044
    20  H    5.429609   6.289153   5.716172   5.185052   7.089107
    21  H    6.628736   7.541597   6.866616   6.202988   8.263540
    22  H    6.167843   6.906321   6.734222   6.327452   8.188242
    23  C    5.585535   5.485401   4.699435   5.179079   3.362596
    24  H    4.791455   4.801421   3.893460   4.334301   2.729605
    25  C    5.507580   5.230890   4.759472   5.400787   3.323458
    26  H    6.474501   6.136188   5.753014   6.388605   4.301037
    27  C    4.437282   4.022695   3.911042   4.730621   2.589900
    28  O    4.952698   4.370672   4.641055   5.519906   3.469083
    29  C    6.913260   6.877214   5.956649   6.292080   4.679055
    30  C    7.225776   7.333402   6.227199   6.396927   5.160463
    31  C    8.094633   7.976679   7.155562   7.523159   5.788737
    32  C    8.582844   8.712417   7.562824   7.658491   6.519481
    33  H    6.549561   6.750346   5.565750   5.665991   4.689177
    34  C    9.322769   9.255977   8.340799   8.619536   7.022684
    35  H    8.199807   7.982778   7.324949   7.783819   5.888632
    36  C    9.546425   9.591101   8.525605   8.684288   7.344247
    37  H    9.008195   9.220116   7.988567   7.982954   7.090705
    38  O   10.860036  10.925277   9.823215   9.931787   8.666168
    39  H   11.035450  11.165713   9.991204  10.028544   8.932008
    40  O   10.465041  10.341840   9.497672   9.805306   8.123584
    41  C   11.293068  11.083521  10.421271  10.803576   9.068014
    42  H   10.855629  10.555878  10.085277  10.564557   8.738307
    43  H   12.175520  11.943675  11.298521  11.686531   9.909680
    44  H   11.660780  11.500663  10.776012  11.105602   9.488941
    45  C    2.992341   2.662938   2.538289   3.464390   1.461169
    46  H    2.723532   2.058467   2.774354   3.828146   2.223722
    47  H    4.321520   3.602553   4.398234   5.345785   3.688164
    48  O    4.076361   3.330362   4.389644   5.325230   3.996953
    49  O    3.417225   3.092605   3.868476   4.545914   4.080500
    50  N    3.366256   2.945671   3.537864   4.327242   3.339791
                    6          7          8          9         10
     6  O    0.000000
     7  C    4.837033   0.000000
     8  C    6.015711   1.396695   0.000000
     9  C    5.217149   1.404208   2.404124   0.000000
    10  C    7.239830   2.425491   1.389094   2.778930   0.000000
    11  H    6.136983   2.150003   1.084888   3.390812   2.141211
    12  C    6.580404   2.426196   2.781226   1.380572   2.417135
    13  H    4.682590   2.176815   3.401645   1.084504   3.862826
    14  C    7.491335   2.808335   2.408760   2.413001   1.390074
    15  H    8.154154   3.408796   2.152603   3.864747   1.085839
    16  O    8.785145   4.158856   3.666463   3.622157   2.413154
    17  H    9.367249   4.607286   3.834425   4.319510   2.456512
    18  O    7.233981   3.668265   4.145290   2.376291   3.664823
    19  C    8.079056   4.535791   4.917208   3.319098   4.319632
    20  H    7.608088   4.373898   4.899581   3.226798   4.532809
    21  H    8.668526   5.473283   5.930949   4.169441   5.321545
    22  H    8.825831   4.843135   4.919080   3.822585   4.072951
    23  C    3.097491   6.984003   7.931878   7.620818   9.260990
    24  H    2.619359   6.128548   7.125504   6.699530   8.416309
    25  C    3.206100   6.965031   7.789388   7.763387   9.162222
    26  H    4.092004   7.936335   8.710863   8.764677  10.091932
    27  C    2.910512   5.892597   6.596001   6.832487   7.979779
    28  O    3.848408   6.346500   6.866223   7.399688   8.237288
    29  C    4.214502   8.265982   9.262578   8.791482  10.562888
    30  C    4.667872   8.458102   9.525215   8.815072  10.747784
    31  C    5.265720   9.490827  10.445422  10.070234  11.776066
    32  C    5.947313   9.781793  10.865590  10.069505  12.063243
    33  H    4.288884   7.689926   8.784218   7.965117   9.951748
    34  C    6.422628  10.684933  11.677706  11.183629  12.985441
    35  H    5.416776   9.638220  10.522145  10.317186  11.883603
    36  C    6.721065  10.822244  11.875677  11.188429  13.123757
    37  H    6.526558  10.109091  11.220530  10.281306  12.351320
    38  O    8.003550  12.112073  13.180484  12.428204  14.410896
    39  H    8.273095  12.220912  13.315916  12.452625  14.499275
    40  O    7.502265  11.859334  12.820779  12.402049  14.151878
    41  C    8.576262  12.685674  13.567991  13.298140  14.903487
    42  H    8.383483  12.254874  13.052177  12.959563  14.396865
    43  H    9.384442  13.587845  14.460225  14.218645  15.809585
    44  H    8.996319  13.010456  13.918966  13.559594  15.224218
    45  C    2.336200   4.451449   5.218359   5.392060   6.594162
    46  H    3.304299   4.091053   4.616162   5.219905   6.001049
    47  H    4.371377   5.523896   5.802061   6.691434   7.108857
    48  O    4.790056   5.093365   5.210831   6.295902   6.448777
    49  O    4.835621   3.998709   4.136049   4.992486   5.181708
    50  N    4.049725   4.330876   4.676381   5.365194   5.883225
                   11         12         13         14         15
    11  H    0.000000
    12  C    3.866086   0.000000
    13  H    4.308460   2.110953   0.000000
    14  C    3.387188   1.408263   3.379981   0.000000
    15  H    2.470135   3.400737   4.948540   2.143945   0.000000
    16  O    4.548624   2.356278   4.466236   1.351879   2.672859
    17  H    4.546464   3.173483   5.250977   1.910080   2.296722
    18  O    5.230072   1.364376   2.568280   2.404110   4.543622
    19  C    5.973690   2.338579   3.459771   3.052116   5.081956
    20  H    5.907684   2.629030   3.232968   3.468982   5.357538
    21  H    7.001047   3.237602   4.120215   3.998052   6.063087
    22  H    5.924799   2.647416   4.213539   2.825327   4.641428
    23  C    7.761559   8.987240   7.213936   9.741435  10.043062
    24  H    7.042058   8.049835   6.280542   8.833703   9.232923
    25  C    7.488866   9.132544   7.472704   9.772168   9.872635
    26  H    8.349668  10.131076   8.481974  10.743592  10.765802
    27  C    6.220325   8.170133   6.693604   8.685932   8.635701
    28  O    6.353610   8.682200   7.378564   9.061045   8.787775
    29  C    9.135009  10.142754   8.290541  10.970598  11.369372
    30  C    9.516065  10.113392   8.228949  11.024645  11.601073
    31  C   10.246044  11.435248   9.580978  12.237974  12.551402
    32  C   10.876565  11.340686   9.433228  12.291664  12.925686
    33  H    8.853453   9.226196   7.364480  10.161291  10.827514
    34  C   11.516754  12.533090  10.632695  13.389369  13.782278
    35  H   10.240744  11.693852   9.891912  12.429399  12.613714
    36  C   11.811339  12.494731  10.570484  13.419679  13.961951
    37  H   11.306939  11.493614   9.601453  12.488176  13.235331
    38  O   13.133769  13.715360  11.775370  14.670153  15.257691
    39  H   13.329017  13.699529  11.766864  14.688873  15.366036
    40  O   12.607257  13.763965  11.864011  14.599120  14.924902
    41  C   13.287491  14.649363  12.819646  15.417755  15.625249
    42  H   12.702470  14.305027  12.561434  14.990762  15.065903
    43  H   14.154464  15.580050  13.739445  16.343701  16.521452
    44  H   13.683720  14.887225  13.050699  15.686761  15.964106
    45  C    4.944880   6.726249   5.300123   7.253451   7.304970
    46  H    4.185598   6.473019   5.335127   6.812650   6.609947
    47  H    5.193728   7.848910   6.873661   8.037028   7.551384
    48  O    4.566771   7.352015   6.598583   7.422840   6.824513
    49  O    3.799627   5.886406   5.353883   5.971162   5.639021
    50  N    4.290193   6.441149   5.574785   6.669640   6.410872
                   16         17         18         19         20
    16  O    0.000000
    17  H    0.965946   0.000000
    18  O    2.713709   3.672845   0.000000
    19  C    3.029144   3.931349   1.427225   0.000000
    20  H    3.729738   4.574666   2.078459   1.094046   0.000000
    21  H    3.794312   4.692845   2.025796   1.088584   1.782069
    22  H    2.435738   3.214282   2.086731   1.091497   1.788038
    23  C   11.071666  11.552359   9.755629  10.361131   9.681812
    24  H   10.148375  10.654002   8.795342   9.340336   8.632048
    25  C   11.121723  11.533336  10.006543  10.747751  10.167806
    26  H   12.094209  12.482671  11.013933  11.793591  11.233914
    27  C   10.035879  10.385896   9.149206   9.977947   9.492918
    28  O   10.392683  10.660279   9.733108  10.649298  10.252063
    29  C   12.279890  12.799830  10.813294  11.327615  10.580736
    30  C   12.284678  12.860013  10.662425  11.026772  10.199961
    31  C   13.561229  14.059368  12.125506  12.688106  11.962460
    32  C   13.526508  14.125156  11.813476  12.106250  11.242907
    33  H   11.392155  11.988483   9.736293  10.033603   9.179650
    34  C   14.694695  15.223852  13.149396  13.638474  12.865826
    35  H   13.770166  14.224759  12.453996  13.107551  12.439319
    36  C   14.683954  15.260234  13.009825  13.373062  12.537987
    37  H   13.673704  14.304878  11.873048  12.052731  11.145340
    38  O   15.916324  16.510786  14.175016  14.486264  13.626731
    39  H   15.899857  16.520321  14.091473  14.318471  13.426574
    40  O   15.917020  16.428357  14.400675  14.935573  14.184485
    41  C   16.736832  17.205660  15.338494  15.810202  15.016589
    42  H   16.315949  16.734277  15.071988  15.545035  14.754890
    43  H   17.671134  18.133304  16.275729  16.789320  16.016849
    44  H   16.984003  17.474792  15.526505  15.908286  15.066285
    45  C    8.605297   8.980077   7.724852   8.520193   8.035995
    46  H    8.153873   8.435191   7.591647   8.336890   7.865606
    47  H    9.319543   9.494052   8.987879   9.998870   9.747277
    48  O    8.661375   8.782142   8.526653   9.583578   9.422994
    49  O    7.130641   7.306859   6.976397   8.181115   8.213563
    50  N    7.910645   8.141130   7.519602   8.661049   8.557833
                   21         22         23         24         25
    21  H    0.000000
    22  H    1.780191   0.000000
    23  C   11.033696  11.013952   0.000000
    24  H   10.017455   9.991026   1.087042   0.000000
    25  C   11.468426  11.351447   1.345390   2.094248   0.000000
    26  H   12.508130  12.397060   2.136564   3.081059   1.084975
    27  C   10.758725  10.508407   2.458345   2.664805   1.453935
    28  O   11.459321  11.118845   3.560736   3.884794   2.335942
    29  C   11.935581  12.025980   1.456223   2.149339   2.507140
    30  C   11.570600  11.756991   2.455063   2.589862   3.730242
    31  C   13.292191  13.388618   2.515379   3.442065   3.032778
    32  C   12.590706  12.861213   3.740961   3.976658   4.924490
    33  H   10.571000  10.762035   2.650886   2.317088   3.995941
    34  C   14.191348  14.369590   3.774835   4.574692   4.409845
    35  H   13.746587  13.781480   2.783612   3.845201   2.785911
    36  C   13.868547  14.128823   4.261630   4.793283   5.206008
    37  H   12.480812  12.820479   4.606763   4.648468   5.862046
    38  O   14.937189  15.259608   5.610187   6.127748   6.523301
    39  H   14.728608  15.100817   6.035831   6.405734   7.071579
    40  O   15.489315  15.667623   4.891117   5.791545   5.272304
    41  C   16.406846  16.490808   5.730526   6.602757   6.092979
    42  H   16.200988  16.169445   5.402694   6.282993   5.660472
    43  H   17.380837  17.478592   6.615410   7.540779   6.846036
    44  H   16.478594  16.593980   6.146209   6.901917   6.700457
    45  C    9.327756   9.030272   2.978704   2.589057   2.574952
    46  H    9.226950   8.726447   3.767651   3.319458   3.357642
    47  H   10.850261  10.365400   4.988618   5.035657   3.916774
    48  O   10.449309   9.887398   5.802675   5.723166   4.815026
    49  O    8.973619   8.496011   6.828570   6.514979   6.077463
    50  N    9.456405   9.051730   5.771934   5.560600   4.944994
                   26         27         28         29         30
    26  H    0.000000
    27  C    2.143882   0.000000
    28  O    2.533368   1.231033   0.000000
    29  C    2.818164   3.839329   4.838466   0.000000
    30  C    4.190719   4.904925   6.011636   1.398252   0.000000
    31  C    2.806941   4.485084   5.242054   1.405553   2.407603
    32  C    5.193360   6.196961   7.248490   2.425661   1.387959
    33  H    4.681967   4.925421   6.115425   2.150395   1.084763
    34  C    4.144894   5.861086   6.613222   2.425472   2.782972
    35  H    2.190736   4.187601   4.719585   2.179322   3.405561
    36  C    5.183818   6.607781   7.515273   2.806179   2.407520
    37  H    6.216881   7.056636   8.159803   3.409745   2.152278
    38  O    6.423701   7.939194   8.814552   4.154252   3.663341
    39  H    7.091897   8.443655   9.394888   4.605842   3.833950
    40  O    4.757303   6.710840   7.286935   3.668347   4.146355
    41  C    5.556160   7.493655   8.013507   4.529259   4.916559
    42  H    5.110912   6.989831   7.447419   4.362940   4.898720
    43  H    6.188711   8.223786   8.634867   5.468971   5.930696
    44  H    6.299672   8.112490   8.739313   4.833977   4.916049
    45  C    3.508743   1.488259   2.324201   4.428492   5.162095
    46  H    4.225115   2.184024   2.682003   5.187794   5.867419
    47  H    4.242803   2.534662   1.719884   6.370566   7.422724
    48  O    5.206659   3.389636   2.698199   7.219015   8.198684
    49  O    6.638354   4.694273   4.363398   8.256983   9.042200
    50  N    5.470507   3.565827   3.210860   7.193812   8.058514
                   31         32         33         34         35
    31  C    0.000000
    32  C    2.781894   0.000000
    33  H    3.393293   2.141200   0.000000
    34  C    1.379298   2.420469   3.867728   0.000000
    35  H    1.084353   3.865616   4.311416   2.108930   0.000000
    36  C    2.412353   1.391104   3.387076   1.409214   3.379007
    37  H    3.867852   1.085985   2.471616   3.403984   4.951453
    38  O    3.617835   2.412319   4.547459   2.353048   4.461046
    39  H    4.318142   2.457479   4.548545   3.172486   5.248553
    40  O    2.375976   3.666293   5.231050   1.363683   2.567593
    41  C    3.311284   4.324336   5.972401   2.337557   3.447664
    42  H    3.213462   4.540188   5.905529   2.627228   3.211603
    43  H    4.164152   5.324764   7.000251   3.236585   4.111656
    44  H    3.813443   4.077037   5.921291   2.646247   4.200696
    45  C    5.399548   6.540771   4.860773   6.723464   5.338198
    46  H    6.156691   7.241000   5.505384   7.471462   6.079701
    47  H    6.909935   8.729364   7.350098   8.287581   6.431102
    48  O    7.833752   9.534395   8.034923   9.212877   7.391900
    49  O    9.050502  10.404440   8.698065  10.403569   8.749028
    50  N    7.927710   9.408406   7.800012   9.287954   7.592587
                   36         37         38         39         40
    36  C    0.000000
    37  H    2.145430   0.000000
    38  O    1.349498   2.673771   0.000000
    39  H    1.909583   2.299306   0.966190   0.000000
    40  O    2.403354   4.544544   2.708150   3.668096   0.000000
    41  C    3.056877   5.088438   3.035361   3.935917   1.427775
    42  H    3.476359   5.368353   3.740256   4.584671   2.078489
    43  H    4.000561   6.067195   3.796476   4.693197   2.026082
    44  H    2.831181   4.648289   2.448498   3.223241   2.087097
    45  C    7.222892   7.236912   8.572146   8.936294   7.741757
    46  H    7.953309   7.898980   9.297192   9.642488   8.485230
    47  H    9.119599   9.570197  10.439816  10.970815   8.998516
    48  O    9.996006  10.330819  11.326665  11.824300   9.957472
    49  O   11.030542  11.082876  12.366135  12.766335  11.257468
    50  N    9.967505  10.140080  11.300780  11.738771  10.112386
                   41         42         43         44         45
    41  C    0.000000
    42  H    1.093944   0.000000
    43  H    1.088480   1.782310   0.000000
    44  H    1.091559   1.788121   1.780210   0.000000
    45  C    8.534184   8.052871   9.354542   9.026265   0.000000
    46  H    9.156145   8.577734   9.990607   9.628431   1.083073
    47  H    9.727846   9.139914  10.349927  10.438776   2.716607
    48  O   10.698351  10.109235  11.332066  11.392055   3.224953
    49  O   12.145188  11.666089  12.822877  12.777525   4.030050
    50  N   10.991242  10.512214  11.656986  11.642799   3.088424
                   46         47         48         49         50
    46  H    0.000000
    47  H    2.634110   0.000000
    48  O    2.959840   0.987570   0.000000
    49  O    3.867912   2.889653   2.100580   0.000000
    50  N    3.076073   1.866426   1.358138   1.174265   0.000000
 Stoichiometry    C21H20NO8(2)
 Framework group  C1[X(C21H20NO8)]
 Deg. of freedom   144
 Full point group                 C1      NOp   1
 Largest Abelian subgroup         C1      NOp   1
 Largest concise Abelian subgroup C1      NOp   1
                         Standard orientation:                         
 ---------------------------------------------------------------------
 Center     Atomic      Atomic             Coordinates (Angstroms)
 Number     Number       Type             X           Y           Z
 ---------------------------------------------------------------------
      1          6           0        2.694394    0.351131    0.300052
      2          1           0        2.449758    1.168149    0.974142
      3          6           0        1.748416   -0.139429   -0.514174
      4          1           0        1.970786   -0.925593   -1.229254
      5          6           0        0.367286    0.369755   -0.628557
      6          8           0       -0.341365    0.013663   -1.564234
      7          6           0        4.090140   -0.078229    0.372310
      8          6           0        4.967477    0.629169    1.197310
      9          6           0        4.595427   -1.165990   -0.357938
     10          6           0        6.308472    0.277868    1.286205
     11          1           0        4.599818    1.474431    1.769446
     12          6           0        5.926399   -1.524099   -0.278876
     13          1           0        3.960639   -1.751681   -1.013804
     14          6           0        6.799941   -0.793893    0.549935
     15          1           0        6.982991    0.843024    1.922341
     16          8           0        8.095330   -1.179784    0.575076
     17          1           0        8.598310   -0.603227    1.164689
     18          8           0        6.398534   -2.559404   -1.031706
     19          6           0        6.700356   -3.730889   -0.274411
     20          1           0        5.801981   -4.100662    0.228707
     21          1           0        7.050846   -4.476750   -0.985651
     22          1           0        7.481851   -3.534275    0.461779
     23          6           0       -2.887170    0.169572    0.193326
     24          1           0       -2.026106   -0.466184    0.383184
     25          6           0       -2.687724    1.491776    0.044758
     26          1           0       -3.498081    2.190373   -0.135397
     27          6           0       -1.377477    2.109598    0.169146
     28          8           0       -1.256138    3.334516    0.151973
     29          6           0       -4.159692   -0.535854    0.132950
     30          6           0       -4.163252   -1.925777    0.285300
     31          6           0       -5.388535    0.116644   -0.066480
     32          6           0       -5.346794   -2.648853    0.232210
     33          1           0       -3.225206   -2.448052    0.440248
     34          6           0       -6.570958   -0.591250   -0.123264
     35          1           0       -5.447304    1.192068   -0.192299
     36          6           0       -6.555830   -1.992463    0.025920
     37          1           0       -5.336589   -3.729202    0.342244
     38          8           0       -7.742346   -2.630731   -0.051136
     39          1           0       -7.613486   -3.582071    0.057815
     40          8           0       -7.745879    0.059975   -0.357996
     41          6           0       -8.586350    0.160418    0.791814
     42          1           0       -8.078620    0.715228    1.586238
     43          1           0       -9.474656    0.705746    0.478256
     44          1           0       -8.875047   -0.827025    1.156661
     45          6           0       -0.140113    1.307538    0.370505
     46          1           0        0.449062    1.573141    1.239628
     47          1           0        0.340899    3.972819    0.158710
     48          8           0        1.306070    4.180036    0.130444
     49          8           0        2.952620    3.506381   -0.986472
     50          7           0        1.792440    3.381725   -0.854790
 ---------------------------------------------------------------------
 Rotational constants (GHZ):           0.2719468           0.0466598           0.0409611
 Standard basis: 6-311G(d) (5D, 7F)
 There are   630 symmetry adapted cartesian basis functions of A   symmetry.
 There are   600 symmetry adapted basis functions of A   symmetry.
   600 basis functions,  1060 primitive gaussians,   630 cartesian basis functions
   109 alpha electrons      108 beta electrons
       nuclear repulsion energy      2612.0576280239 Hartrees.
 NAtoms=   50 NActive=   50 NUniq=   50 SFac= 1.00D+00 NAtFMM=   60 NAOKFM=F Big=F
 Integral buffers will be    131072 words long.
 Raffenetti 2 integral format.
 Two-electron integral symmetry is turned on.
 Using the following non-standard input for PCM:
 Eps=7
 EpsInf=1.85341
 HbondAcidity=0
 HbondBasicity=0.48
 SurfaceTensionAtInterface=60.62
 CarbonAromaticity=0
 ElectronegativeHalogenicity=0
 --- end of non-standard input.
 ------------------------------------------------------------------------------
 Polarizable Continuum Model (PCM)
 =================================
 Model                : PCM.
 Atomic radii         : SMD-Coulomb.
 Polarization charges : Total charges.
 Charge compensation  : None.
 Solution method      : On-the-fly selection.
 Cavity type          : VdW (van der Waals Surface) (Alpha=1.000).
 Cavity algorithm     : GePol (No added spheres)
                        Default sphere list used, NSphG=   50.
                        Lebedev-Laikov grids with approx.  5.0 points / Ang**2.
                        Smoothing algorithm: York/Karplus (Gamma=1.0000).
                        Polarization charges: spherical gaussians, with
                                              point-specific exponents (IZeta= 3).
                        Self-potential: point-specific (ISelfS= 7).
                        Self-field    : sphere-specific E.n sum rule (ISelfD= 2).
 Solvent              : Generic,
                        Eps                           =   7.000000
                        Eps(infinity)                 =   1.853410
                        RSolv                         =   0.000000 Ang.
                        Molar volume                  =   0.000000 cm**3/mol
                        Thermal expansion coefficient =   0.000000 K**-1
                        Absolute temperature          = 298.150000 K
                        Numeral density               =   0.000000 Ang**-3
                        Hydrogen bond acidity         =   0.000000
                        Hydrogen bond basicity        =   0.480000
                        Surface tension at interface  =  60.620000 (cal/mol)*Ang**-2
                        Carbon aromaticity            =   0.000000
                        Electronegative halogenicity  =   0.000000
 ------------------------------------------------------------------------------
 ------------------------------------------------------------------------------
 Atomic radii for non-electrostatic terms: SMD-CDS.
 ------------------------------------------------------------------------------
 Nuclear repulsion after PCM non-electrostatic terms =     2612.0546038784 Hartrees.
 One-electron integrals computed using PRISM.
 NBasis=   600 RedAO= T EigKep=  1.71D-04  NBF=   600
 NBsUse=   600 1.00D-06 EigRej= -1.00D+00 NBFU=   600
 Initial guess from the checkpoint file:  "CURCUMIN-Prod-2-M062X-6-311G-D-298-NBO.chk"
 B after Tr=     0.000000    0.000000   -0.000000
         Rot=    1.000000    0.000000   -0.000000   -0.000000 Ang=   0.00 deg.
 Initial guess <Sx>= 0.0000 <Sy>= 0.0000 <Sz>= 0.5000 <S**2>= 0.7647 S= 0.5073
 Requested convergence on RMS density matrix=1.00D-08 within 128 cycles.
 Requested convergence on MAX density matrix=1.00D-06.
 Requested convergence on             energy=1.00D-06.
 No special actions if energy rises.
 Inv3:  Mode=1 IEnd=    54085548.
 Iteration    1 A*A^-1 deviation from unit magnitude is 3.77D-15 for   4080.
 Iteration    1 A*A^-1 deviation from orthogonality  is 3.77D-15 for   2093    560.
 Iteration    1 A^-1*A deviation from unit magnitude is 3.77D-15 for   3622.
 Iteration    1 A^-1*A deviation from orthogonality  is 2.04D-15 for   1915    764.
 Error on total polarization charges =  0.03379
 SCF Done:  E(UM062X) =  -1468.40408602     A.U. after    1 cycles
            NFock=  1  Conv=0.64D-08     -V/T= 2.0031
 <Sx>= 0.0000 <Sy>= 0.0000 <Sz>= 0.5000 <S**2>= 0.7647 S= 0.5073
 <L.S>=  0.00000000000    
 SMD-CDS (non-electrostatic) energy       (kcal/mol) =      -1.90
 (included in total energy above)
 Annihilation of the first spin contaminant:
 S**2 before annihilation     0.7647,   after     0.7501

 **********************************************************************

            Population analysis using the SCF density.

 **********************************************************************

 Orbital symmetries:
 Alpha Orbitals:
       Occupied  (A) (A) (A) (A) (A) (A) (A) (A) (A) (A) (A) (A)
                 (A) (A) (A) (A) (A) (A) (A) (A) (A) (A) (A) (A)
                 (A) (A) (A) (A) (A) (A) (A) (A) (A) (A) (A) (A)
                 (A) (A) (A) (A) (A) (A) (A) (A) (A) (A) (A) (A)
                 (A) (A) (A) (A) (A) (A) (A) (A) (A) (A) (A) (A)
                 (A) (A) (A) (A) (A) (A) (A) (A) (A) (A) (A) (A)
                 (A) (A) (A) (A) (A) (A) (A) (A) (A) (A) (A) (A)
                 (A) (A) (A) (A) (A) (A) (A) (A) (A) (A) (A) (A)
                 (A) (A) (A) (A) (A) (A) (A) (A) (A) (A) (A) (A)
                 (A)
       Virtual   (A) (A) (A) (A) (A) (A) (A) (A) (A) (A) (A) (A)
                 (A) (A) (A) (A) (A) (A) (A) (A) (A) (A) (A) (A)
                 (A) (A) (A) (A) (A) (A) (A) (A) (A) (A) (A) (A)
                 (A) (A) (A) (A) (A) (A) (A) (A) (A) (A) (A) (A)
                 (A) (A) (A) (A) (A) (A) (A) (A) (A) (A) (A) (A)
                 (A) (A) (A) (A) (A) (A) (A) (A) (A) (A) (A) (A)
                 (A) (A) (A) (A) (A) (A) (A) (A) (A) (A) (A) (A)
                 (A) (A) (A) (A) (A) (A) (A) (A) (A) (A) (A) (A)
                 (A) (A) (A) (A) (A) (A) (A) (A) (A) (A) (A) (A)
                 (A) (A) (A) (A) (A) (A) (A) (A) (A) (A) (A) (A)
                 (A) (A) (A) (A) (A) (A) (A) (A) (A) (A) (A) (A)
                 (A) (A) (A) (A) (A) (A) (A) (A) (A) (A) (A) (A)
                 (A) (A) (A) (A) (A) (A) (A) (A) (A) (A) (A) (A)
                 (A) (A) (A) (A) (A) (A) (A) (A) (A) (A) (A) (A)
                 (A) (A) (A) (A) (A) (A) (A) (A) (A) (A) (A) (A)
                 (A) (A) (A) (A) (A) (A) (A) (A) (A) (A) (A) (A)
                 (A) (A) (A) (A) (A) (A) (A) (A) (A) (A) (A) (A)
                 (A) (A) (A) (A) (A) (A) (A) (A) (A) (A) (A) (A)
                 (A) (A) (A) (A) (A) (A) (A) (A) (A) (A) (A) (A)
                 (A) (A) (A) (A) (A) (A) (A) (A) (A) (A) (A) (A)
                 (A) (A) (A) (A) (A) (A) (A) (A) (A) (A) (A) (A)
                 (A) (A) (A) (A) (A) (A) (A) (A) (A) (A) (A) (A)
                 (A) (A) (A) (A) (A) (A) (A) (A) (A) (A) (A) (A)
                 (A) (A) (A) (A) (A) (A) (A) (A) (A) (A) (A) (A)
                 (A) (A) (A) (A) (A) (A) (A) (A) (A) (A) (A) (A)
                 (A) (A) (A) (A) (A) (A) (A) (A) (A) (A) (A) (A)
                 (A) (A) (A) (A) (A) (A) (A) (A) (A) (A) (A) (A)
                 (A) (A) (A) (A) (A) (A) (A) (A) (A) (A) (A) (A)
                 (A) (A) (A) (A) (A) (A) (A) (A) (A) (A) (A) (A)
                 (A) (A) (A) (A) (A) (A) (A) (A) (A) (A) (A) (A)
                 (A) (A) (A) (A) (A) (A) (A) (A) (A) (A) (A) (A)
                 (A) (A) (A) (A) (A) (A) (A) (A) (A) (A) (A) (A)
                 (A) (A) (A) (A) (A) (A) (A) (A) (A) (A) (A) (A)
                 (A) (A) (A) (A) (A) (A) (A) (A) (A) (A) (A) (A)
                 (A) (A) (A) (A) (A) (A) (A) (A) (A) (A) (A) (A)
                 (A) (A) (A) (A) (A) (A) (A) (A) (A) (A) (A) (A)
                 (A) (A) (A) (A) (A) (A) (A) (A) (A) (A) (A) (A)
                 (A) (A) (A) (A) (A) (A) (A) (A) (A) (A) (A) (A)
                 (A) (A) (A) (A) (A) (A) (A) (A) (A) (A) (A) (A)
                 (A) (A) (A) (A) (A) (A) (A) (A) (A) (A) (A) (A)
                 (A) (A) (A) (A) (A) (A) (A) (A) (A) (A) (A)
 Beta  Orbitals:
       Occupied  (A) (A) (A) (A) (A) (A) (A) (A) (A) (A) (A) (A)
                 (A) (A) (A) (A) (A) (A) (A) (A) (A) (A) (A) (A)
                 (A) (A) (A) (A) (A) (A) (A) (A) (A) (A) (A) (A)
                 (A) (A) (A) (A) (A) (A) (A) (A) (A) (A) (A) (A)
                 (A) (A) (A) (A) (A) (A) (A) (A) (A) (A) (A) (A)
                 (A) (A) (A) (A) (A) (A) (A) (A) (A) (A) (A) (A)
                 (A) (A) (A) (A) (A) (A) (A) (A) (A) (A) (A) (A)
                 (A) (A) (A) (A) (A) (A) (A) (A) (A) (A) (A) (A)
                 (A) (A) (A) (A) (A) (A) (A) (A) (A) (A) (A) (A)
       Virtual   (A) (A) (A) (A) (A) (A) (A) (A) (A) (A) (A) (A)
                 (A) (A) (A) (A) (A) (A) (A) (A) (A) (A) (A) (A)
                 (A) (A) (A) (A) (A) (A) (A) (A) (A) (A) (A) (A)
                 (A) (A) (A) (A) (A) (A) (A) (A) (A) (A) (A) (A)
                 (A) (A) (A) (A) (A) (A) (A) (A) (A) (A) (A) (A)
                 (A) (A) (A) (A) (A) (A) (A) (A) (A) (A) (A) (A)
                 (A) (A) (A) (A) (A) (A) (A) (A) (A) (A) (A) (A)
                 (A) (A) (A) (A) (A) (A) (A) (A) (A) (A) (A) (A)
                 (A) (A) (A) (A) (A) (A) (A) (A) (A) (A) (A) (A)
                 (A) (A) (A) (A) (A) (A) (A) (A) (A) (A) (A) (A)
                 (A) (A) (A) (A) (A) (A) (A) (A) (A) (A) (A) (A)
                 (A) (A) (A) (A) (A) (A) (A) (A) (A) (A) (A) (A)
                 (A) (A) (A) (A) (A) (A) (A) (A) (A) (A) (A) (A)
                 (A) (A) (A) (A) (A) (A) (A) (A) (A) (A) (A) (A)
                 (A) (A) (A) (A) (A) (A) (A) (A) (A) (A) (A) (A)
                 (A) (A) (A) (A) (A) (A) (A) (A) (A) (A) (A) (A)
                 (A) (A) (A) (A) (A) (A) (A) (A) (A) (A) (A) (A)
                 (A) (A) (A) (A) (A) (A) (A) (A) (A) (A) (A) (A)
                 (A) (A) (A) (A) (A) (A) (A) (A) (A) (A) (A) (A)
                 (A) (A) (A) (A) (A) (A) (A) (A) (A) (A) (A) (A)
                 (A) (A) (A) (A) (A) (A) (A) (A) (A) (A) (A) (A)
                 (A) (A) (A) (A) (A) (A) (A) (A) (A) (A) (A) (A)
                 (A) (A) (A) (A) (A) (A) (A) (A) (A) (A) (A) (A)
                 (A) (A) (A) (A) (A) (A) (A) (A) (A) (A) (A) (A)
                 (A) (A) (A) (A) (A) (A) (A) (A) (A) (A) (A) (A)
                 (A) (A) (A) (A) (A) (A) (A) (A) (A) (A) (A) (A)
                 (A) (A) (A) (A) (A) (A) (A) (A) (A) (A) (A) (A)
                 (A) (A) (A) (A) (A) (A) (A) (A) (A) (A) (A) (A)
                 (A) (A) (A) (A) (A) (A) (A) (A) (A) (A) (A) (A)
                 (A) (A) (A) (A) (A) (A) (A) (A) (A) (A) (A) (A)
                 (A) (A) (A) (A) (A) (A) (A) (A) (A) (A) (A) (A)
                 (A) (A) (A) (A) (A) (A) (A) (A) (A) (A) (A) (A)
                 (A) (A) (A) (A) (A) (A) (A) (A) (A) (A) (A) (A)
                 (A) (A) (A) (A) (A) (A) (A) (A) (A) (A) (A) (A)
                 (A) (A) (A) (A) (A) (A) (A) (A) (A) (A) (A) (A)
                 (A) (A) (A) (A) (A) (A) (A) (A) (A) (A) (A) (A)
                 (A) (A) (A) (A) (A) (A) (A) (A) (A) (A) (A) (A)
                 (A) (A) (A) (A) (A) (A) (A) (A) (A) (A) (A) (A)
                 (A) (A) (A) (A) (A) (A) (A) (A) (A) (A) (A) (A)
                 (A) (A) (A) (A) (A) (A) (A) (A) (A) (A) (A) (A)
                 (A) (A) (A) (A) (A) (A) (A) (A) (A) (A) (A) (A)
 The electronic state is 2-A.
 Alpha  occ. eigenvalues --  -19.68080 -19.67165 -19.66269 -19.65910 -19.63670
 Alpha  occ. eigenvalues --  -19.63508 -19.63425 -19.61278 -14.92500 -10.65286
 Alpha  occ. eigenvalues --  -10.63585 -10.62060 -10.61606 -10.60325 -10.60072
 Alpha  occ. eigenvalues --  -10.58859 -10.57509 -10.57434 -10.57329 -10.56677
 Alpha  occ. eigenvalues --  -10.55982 -10.55695 -10.55604 -10.55304 -10.55189
 Alpha  occ. eigenvalues --  -10.55137 -10.54928 -10.54911 -10.54852 -10.54669
 Alpha  occ. eigenvalues --   -1.35385  -1.20888  -1.20514  -1.19236  -1.17657
 Alpha  occ. eigenvalues --   -1.17442  -1.17436  -1.17083  -0.97789  -0.97431
 Alpha  occ. eigenvalues --   -0.92344  -0.91284  -0.87705  -0.86114  -0.85811
 Alpha  occ. eigenvalues --   -0.84668  -0.82588  -0.78149  -0.77973  -0.77520
 Alpha  occ. eigenvalues --   -0.75879  -0.74826  -0.71923  -0.70760  -0.67484
 Alpha  occ. eigenvalues --   -0.67070  -0.65768  -0.65232  -0.63725  -0.63293
 Alpha  occ. eigenvalues --   -0.61227  -0.59772  -0.59199  -0.58967  -0.58911
 Alpha  occ. eigenvalues --   -0.58177  -0.57942  -0.56144  -0.55397  -0.55002
 Alpha  occ. eigenvalues --   -0.54306  -0.54148  -0.54092  -0.52905  -0.51809
 Alpha  occ. eigenvalues --   -0.51234  -0.50902  -0.50451  -0.50037  -0.49964
 Alpha  occ. eigenvalues --   -0.49675  -0.49080  -0.48905  -0.48427  -0.47435
 Alpha  occ. eigenvalues --   -0.47278  -0.45114  -0.44723  -0.44408  -0.44097
 Alpha  occ. eigenvalues --   -0.43906  -0.43824  -0.43191  -0.42900  -0.41144
 Alpha  occ. eigenvalues --   -0.40759  -0.40495  -0.36832  -0.36012  -0.35706
 Alpha  occ. eigenvalues --   -0.35293  -0.35140  -0.34131  -0.33704  -0.31557
 Alpha  occ. eigenvalues --   -0.31059  -0.30732  -0.27300  -0.26758
 Alpha virt. eigenvalues --   -0.05414  -0.03162  -0.00952   0.01929   0.02247
 Alpha virt. eigenvalues --    0.04244   0.06056   0.07248   0.07396   0.08758
 Alpha virt. eigenvalues --    0.09584   0.10031   0.10356   0.10593   0.11455
 Alpha virt. eigenvalues --    0.11605   0.12261   0.13526   0.13838   0.15198
 Alpha virt. eigenvalues --    0.15959   0.15987   0.16018   0.16140   0.16991
 Alpha virt. eigenvalues --    0.17900   0.18354   0.19064   0.19920   0.20084
 Alpha virt. eigenvalues --    0.20589   0.21495   0.21949   0.22892   0.24225
 Alpha virt. eigenvalues --    0.25807   0.26104   0.26790   0.27928   0.28466
 Alpha virt. eigenvalues --    0.29606   0.30470   0.30773   0.31105   0.31918
 Alpha virt. eigenvalues --    0.32553   0.33315   0.33933   0.34259   0.34728
 Alpha virt. eigenvalues --    0.35058   0.36222   0.36419   0.36665   0.38217
 Alpha virt. eigenvalues --    0.38733   0.39480   0.40014   0.40208   0.40452
 Alpha virt. eigenvalues --    0.40725   0.41247   0.41598   0.41910   0.42061
 Alpha virt. eigenvalues --    0.42236   0.43230   0.43383   0.43638   0.44265
 Alpha virt. eigenvalues --    0.44925   0.45360   0.45531   0.46175   0.46853
 Alpha virt. eigenvalues --    0.47018   0.47307   0.48312   0.48765   0.49217
 Alpha virt. eigenvalues --    0.49348   0.49676   0.49968   0.50341   0.51207
 Alpha virt. eigenvalues --    0.51483   0.52102   0.52724   0.52936   0.53571
 Alpha virt. eigenvalues --    0.54147   0.54494   0.55273   0.56102   0.56583
 Alpha virt. eigenvalues --    0.57323   0.57448   0.58347   0.58818   0.59390
 Alpha virt. eigenvalues --    0.59754   0.60331   0.61510   0.61654   0.62264
 Alpha virt. eigenvalues --    0.62493   0.62919   0.63160   0.63788   0.64003
 Alpha virt. eigenvalues --    0.64479   0.64751   0.65530   0.65599   0.66279
 Alpha virt. eigenvalues --    0.66639   0.67004   0.67230   0.67651   0.68080
 Alpha virt. eigenvalues --    0.68339   0.68699   0.69197   0.69723   0.70534
 Alpha virt. eigenvalues --    0.71118   0.71454   0.72129   0.72575   0.73955
 Alpha virt. eigenvalues --    0.74389   0.76684   0.76898   0.77304   0.78731
 Alpha virt. eigenvalues --    0.79591   0.79755   0.79973   0.80888   0.82706
 Alpha virt. eigenvalues --    0.82766   0.83354   0.83785   0.83925   0.84542
 Alpha virt. eigenvalues --    0.85043   0.85073   0.85323   0.85625   0.86441
 Alpha virt. eigenvalues --    0.86865   0.88121   0.89031   0.89133   0.89716
 Alpha virt. eigenvalues --    0.90377   0.91125   0.91865   0.93005   0.93610
 Alpha virt. eigenvalues --    0.94346   0.94717   0.95194   0.95425   0.96086
 Alpha virt. eigenvalues --    0.96651   0.97687   0.98425   0.99039   0.99933
 Alpha virt. eigenvalues --    1.00713   1.01512   1.02373   1.02528   1.03514
 Alpha virt. eigenvalues --    1.03722   1.04130   1.05305   1.05827   1.07360
 Alpha virt. eigenvalues --    1.07532   1.09192   1.10085   1.10573   1.11202
 Alpha virt. eigenvalues --    1.11828   1.13948   1.15495   1.16083   1.17285
 Alpha virt. eigenvalues --    1.18993   1.19496   1.20140   1.20260   1.20570
 Alpha virt. eigenvalues --    1.21726   1.23413   1.23936   1.25409   1.25651
 Alpha virt. eigenvalues --    1.26978   1.27885   1.28075   1.28137   1.28545
 Alpha virt. eigenvalues --    1.30591   1.31404   1.32431   1.33278   1.33989
 Alpha virt. eigenvalues --    1.36376   1.38723   1.40224   1.41131   1.41510
 Alpha virt. eigenvalues --    1.43683   1.45830   1.48130   1.48689   1.49966
 Alpha virt. eigenvalues --    1.50055   1.50697   1.50909   1.52319   1.53658
 Alpha virt. eigenvalues --    1.54756   1.54955   1.55519   1.56179   1.56485
 Alpha virt. eigenvalues --    1.57347   1.57882   1.58793   1.58862   1.60224
 Alpha virt. eigenvalues --    1.60426   1.60922   1.61637   1.62529   1.63566
 Alpha virt. eigenvalues --    1.65111   1.66940   1.67460   1.68385   1.70204
 Alpha virt. eigenvalues --    1.71723   1.73001   1.73473   1.73740   1.74763
 Alpha virt. eigenvalues --    1.75177   1.75551   1.75864   1.76789   1.79204
 Alpha virt. eigenvalues --    1.79625   1.80218   1.80949   1.81277   1.82738
 Alpha virt. eigenvalues --    1.83766   1.84013   1.84880   1.85830   1.86693
 Alpha virt. eigenvalues --    1.87897   1.88491   1.88567   1.89289   1.90313
 Alpha virt. eigenvalues --    1.90434   1.92035   1.93538   1.94484   1.94808
 Alpha virt. eigenvalues --    1.97110   1.99127   1.99645   2.00836   2.01203
 Alpha virt. eigenvalues --    2.04963   2.06678   2.07388   2.07596   2.10921
 Alpha virt. eigenvalues --    2.11708   2.13766   2.14915   2.16547   2.17972
 Alpha virt. eigenvalues --    2.18565   2.19539   2.20808   2.22126   2.23379
 Alpha virt. eigenvalues --    2.27232   2.27871   2.29690   2.30125   2.32308
 Alpha virt. eigenvalues --    2.32341   2.33702   2.34712   2.34766   2.35230
 Alpha virt. eigenvalues --    2.36411   2.37203   2.37456   2.38904   2.39772
 Alpha virt. eigenvalues --    2.41586   2.44881   2.45017   2.45533   2.46103
 Alpha virt. eigenvalues --    2.47998   2.49200   2.51584   2.53030   2.57112
 Alpha virt. eigenvalues --    2.57552   2.58453   2.58773   2.63996   2.65380
 Alpha virt. eigenvalues --    2.67347   2.67636   2.69009   2.71748   2.72396
 Alpha virt. eigenvalues --    2.72618   2.73646   2.75144   2.76433   2.79110
 Alpha virt. eigenvalues --    2.81714   2.82823   2.83225   2.83976   2.84732
 Alpha virt. eigenvalues --    2.85466   2.88179   2.89401   2.89704   2.90202
 Alpha virt. eigenvalues --    2.91495   2.92477   2.94226   2.94525   2.97052
 Alpha virt. eigenvalues --    2.97166   2.99178   2.99686   3.00713   3.01134
 Alpha virt. eigenvalues --    3.02877   3.03298   3.03807   3.04460   3.05413
 Alpha virt. eigenvalues --    3.06109   3.07327   3.08369   3.09765   3.10125
 Alpha virt. eigenvalues --    3.10704   3.12049   3.14755   3.16277   3.16438
 Alpha virt. eigenvalues --    3.18626   3.20385   3.21156   3.21893   3.22071
 Alpha virt. eigenvalues --    3.22375   3.22677   3.22796   3.23930   3.24992
 Alpha virt. eigenvalues --    3.25245   3.25706   3.26300   3.27893   3.29307
 Alpha virt. eigenvalues --    3.32532   3.32849   3.33852   3.35482   3.35985
 Alpha virt. eigenvalues --    3.36208   3.36318   3.36720   3.38163   3.38954
 Alpha virt. eigenvalues --    3.39464   3.39836   3.40037   3.41533   3.42125
 Alpha virt. eigenvalues --    3.46060   3.46725   3.49962   3.51680   3.52844
 Alpha virt. eigenvalues --    3.54245   3.54721   3.55113   3.57333   3.58285
 Alpha virt. eigenvalues --    3.60039   3.61225   3.64672   3.67601   3.69066
 Alpha virt. eigenvalues --    3.69793   3.76819   3.77205   3.83688   3.89502
 Alpha virt. eigenvalues --    3.93652   3.93763   3.94868   3.95014   3.99434
 Alpha virt. eigenvalues --    3.99990   4.05881   4.09972   4.10568   4.13081
 Alpha virt. eigenvalues --    4.13288   4.21732   4.39734   4.47539   4.57621
 Alpha virt. eigenvalues --    4.81639   4.82096   4.90893   4.94129   4.94455
 Alpha virt. eigenvalues --    4.95972   4.98095   5.00453   5.02355   5.04425
 Alpha virt. eigenvalues --    5.09129   5.09400   5.18652   5.24194   5.24304
 Alpha virt. eigenvalues --    5.25323   5.29462   5.29583   5.48532   5.60488
 Alpha virt. eigenvalues --    5.60702   5.69516   5.73729   5.77824   5.78001
 Alpha virt. eigenvalues --    5.95653  23.32018  23.34582  23.52325  23.52451
 Alpha virt. eigenvalues --   23.61721  23.65411  23.79013  23.87730  23.88387
 Alpha virt. eigenvalues --   23.91009  23.94140  23.94508  23.95544  24.07842
 Alpha virt. eigenvalues --   24.08446  24.13927  24.14058  24.20354  24.20734
 Alpha virt. eigenvalues --   24.23221  24.25210  35.37055  49.87714  49.96598
 Alpha virt. eigenvalues --   49.98325  49.98623  50.04645  50.04829  50.06179
 Alpha virt. eigenvalues --   50.10236
  Beta  occ. eigenvalues --  -19.68077 -19.67152 -19.66269 -19.65910 -19.63670
  Beta  occ. eigenvalues --  -19.63508 -19.63288 -19.60907 -14.92471 -10.65347
  Beta  occ. eigenvalues --  -10.63682 -10.62060 -10.61606 -10.60325 -10.60072
  Beta  occ. eigenvalues --  -10.58321 -10.57501 -10.57434 -10.57329 -10.56679
  Beta  occ. eigenvalues --  -10.55981 -10.55694 -10.55603 -10.55303 -10.55189
  Beta  occ. eigenvalues --  -10.55137 -10.54928 -10.54900 -10.54852 -10.54661
  Beta  occ. eigenvalues --   -1.35364  -1.20887  -1.20512  -1.18846  -1.17657
  Beta  occ. eigenvalues --   -1.17442  -1.17304  -1.16122  -0.97778  -0.97423
  Beta  occ. eigenvalues --   -0.91862  -0.91149  -0.86332  -0.86080  -0.85804
  Beta  occ. eigenvalues --   -0.84569  -0.81522  -0.78148  -0.77972  -0.77479
  Beta  occ. eigenvalues --   -0.75799  -0.74709  -0.71839  -0.70639  -0.67427
  Beta  occ. eigenvalues --   -0.67008  -0.65574  -0.65135  -0.63698  -0.63270
  Beta  occ. eigenvalues --   -0.60770  -0.59521  -0.59105  -0.58952  -0.58801
  Beta  occ. eigenvalues --   -0.58106  -0.57547  -0.55960  -0.54882  -0.54821
  Beta  occ. eigenvalues --   -0.54304  -0.54109  -0.53805  -0.52729  -0.51372
  Beta  occ. eigenvalues --   -0.51190  -0.50872  -0.50343  -0.49918  -0.49709
  Beta  occ. eigenvalues --   -0.49491  -0.48830  -0.48398  -0.47846  -0.47068
  Beta  occ. eigenvalues --   -0.46482  -0.45053  -0.44612  -0.44335  -0.44006
  Beta  occ. eigenvalues --   -0.43865  -0.43701  -0.43169  -0.42741  -0.41028
  Beta  occ. eigenvalues --   -0.40750  -0.40470  -0.36272  -0.35496  -0.35277
  Beta  occ. eigenvalues --   -0.35245  -0.34930  -0.33828  -0.33010  -0.31112
  Beta  occ. eigenvalues --   -0.30787  -0.27242  -0.26746
  Beta virt. eigenvalues --   -0.08985  -0.05057  -0.01799  -0.00846   0.01959
  Beta virt. eigenvalues --    0.02305   0.04500   0.06864   0.07252   0.07422
  Beta virt. eigenvalues --    0.08916   0.09579   0.10099   0.10383   0.10744
  Beta virt. eigenvalues --    0.11457   0.11725   0.12355   0.13777   0.14752
  Beta virt. eigenvalues --    0.15358   0.15996   0.16019   0.16061   0.16186
  Beta virt. eigenvalues --    0.17491   0.17944   0.18454   0.19202   0.19952
  Beta virt. eigenvalues --    0.20153   0.20757   0.21541   0.21990   0.23254
  Beta virt. eigenvalues --    0.24774   0.25892   0.26412   0.26906   0.27980
  Beta virt. eigenvalues --    0.28618   0.29849   0.30534   0.30799   0.31211
  Beta virt. eigenvalues --    0.32375   0.32708   0.33521   0.34172   0.34287
  Beta virt. eigenvalues --    0.34917   0.35319   0.36297   0.36510   0.36785
  Beta virt. eigenvalues --    0.38761   0.39233   0.39566   0.40077   0.40221
  Beta virt. eigenvalues --    0.40501   0.40777   0.41271   0.41744   0.42155
  Beta virt. eigenvalues --    0.42261   0.42442   0.43301   0.43630   0.43842
  Beta virt. eigenvalues --    0.44372   0.45009   0.45394   0.45605   0.46262
  Beta virt. eigenvalues --    0.46893   0.47136   0.47372   0.48366   0.48939
  Beta virt. eigenvalues --    0.49341   0.49453   0.49805   0.50045   0.50548
  Beta virt. eigenvalues --    0.51318   0.51547   0.52296   0.52879   0.53205
  Beta virt. eigenvalues --    0.53683   0.54293   0.54631   0.56161   0.56472
  Beta virt. eigenvalues --    0.56729   0.57401   0.57720   0.58457   0.59144
  Beta virt. eigenvalues --    0.59470   0.59850   0.60456   0.61655   0.62047
  Beta virt. eigenvalues --    0.62366   0.62546   0.63012   0.63399   0.63805
  Beta virt. eigenvalues --    0.64026   0.64734   0.64856   0.65567   0.65662
  Beta virt. eigenvalues --    0.66327   0.66778   0.67257   0.67444   0.67760
  Beta virt. eigenvalues --    0.68188   0.68474   0.68933   0.69354   0.69800
  Beta virt. eigenvalues --    0.70665   0.71212   0.71638   0.72264   0.73252
  Beta virt. eigenvalues --    0.74045   0.74492   0.76696   0.77005   0.77758
  Beta virt. eigenvalues --    0.78899   0.79608   0.79907   0.80114   0.81066
  Beta virt. eigenvalues --    0.82813   0.82833   0.83401   0.83806   0.83943
  Beta virt. eigenvalues --    0.84608   0.85088   0.85251   0.85373   0.85680
  Beta virt. eigenvalues --    0.86512   0.86936   0.88300   0.89158   0.89195
  Beta virt. eigenvalues --    0.89757   0.90519   0.91195   0.91977   0.93189
  Beta virt. eigenvalues --    0.93719   0.94449   0.94787   0.95229   0.95592
  Beta virt. eigenvalues --    0.96352   0.96764   0.97767   0.98502   0.99306
  Beta virt. eigenvalues --    1.00046   1.00901   1.01624   1.02492   1.02922
  Beta virt. eigenvalues --    1.03602   1.03945   1.04768   1.05528   1.06176
  Beta virt. eigenvalues --    1.07468   1.07948   1.09366   1.10390   1.10807
  Beta virt. eigenvalues --    1.11372   1.12014   1.14225   1.15568   1.16175
  Beta virt. eigenvalues --    1.17410   1.19081   1.19515   1.20160   1.20307
  Beta virt. eigenvalues --    1.20600   1.21830   1.23573   1.24030   1.25479
  Beta virt. eigenvalues --    1.25823   1.27079   1.27926   1.28147   1.28245
  Beta virt. eigenvalues --    1.28571   1.30747   1.31939   1.32653   1.33558
  Beta virt. eigenvalues --    1.34259   1.37258   1.38946   1.40820   1.41178
  Beta virt. eigenvalues --    1.41539   1.44085   1.46442   1.48240   1.49152
  Beta virt. eigenvalues --    1.50101   1.50346   1.50836   1.50989   1.52805
  Beta virt. eigenvalues --    1.53947   1.54841   1.55018   1.55718   1.56522
  Beta virt. eigenvalues --    1.56594   1.57435   1.57982   1.58885   1.59026
  Beta virt. eigenvalues --    1.60392   1.60515   1.61399   1.61768   1.62887
  Beta virt. eigenvalues --    1.64240   1.65586   1.67062   1.67494   1.69019
  Beta virt. eigenvalues --    1.70754   1.72126   1.73143   1.73828   1.73993
  Beta virt. eigenvalues --    1.75132   1.75258   1.75588   1.75986   1.77056
  Beta virt. eigenvalues --    1.79381   1.79990   1.80244   1.81075   1.81363
  Beta virt. eigenvalues --    1.82951   1.83809   1.84062   1.85125   1.86249
  Beta virt. eigenvalues --    1.86955   1.88134   1.88557   1.88635   1.89513
  Beta virt. eigenvalues --    1.90480   1.90855   1.92441   1.93724   1.94515
  Beta virt. eigenvalues --    1.94852   1.97778   1.99324   1.99752   2.01169
  Beta virt. eigenvalues --    2.01651   2.05798   2.06784   2.07500   2.08157
  Beta virt. eigenvalues --    2.11708   2.12015   2.14097   2.15161   2.16735
  Beta virt. eigenvalues --    2.18218   2.18864   2.19923   2.20916   2.23015
  Beta virt. eigenvalues --    2.23693   2.27619   2.27983   2.29827   2.30459
  Beta virt. eigenvalues --    2.32381   2.32423   2.33977   2.34754   2.34845
  Beta virt. eigenvalues --    2.35328   2.36720   2.37277   2.37538   2.39073
  Beta virt. eigenvalues --    2.40067   2.41960   2.44884   2.45017   2.45608
  Beta virt. eigenvalues --    2.46149   2.48255   2.49281   2.51783   2.53901
  Beta virt. eigenvalues --    2.57177   2.57657   2.58490   2.58784   2.64340
  Beta virt. eigenvalues --    2.65451   2.67404   2.67707   2.69365   2.71859
[...]
   377. RY*(  12) C  30                  0.00000     2.82050   
   378. RY*(  13) C  30                  0.00000    18.36473   
   379. RY*(   1) C  31                  0.00236     1.42741   
   380. RY*(   2) C  31                  0.00132     1.30164   
   381. RY*(   3) C  31                  0.00071     1.00062   
   382. RY*(   4) C  31                  0.00039     1.24706   
   383. RY*(   5) C  31                  0.00026     1.54291   
   384. RY*(   6) C  31                  0.00011     3.15173   
   385. RY*(   7) C  31                  0.00004     4.30720   
   386. RY*(   8) C  31                  0.00005     2.28718   
   387. RY*(   9) C  31                  0.00002     1.69229   
   388. RY*(  10) C  31                  0.00002     2.47941   
   389. RY*(  11) C  31                  0.00000    21.09454   
   390. RY*(  12) C  31                  0.00000     2.66928   
   391. RY*(  13) C  31                  0.00001     2.24860   
   392. RY*(   1) C  32                  0.00244     1.43275   
   393. RY*(   2) C  32                  0.00110     1.44395   
   394. RY*(   3) C  32                  0.00046     0.71718   
   395. RY*(   4) C  32                  0.00035     1.14047   
   396. RY*(   5) C  32                  0.00023     1.59755   
   397. RY*(   6) C  32                  0.00010     3.34311   
   398. RY*(   7) C  32                  0.00005     4.81343   
   399. RY*(   8) C  32                  0.00003     1.62117   
   400. RY*(   9) C  32                  0.00003     3.70044   
   401. RY*(  10) C  32                  0.00001     2.53330   
   402. RY*(  11) C  32                  0.00001     2.10252   
   403. RY*(  12) C  32                  0.00000     2.64803   
   404. RY*(  13) C  32                  0.00000    18.77467   
   405. RY*(   1) H  33                  0.00073     0.47366   
   406. RY*(   2) H  33                  0.00011     2.28879   
   407. RY*(   1) C  34                  0.00306     1.52790   
   408. RY*(   2) C  34                  0.00195     1.33818   
   409. RY*(   3) C  34                  0.00173     1.30009   
   410. RY*(   4) C  34                  0.00088     2.61754   
   411. RY*(   5) C  34                  0.00077     1.20365   
   412. RY*(   6) C  34                  0.00028     1.71133   
   413. RY*(   7) C  34                  0.00025     1.71046   
   414. RY*(   8) C  34                  0.00008     2.99055   
   415. RY*(   9) C  34                  0.00005     2.44010   
   416. RY*(  10) C  34                  0.00002     2.39718   
   417. RY*(  11) C  34                  0.00002     2.67625   
   418. RY*(  12) C  34                  0.00001     2.75482   
   419. RY*(  13) C  34                  0.00001    21.80347   
   420. RY*(   1) H  35                  0.00114     0.48989   
   421. RY*(   2) H  35                  0.00014     2.28667   
   422. RY*(   1) C  36                  0.00323     1.33919   
   423. RY*(   2) C  36                  0.00169     1.60664   
   424. RY*(   3) C  36                  0.00137     1.50854   
   425. RY*(   4) C  36                  0.00078     2.35168   
   426. RY*(   5) C  36                  0.00043     2.00621   
   427. RY*(   6) C  36                  0.00035     1.68893   
   428. RY*(   7) C  36                  0.00025     0.64215   
   429. RY*(   8) C  36                  0.00012     3.87709   
   430. RY*(   9) C  36                  0.00003     2.41614   
   431. RY*(  10) C  36                  0.00004     5.06387   
   432. RY*(  11) C  36                  0.00001    18.27694   
   433. RY*(  12) C  36                  0.00001     2.14606   
   434. RY*(  13) C  36                  0.00000     2.68709   
   435. RY*(   1) H  37                  0.00105     0.42159   
   436. RY*(   2) H  37                  0.00010     2.27254   
   437. RY*(   1) O  38                  0.00103     0.98039   
   438. RY*(   2) O  38                  0.00065     1.42281   
   439. RY*(   3) O  38                  0.00011     1.85387   
   440. RY*(   4) O  38                  0.00006     1.37369   
   441. RY*(   5) O  38                  0.00001     3.52419   
   442. RY*(   6) O  38                  0.00000     5.13911   
   443. RY*(   7) O  38                  0.00001     5.13310   
   444. RY*(   8) O  38                  0.00000     4.90468   
   445. RY*(   9) O  38                  0.00000    49.44631   
   446. RY*(  10) O  38                  0.00000     2.96125   
   447. RY*(  11) O  38                  0.00000     2.78549   
   448. RY*(  12) O  38                  0.00000     3.00532   
   449. RY*(  13) O  38                  0.00000     3.21283   
   450. RY*(   1) H  39                  0.00038     1.21247   
   451. RY*(   2) H  39                  0.00019     1.44896   
   452. RY*(   1) O  40                  0.00185     1.13712   
   453. RY*(   2) O  40                  0.00117     1.19852   
   454. RY*(   3) O  40                  0.00021     1.76751   
   455. RY*(   4) O  40                  0.00010     2.20447   
   456. RY*(   5) O  40                  0.00006     3.06020   
   457. RY*(   6) O  40                  0.00003     2.97640   
   458. RY*(   7) O  40                  0.00001     5.26130   
   459. RY*(   8) O  40                  0.00000     5.10569   
   460. RY*(   9) O  40                  0.00000    49.76736   
   461. RY*(  10) O  40                  0.00000     5.06080   
   462. RY*(  11) O  40                  0.00000     3.11431   
   463. RY*(  12) O  40                  0.00001     3.26842   
   464. RY*(  13) O  40                  0.00000     3.02293   
   465. RY*(   1) C  41                  0.00118     1.40867   
   466. RY*(   2) C  41                  0.00111     1.41268   
   467. RY*(   3) C  41                  0.00070     0.94333   
   468. RY*(   4) C  41                  0.00025     1.04459   
   469. RY*(   5) C  41                  0.00012     1.17217   
   470. RY*(   6) C  41                  0.00004     2.23380   
   471. RY*(   7) C  41                  0.00000     1.66626   
   472. RY*(   8) C  41                  0.00001     2.39888   
   473. RY*(   9) C  41                  0.00001     2.40607   
   474. RY*(  10) C  41                  0.00000     1.80175   
   475. RY*(  11) C  41                  0.00000    22.99031   
   476. RY*(  12) C  41                  0.00000     1.67412   
   477. RY*(  13) C  41                  0.00000     2.72641   
   478. RY*(   1) H  42                  0.00082     0.44290   
   479. RY*(   2) H  42                  0.00006     2.13676   
   480. RY*(   1) H  43                  0.00041     0.43311   
   481. RY*(   2) H  43                  0.00005     2.04783   
   482. RY*(   1) H  44                  0.00083     0.52381   
   483. RY*(   2) H  44                  0.00007     2.07264   
   484. RY*(   1) C  45                  0.00242     0.89871   
   485. RY*(   2) C  45                  0.00144     0.88534   
   486. RY*(   3) C  45                  0.00105     1.24681   
   487. RY*(   4) C  45                  0.00055     0.83948   
   488. RY*(   5) C  45                  0.00013     2.80010   
   489. RY*(   6) C  45                  0.00010     2.18407   
   490. RY*(   7) C  45                  0.00004     2.56288   
   491. RY*(   8) C  45                  0.00004     2.55255   
   492. RY*(   9) C  45                  0.00003     2.43972   
   493. RY*(  10) C  45                  0.00001     2.64479   
   494. RY*(  11) C  45                  0.00001     3.53654   
   495. RY*(  12) C  45                  0.00001     2.05938   
   496. RY*(  13) C  45                  0.00000    21.71216   
   497. RY*(   1) H  46                  0.00101     0.43499   
   498. RY*(   2) H  46                  0.00012     2.30839   
   540. BD*(   1) C   1 - H   2          0.00839     0.50756   
   541. BD*(   1) C   1 - C   3          0.00733     0.70998   
   542. BD*(   2) C   1 - C   3          0.05445     0.08493   
   543. BD*(   1) C   1 - C   7          0.01321     0.55284   
   544. BD*(   1) C   3 - H   4          0.00776     0.51363   
   545. BD*(   1) C   3 - C   5          0.02653     0.51061   
   546. BD*(   1) C   5 - O   6          0.00654     0.65750   
   547. BD*(   2) C   5 - O   6          0.06181     0.06741   
   548. BD*(   1) C   5 - C  45          0.02629     0.53197   
   549. BD*(   1) C   7 - C   8          0.01161     0.62987   
   550. BD*(   2) C   7 - C   8          0.19386     0.06066  555(v),558(v),542(v),181(g)
                                                    168(g),207(v),112(v),169(g)
   551. BD*(   1) C   7 - C   9          0.01319     0.62271   
   552. BD*(   1) C   8 - C  10          0.00712     0.63783   
   553. BD*(   1) C   8 - H  11          0.00676     0.52163   
   554. BD*(   1) C   9 - C  12          0.01271     0.64472   
   555. BD*(   2) C   9 - C  12          0.15900     0.06424  550(v),558(v),196(g),564(v)
                                                    547(r),224(g),225(g)
   556. BD*(   1) C   9 - H  13          0.00639     0.51709   
   557. BD*(   1) C  10 - C  14          0.01306     0.61984   
   558. BD*(   2) C  10 - C  14          0.18551     0.05218  550(v),555(v),241(g),207(g)
                                                    209(g),250(v)
   559. BD*(   1) C  10 - H  15          0.00659     0.50821   
   560. BD*(   1) C  12 - C  14          0.02293     0.58940   
   561. BD*(   1) C  12 - O  18          0.01348     0.44095   
   562. BD*(   1) C  14 - O  16          0.01050     0.42944   
   563. BD*(   1) O  16 - H  17          0.00352     0.46536   
   564. BD*(   1) O  18 - C  19          0.00442     0.36521   
   565. BD*(   1) C  19 - H  20          0.00810     0.46690   
   566. BD*(   1) C  19 - H  21          0.00441     0.48407   
   567. BD*(   1) C  19 - H  22          0.00847     0.47620   
   568. BD*(   1) C  23 - H  24          0.00773     0.50848   
   569. BD*(   1) C  23 - C  25          0.00694     0.69862   
   570. BD*(   2) C  23 - C  25          0.05950     0.07853   
   571. BD*(   1) C  23 - C  29          0.01277     0.55624   
   572. BD*(   1) C  25 - H  26          0.00806     0.50931   
   573. BD*(   1) C  25 - C  27          0.02240     0.53021   
   574. BD*(   1) C  27 - O  28          0.00897     0.61660   
   575. BD*(   2) C  27 - O  28          0.09053     0.06121   
   576. BD*(   1) C  27 - C  45          0.02297     0.49464   
   577. BD*(   1) C  29 - C  30          0.01168     0.62377   
   578. BD*(   2) C  29 - C  30          0.19605     0.05652  583(v),586(v),570(v),368(g)
                                                    355(g),394(v),299(v),356(g)
   579. BD*(   1) C  29 - C  31          0.01326     0.61699   
   580. BD*(   1) C  30 - C  32          0.00703     0.63615   
   581. BD*(   1) C  30 - H  33          0.00664     0.52010   
   582. BD*(   1) C  31 - C  34          0.01269     0.64338   
   583. BD*(   2) C  31 - C  34          0.15494     0.06248  578(v),586(v),575(r),383(g)
                                                    592(v),412(g),411(g)
   584. BD*(   1) C  31 - H  35          0.00629     0.51531   
   585. BD*(   1) C  32 - C  36          0.01310     0.61516   
   586. BD*(   2) C  32 - C  36          0.18490     0.04884  578(v),583(v),428(g),394(g)
                                                    396(g),437(v)
   587. BD*(   1) C  32 - H  37          0.00660     0.50570   
   588. BD*(   1) C  34 - C  36          0.02308     0.58496   
   589. BD*(   1) C  34 - O  40          0.01346     0.43967   
   590. BD*(   1) C  36 - O  38          0.01040     0.42920   
   591. BD*(   1) O  38 - H  39          0.00355     0.46255   
   592. BD*(   1) O  40 - C  41          0.00442     0.36330   
   593. BD*(   1) C  41 - H  42          0.00802     0.46648   
   594. BD*(   1) C  41 - H  43          0.00438     0.48364   
   595. BD*(   1) C  41 - H  44          0.00839     0.47497   
   596. BD*(   1) C  45 - H  46          0.00453     0.51929   
       -------------------------------
              Total Lewis   93.90446  ( 97.8328%)
        Valence non-Lewis    1.89942  (  1.9789%)
        Rydberg non-Lewis    0.18076  (  0.1883%)
       -------------------------------
            Total unit  1   95.98464  (100.0000%)
           Charge unit  1    0.51536
 
 Molecular unit  2  (HNO2)
    58. BD (   1) H  47 - O  48          0.99449    -0.86421  600(v),530(v),598(g),574(r)
                                                    104(r),343(r)
    59. BD (   1) O  48 - N  50          0.99685    -0.98155  514(v),484(r),123(r)
    60. BD (   1) O  49 - N  50          0.99899    -0.54096  599(g),503(v),542(r),484(r)
                                                    104(r)
    61. BD (   2) O  49 - N  50          0.99784    -1.27072  501(v),597(v),528(g),110(r)
                                                    123(r),112(r)
    89. CR (   1) O  48                  0.99988   -19.48504  530(v),499(v),500(v)
    90. CR (   1) O  49                  0.99990   -19.47044  528(v)
    91. CR (   1) N  50                  0.99990   -14.79228  516(v)
   105. LP (   1) O  48                  0.99597    -0.76306  499(v),600(v),500(v),527(v)
                                                    531(v),574(r)
   106. LP (   2) O  48                  0.89920    -0.40340  599(v),529(v),104(r),497(r)
   107. LP (   1) O  49                  0.99614    -0.89424  528(v)
   108. LP (   2) O  49                  0.94108    -0.40242  598(v),527(v),597(r),533(v)
                                                    528(v),532(v)
   109. LP (   1) N  50                  0.99344    -0.62469  514(v),104(r),547(r)
   499. RY*(   1) H  47                  0.00293     0.84193   
   500. RY*(   2) H  47                  0.00041     1.84231   
   501. RY*(   1) O  48                  0.00122     1.34724   
   502. RY*(   2) O  48                  0.00067     1.37836   
   503. RY*(   3) O  48                  0.00048     1.07714   
   504. RY*(   4) O  48                  0.00011     1.87128   
   505. RY*(   5) O  48                  0.00000    49.76048   
   506. RY*(   6) O  48                  0.00000     4.94431   
   507. RY*(   7) O  48                  0.00001     5.00588   
   508. RY*(   8) O  48                  0.00000     4.91373   
   509. RY*(   9) O  48                  0.00000     2.94044   
   510. RY*(  10) O  48                  0.00000     2.92465   
   511. RY*(  11) O  48                  0.00000     2.99673   
   512. RY*(  12) O  48                  0.00001     2.63002   
   513. RY*(  13) O  48                  0.00000     2.80356   
   514. RY*(   1) O  49                  0.00261     1.06847   
   515. RY*(   2) O  49                  0.00051     1.00374   
   516. RY*(   3) O  49                  0.00013     1.69087   
   517. RY*(   4) O  49                  0.00004     2.76979   
   518. RY*(   5) O  49                  0.00001     3.22736   
   519. RY*(   6) O  49                  0.00000     4.88851   
   520. RY*(   7) O  49                  0.00000     4.95244   
   521. RY*(   8) O  49                  0.00000     4.85598   
   522. RY*(   9) O  49                  0.00001     3.09477   
   523. RY*(  10) O  49                  0.00000    49.54097   
   524. RY*(  11) O  49                  0.00000     2.83290   
   525. RY*(  12) O  49                  0.00001     2.15864   
   526. RY*(  13) O  49                  0.00000     2.79012   
   527. RY*(   1) N  50                  0.00679     1.33578   
   528. RY*(   2) N  50                  0.00367     0.91284   
   529. RY*(   3) N  50                  0.00187     2.12595   
   530. RY*(   4) N  50                  0.00072     1.13588   
   531. RY*(   5) N  50                  0.00044     3.24953   
   532. RY*(   6) N  50                  0.00016     1.39535   
   533. RY*(   7) N  50                  0.00004     2.06230   
   534. RY*(   8) N  50                  0.00000     3.39926   
   535. RY*(   9) N  50                  0.00001     3.19241   
   536. RY*(  10) N  50                  0.00000     3.61390   
   537. RY*(  11) N  50                  0.00000     2.41159   
   538. RY*(  12) N  50                  0.00001     2.23475   
   539. RY*(  13) N  50                  0.00000    35.10634   
   597. BD*(   1) H  47 - O  48          0.02668     0.45222   
   598. BD*(   1) O  48 - N  50          0.04966     0.31198   
   599. BD*(   1) O  49 - N  50          0.09701    -0.01581   
   600. BD*(   2) O  49 - N  50          0.00540     0.66389   
       -------------------------------
              Total Lewis   11.81370  ( 98.3217%)
        Valence non-Lewis    0.17875  (  1.4877%)
        Rydberg non-Lewis    0.02290  (  0.1906%)
       -------------------------------
            Total unit  2   12.01535  (100.0000%)
           Charge unit  2   -0.01535
 1\1\GINC-N02\SP\UM062X\6-311G(d)\C21H20N1O8(2)\UNKNOWN\02-Dec-2024\0\\
 # pop=nbo M062X/6-311g(d) scrf=(smd,solvent=generic,read) temperature=
 298.15 Geom=Check Guess=Read\\Reagente 1\\0,2\C,0,-2.7117248434,0.2866
 43621,-0.3406180544\H,0,-2.451000555,1.0193392308,-1.1001854062\C,0,-1
 .7751187761,-0.1310417024,0.5235555966\H,0,-2.012888062,-0.8290349686,
 1.3204960709\C,0,-0.3835440151,0.3587492606,0.5826723382\O,0,0.3187414
 901,0.0929818101,1.552540268\C,0,-4.1161977581,-0.1188895162,-0.366654
 3245\C,0,-4.9796774826,0.5116578028,-1.265303027\C,0,-4.6430803716,-1.
 1090256664,0.4782280666\C,0,-6.3278076473,0.180724361,-1.3164007875\H,
 0,-4.5952378577,1.2810644048,-1.9265145401\C,0,-5.9813184006,-1.445851
 5329,0.4376621079\H,0,-4.0197806745,-1.6321690037,1.1951432457\C,0,-6.
 8405343765,-0.7931374374,-0.4672782833\H,0,-6.991232152,0.6864582064,-
 2.0114892767\O,0,-8.1437062831,-1.1523858925,-0.4511594975\H,0,-8.6353
 324035,-0.6337820712,-1.1010863105\O,0,-6.4739351503,-2.3820695963,1.2
 992566539\C,0,-6.8010494149,-3.6231563381,0.675020302\H,0,-5.911212366
 9,-4.0646252629,0.2165086882\H,0,-7.1660755503,-4.2788534319,1.4635836
 521\H,0,-7.5792259461,-3.4924210527,-0.0791119446\C,0,2.8649823827,0.0
 016872748,-0.2089287478\H,0,1.9906288526,-0.6330100142,-0.3286221867\C
 ,0,2.693293818,1.3360753982,-0.2068052607\H,0,3.5182470547,2.033209101
 ,-0.1037148059\C,0,1.3960321114,1.9636399163,-0.3996801008\O,0,1.30023
 95956,3.1852827005,-0.5173823132\C,0,4.1226218235,-0.7191808007,-0.070
 0862899\C,0,4.0970527379,-2.1171987242,-0.0687228643\C,0,5.3650357594,
 -0.0744556131,0.057654264\C,0,5.2653541056,-2.8545540531,0.06472784\H,
 0,3.1481399297,-2.6336869902,-0.1662701586\C,0,6.5325388059,-0.7962944
 514,0.193106159\H,0,5.4463391377,1.0068227649,0.0645554199\C,0,6.48805
 50609,-2.2047942863,0.1988386784\H,0,5.2325213355,-3.9400023533,0.0741
 071968\O,0,7.6611258508,-2.8553007921,0.3467910821\H,0,7.5123510502,-3
 .80996052,0.342945465\O,0,7.7210610386,-0.1478299737,0.3560202748\C,0,
 8.5619642795,-0.1919148302,-0.7970108321\H,0,8.0648745337,0.2826646584
 ,-1.648121518\H,0,9.4618311858,0.3659522921,-0.5443991938\H,0,8.829575
 7428,-1.21927639,-1.0508105206\C,0,0.1419837023,1.1702562164,-0.512906
 0516\H,0,-0.4426496688,1.3509301429,-1.4065542263\H,0,-0.2831714389,3.
 8521052661,-0.5958610807\O,0,-1.2437833895,4.0812336107,-0.5915217828\
 O,0,-2.902564614,3.568880545,0.5910083504\N,0,-1.7454001861,3.40636468
 12,0.4750016656\\Version=ES64L-G16RevA.03\State=2-A\HF=-1468.404086\S2
 =0.764678\S2-1=0.\S2A=0.750131\RMSD=6.373e-09\Dipole=0.4660567,-3.1818
 316,-2.9322439\Quadrupole=25.2934484,-8.2738312,-17.0196171,-9.5070056
 ,8.2447129,-2.4492335\PG=C01 [X(C21H20N1O8)]\\@


 HE THAT FOLLOWS NATURE IS NEVER LOST.

                             -- BACON
 Job cpu time:       0 days  0 hours  1 minutes 22.8 seconds.
 Elapsed time:       0 days  0 hours  1 minutes 23.3 seconds.
 File lengths (MBytes):  RWF=    638 Int=      0 D2E=      0 Chk=     50 Scr=      1
 Normal termination of Gaussian 16 at Mon Dec  2 13:18:44 2024.
