 Entering Gaussian System, Link 0=g16
 Initial command:
 /sw/cluster/pub/apps//g16/l1.exe "/data/natrosa/25412/Gau-193302.inp" -scrdir="/data/natrosa/25412/"
 Entering Link 1 = /sw/cluster/pub/apps//g16/l1.exe PID=    193303.
  
 Copyright (c) 1988,1990,1992,1993,1995,1998,2003,2009,2016,
            Gaussian, Inc.  All Rights Reserved.
  
 This is part of the Gaussian(R) 16 program.  It is based on
 the Gaussian(R) 09 system (copyright 2009, Gaussian, Inc.),
 the Gaussian(R) 03 system (copyright 2003, Gaussian, Inc.),
 the Gaussian(R) 98 system (copyright 1998, Gaussian, Inc.),
 the Gaussian(R) 94 system (copyright 1995, Gaussian, Inc.),
 the Gaussian 92(TM) system (copyright 1992, Gaussian, Inc.),
 the Gaussian 90(TM) system (copyright 1990, Gaussian, Inc.),
 the Gaussian 88(TM) system (copyright 1988, Gaussian, Inc.),
 the Gaussian 86(TM) system (copyright 1986, Carnegie Mellon
 University), and the Gaussian 82(TM) system (copyright 1983,
 Carnegie Mellon University). Gaussian is a federally registered
 trademark of Gaussian, Inc.
  
 This software contains proprietary and confidential information,
 including trade secrets, belonging to Gaussian, Inc.
  
 This software is provided under written license and may be
 used, copied, transmitted, or stored only in accord with that
 written license.
  
 The following legend is applicable only to US Government
 contracts under FAR:
  
                    RESTRICTED RIGHTS LEGEND
  
 Use, reproduction and disclosure by the US Government is
 subject to restrictions as set forth in subparagraphs (a)
 and (c) of the Commercial Computer Software - Restricted
 Rights clause in FAR 52.227-19.
  
 Gaussian, Inc.
 340 Quinnipiac St., Bldg. 40, Wallingford CT 06492
  
  
 ---------------------------------------------------------------
 Warning -- This program may not be used in any manner that
 competes with the business of Gaussian, Inc. or will provide
 assistance to any competitor of Gaussian, Inc.  The licensee
 of this program is prohibited from giving any competitor of
 Gaussian, Inc. access to this program.  By using this program,
 the user acknowledges that Gaussian, Inc. is engaged in the
 business of creating and licensing software in the field of
 computational chemistry and represents and warrants to the
 licensee that it is not a competitor of Gaussian, Inc. and that
 it will not use this program in any manner prohibited above.
 ---------------------------------------------------------------
  

 Cite this work as:
 Gaussian 16, Revision A.03,
 M. J. Frisch, G. W. Trucks, H. B. Schlegel, G. E. Scuseria, 
 M. A. Robb, J. R. Cheeseman, G. Scalmani, V. Barone, 
 G. A. Petersson, H. Nakatsuji, X. Li, M. Caricato, A. V. Marenich, 
 J. Bloino, B. G. Janesko, R. Gomperts, B. Mennucci, H. P. Hratchian, 
 J. V. Ortiz, A. F. Izmaylov, J. L. Sonnenberg, D. Williams-Young, 
 F. Ding, F. Lipparini, F. Egidi, J. Goings, B. Peng, A. Petrone, 
 T. Henderson, D. Ranasinghe, V. G. Zakrzewski, J. Gao, N. Rega, 
 G. Zheng, W. Liang, M. Hada, M. Ehara, K. Toyota, R. Fukuda, 
 J. Hasegawa, M. Ishida, T. Nakajima, Y. Honda, O. Kitao, H. Nakai, 
 T. Vreven, K. Throssell, J. A. Montgomery, Jr., J. E. Peralta, 
 F. Ogliaro, M. J. Bearpark, J. J. Heyd, E. N. Brothers, K. N. Kudin, 
 V. N. Staroverov, T. A. Keith, R. Kobayashi, J. Normand, 
 K. Raghavachari, A. P. Rendell, J. C. Burant, S. S. Iyengar, 
 J. Tomasi, M. Cossi, J. M. Millam, M. Klene, C. Adamo, R. Cammi, 
 J. W. Ochterski, R. L. Martin, K. Morokuma, O. Farkas, 
 J. B. Foresman, and D. J. Fox, Gaussian, Inc., Wallingford CT, 2016.
 
 ******************************************
 Gaussian 16:  ES64L-G16RevA.03 25-Dec-2016
                 6-Nov-2024 
 ******************************************
 %oldchk=/home/natrosa/MOSSRI/REACAO-1/B3LYP-6-311G/CURCUMIN-OPT-FREQ-Reag-1-B3LY
 P-6-311G-D-298.chk
 %chk=CURCUMIN-Reag-1-B3LYP-6-311G-D-298-NBO.chk
 Copying data from "/home/natrosa/MOSSRI/REACAO-1/B3LYP-6-311G/CURCUMIN-OPT-FREQ-Reag-1-B3LYP-6-311G-D-298.chk" to current chk file "CURCUMIN-Reag-1-B3LYP-6-311G-D-298-NBO.chk"
 IOpt=  2 FromEx=T IUOpen= 4 IOptOp= 5 NList=   0 IFRang= 0 IUIn= 4 IUOut= 2.
 ----------------------------------------------------------------------
 # pop=nbo b3lyp/6-311g(d) scrf=(smd,solvent=generic,read) temperature=
 298.15 Geom=Check Guess=Read
 ----------------------------------------------------------------------
 1/29=2,38=1,40=2,112=298150,172=1/1;
 2/12=2,40=1/2;
 3/5=4,6=6,7=1,11=2,14=-4,25=1,30=1,70=32203,72=-2,74=-5,116=-2/1,2,3;
 4/5=1/1;
 5/5=2,38=6/2;
 6/7=2,8=2,9=2,10=2,28=1,40=1/1,7;
 99/5=1,9=1/99;
 ----------
 Reagente 1
 ----------
 Structure from the checkpoint file:  "CURCUMIN-Reag-1-B3LYP-6-311G-D-298-NBO.chk"
 Charge =  0 Multiplicity = 2
 Redundant internal coordinates found in file.  (old form).
 C,0,2.192579339,0.8940216676,0.9100899168
 H,0,1.7598671153,1.8898971955,0.8779218164
 C,0,1.4531399997,-0.1164914081,1.4450445068
 H,0,1.8225479221,-1.1361467784,1.465104399
 C,0,0.1128132534,0.029666184,2.0117792507
 O,0,-0.4943829983,-0.9542570186,2.4205577335
 C,0,3.5115024077,0.8110099712,0.362548783
 C,0,4.1503714471,1.9562678166,-0.0929556819
 C,0,4.2559348833,-0.4881571166,0.2722133639
 C,0,5.4855482902,1.9557429257,-0.4928615607
 H,0,3.6061551071,2.8950055978,-0.0900060199
 C,0,5.7113994571,-0.4029379614,-0.0361062508
 H,0,4.0830629515,-1.1418263946,1.1271063212
 C,0,6.2839207375,0.7917691583,-0.4220116722
 H,0,5.9477160176,2.8818259128,-0.8212732091
 O,0,7.619102476,0.843612724,-0.7005355037
 H,0,7.8642275713,1.7477478269,-0.9400316984
 O,0,6.2950271744,-1.6099264916,0.0903869757
 C,0,7.494473356,-1.953810132,-0.6334930476
 H,0,8.3630451064,-1.4448250129,-0.2208348607
 H,0,7.5964146465,-3.030221436,-0.5082367525
 H,0,7.3830180841,-1.7133704152,-1.6913872053
 C,0,-3.180230624,0.5056605346,0.9667279762
 H,0,-2.7906369944,0.0581902778,1.8768006618
 C,0,-2.435197648,1.4408355725,0.3391259149
 H,0,-2.767224658,1.8981740125,-0.5886007411
 C,0,-1.1263912793,1.9236417173,0.7881232869
 O,0,-0.5039451153,2.7349560173,0.1132897665
 C,0,-4.4731882577,-0.0168669712,0.5456477876
 C,0,-5.0828181062,-1.0171190705,1.3191867984
 C,0,-5.1548823262,0.4346334474,-0.6018783467
 C,0,-6.3117811057,-1.5543810423,0.9576987407
 H,0,-4.5823793737,-1.3843384598,2.2091942975
 C,0,-6.3795708134,-0.0914162563,-0.9750173738
 H,0,-4.7323823578,1.2053266379,-1.2366716427
 C,0,-6.9682302528,-1.1077697784,-0.1893180197
 H,0,-6.7647495539,-2.3366308351,1.5609236849
 O,0,-8.1561759092,-1.616424477,-0.6042704204
 H,0,-8.4490810035,-2.3039054928,0.010473734
 O,0,-6.9660221311,0.3381934544,-2.1360758528
 C,0,-8.1757588319,1.0960862427,-1.979924581
 H,0,-7.9974670859,1.9854141518,-1.3665652566
 H,0,-8.4703681167,1.4035390941,-2.9829415969
 H,0,-8.9710769331,0.4946315108,-1.5360895358
 C,0,-0.5342683485,1.41898139,2.1111471601
 H,0,-1.3074516974,1.3501922824,2.8760916712
 H,0,0.1971676303,2.1611408497,2.4313057459
 O,0,2.8235785429,-2.2352667505,-0.5932639109
 O,0,3.9062444436,-1.0615460339,-2.0567486811
 N,0,3.600373562,-1.3555388407,-0.9165818714
 Recover connectivity data from disk.
                           ----------------------------
                           !    Current Parameters    !
                           ! (Angstroms and Degrees)  !
 --------------------------                            --------------------------
 ! Name  Definition              Value                                          !
 --------------------------------------------------------------------------------
 ! R1    R(1,2)                  1.0863                                         !
 ! R2    R(1,3)                  1.3616                                         !
 ! R3    R(1,7)                  1.4305                                         !
 ! R4    R(3,4)                  1.0847                                         !
 ! R5    R(3,5)                  1.4625                                         !
 ! R6    R(5,6)                  1.2263                                         !
 ! R7    R(5,45)                 1.5358                                         !
 ! R8    R(7,8)                  1.3883                                         !
 ! R9    R(7,9)                  1.5001                                         !
 ! R10   R(8,10)                 1.3938                                         !
 ! R11   R(8,11)                 1.0851                                         !
 ! R12   R(9,12)                 1.4902                                         !
 ! R13   R(9,13)                 1.09                                           !
 ! R14   R(9,50)                 1.611                                          !
 ! R15   R(10,14)                1.4132                                         !
 ! R16   R(10,15)                1.0859                                         !
 ! R17   R(12,14)                1.3799                                         !
 ! R18   R(12,18)                1.3466                                         !
 ! R19   R(14,16)                1.3649                                         !
 ! R20   R(16,17)                0.9669                                         !
 ! R21   R(18,19)                1.4425                                         !
 ! R22   R(19,20)                1.088                                          !
 ! R23   R(19,21)                1.0885                                         !
 ! R24   R(19,22)                1.0906                                         !
 ! R25   R(23,24)                1.0864                                         !
 ! R26   R(23,25)                1.3504                                         !
 ! R27   R(23,29)                1.4567                                         !
 ! R28   R(25,26)                1.0863                                         !
 ! R29   R(25,27)                1.4655                                         !
 ! R30   R(27,28)                1.2252                                         !
 ! R31   R(27,45)                1.5348                                         !
 ! R32   R(29,30)                1.4038                                         !
 ! R33   R(29,31)                1.409                                          !
 ! R34   R(30,32)                1.3891                                         !
 ! R35   R(30,33)                1.0851                                         !
 ! R36   R(31,34)                1.3841                                         !
 ! R37   R(31,35)                1.0842                                         !
 ! R38   R(32,36)                1.395                                          !
 ! R39   R(32,37)                1.0867                                         !
 ! R40   R(34,36)                1.4131                                         !
 ! R41   R(34,40)                1.3699                                         !
 ! R42   R(36,38)                1.3573                                         !
 ! R43   R(38,39)                0.9676                                         !
 ! R44   R(40,41)                1.4361                                         !
 ! R45   R(41,42)                1.0949                                         !
 ! R46   R(41,43)                1.0897                                         !
 ! R47   R(41,44)                1.0915                                         !
 ! R48   R(45,46)                1.0898                                         !
 ! R49   R(45,47)                1.0901                                         !
 ! R50   R(48,50)                1.2173                                         !
 ! R51   R(49,50)                1.2165                                         !
 ! A1    A(2,1,3)              118.403                                          !
 ! A2    A(2,1,7)              114.1508                                         !
 ! A3    A(3,1,7)              127.446                                          !
 ! A4    A(1,3,4)              121.3289                                         !
 ! A5    A(1,3,5)              125.1517                                         !
 ! A6    A(4,3,5)              113.5083                                         !
 ! A7    A(3,5,6)              120.1817                                         !
 ! A8    A(3,5,45)             120.1051                                         !
 ! A9    A(6,5,45)             119.71                                           !
 ! A10   A(1,7,8)              120.1342                                         !
 ! A11   A(1,7,9)              122.0649                                         !
 ! A12   A(8,7,9)              117.797                                          !
 ! A13   A(7,8,10)             122.3221                                         !
 ! A14   A(7,8,11)             118.816                                          !
 ! A15   A(10,8,11)            118.7874                                         !
 ! A16   A(7,9,12)             116.5919                                         !
 ! A17   A(7,9,13)             113.1699                                         !
 ! A18   A(7,9,50)             107.9868                                         !
 ! A19   A(12,9,13)            110.5779                                         !
 ! A20   A(12,9,50)            105.9952                                         !
 ! A21   A(13,9,50)            101.0311                                         !
 ! A22   A(8,10,14)            121.8094                                         !
 ! A23   A(8,10,15)            119.6161                                         !
 ! A24   A(14,10,15)           118.4994                                         !
 ! A25   A(9,12,14)            120.8382                                         !
 ! A26   A(9,12,18)            110.6466                                         !
 ! A27   A(14,12,18)           128.4971                                         !
 ! A28   A(10,14,12)           119.5201                                         !
 ! A29   A(10,14,16)           120.7375                                         !
 ! A30   A(12,14,16)           119.7245                                         !
 ! A31   A(14,16,17)           109.5151                                         !
 ! A32   A(12,18,19)           121.7955                                         !
 ! A33   A(18,19,20)           111.2191                                         !
 ! A34   A(18,19,21)           104.8255                                         !
 ! A35   A(18,19,22)           110.4405                                         !
 ! A36   A(20,19,21)           110.1343                                         !
 ! A37   A(20,19,22)           110.2646                                         !
 ! A38   A(21,19,22)           109.8298                                         !
 ! A39   A(24,23,25)           118.4715                                         !
 ! A40   A(24,23,29)           114.3743                                         !
 ! A41   A(25,23,29)           127.1396                                         !
 ! A42   A(23,25,26)           121.3213                                         !
 ! A43   A(23,25,27)           125.3447                                         !
 ! A44   A(26,25,27)           113.3234                                         !
 ! A45   A(25,27,28)           120.2074                                         !
 ! A46   A(25,27,45)           120.0211                                         !
 ! A47   A(28,27,45)           119.7707                                         !
 ! A48   A(23,29,30)           118.8009                                         !
 ! A49   A(23,29,31)           123.3588                                         !
 ! A50   A(30,29,31)           117.8396                                         !
 ! A51   A(29,30,32)           121.0915                                         !
 ! A52   A(29,30,33)           119.5274                                         !
 ! A53   A(32,30,33)           119.3785                                         !
 ! A54   A(29,31,34)           121.7247                                         !
 ! A55   A(29,31,35)           121.0701                                         !
 ! A56   A(34,31,35)           117.202                                          !
 ! A57   A(30,32,36)           120.4283                                         !
 ! A58   A(30,32,37)           120.1796                                         !
 ! A59   A(36,32,37)           119.3877                                         !
 ! A60   A(31,34,36)           119.4754                                         !
 ! A61   A(31,34,40)           119.2152                                         !
 ! A62   A(36,34,40)           121.2307                                         !
 ! A63   A(32,36,34)           119.4334                                         !
 ! A64   A(32,36,38)           122.9066                                         !
 ! A65   A(34,36,38)           117.6566                                         !
 ! A66   A(36,38,39)           109.6925                                         !
 ! A67   A(34,40,41)           115.7211                                         !
 ! A68   A(40,41,42)           110.6339                                         !
 ! A69   A(40,41,43)           106.0561                                         !
 ! A70   A(40,41,44)           111.545                                          !
 ! A71   A(42,41,43)           109.2983                                         !
 ! A72   A(42,41,44)           109.7817                                         !
 ! A73   A(43,41,44)           109.4378                                         !
 ! A74   A(5,45,27)            113.8416                                         !
 ! A75   A(5,45,46)            106.6921                                         !
 ! A76   A(5,45,47)            110.6203                                         !
 ! A77   A(27,45,46)           110.6154                                         !
 ! A78   A(27,45,47)           106.7485                                         !
 ! A79   A(46,45,47)           108.2321                                         !
 ! A80   A(9,50,48)            116.9217                                         !
 ! A81   A(9,50,49)            117.3335                                         !
 ! A82   A(48,50,49)           125.733                                          !
 ! D1    D(2,1,3,4)            177.5302                                         !
 ! D2    D(2,1,3,5)             -1.1774                                         !
 ! D3    D(7,1,3,4)             -2.3134                                         !
 ! D4    D(7,1,3,5)            178.9789                                         !
 ! D5    D(2,1,7,8)              2.9654                                         !
 ! D6    D(2,1,7,9)           -177.7608                                         !
 ! D7    D(3,1,7,8)           -177.1854                                         !
 ! D8    D(3,1,7,9)              2.0885                                         !
 ! D9    D(1,3,5,6)            176.9935                                         !
 ! D10   D(1,3,5,45)            -3.6598                                         !
 ! D11   D(4,3,5,6)             -1.8027                                         !
 ! D12   D(4,3,5,45)           177.544                                          !
 ! D13   D(3,5,45,27)           79.046                                          !
 ! D14   D(3,5,45,46)         -158.6512                                         !
 ! D15   D(3,5,45,47)          -41.1465                                         !
 ! D16   D(6,5,45,27)         -101.6041                                         !
 ! D17   D(6,5,45,46)           20.6987                                         !
 ! D18   D(6,5,45,47)          138.2033                                         !
 ! D19   D(1,7,8,10)           172.5485                                         !
 ! D20   D(1,7,8,11)            -4.2722                                         !
 ! D21   D(9,7,8,10)            -6.7558                                         !
 ! D22   D(9,7,8,11)           176.4235                                         !
 ! D23   D(1,7,9,12)          -167.1297                                         !
 ! D24   D(1,7,9,13)           -37.2047                                         !
 ! D25   D(1,7,9,50)            73.7589                                         !
 ! D26   D(8,7,9,12)            12.1604                                         !
 ! D27   D(8,7,9,13)           142.0854                                         !
 ! D28   D(8,7,9,50)          -106.9511                                         !
 ! D29   D(7,8,10,14)           -1.8583                                         !
 ! D30   D(7,8,10,15)         -178.6594                                         !
 ! D31   D(11,8,10,14)         174.9632                                         !
 ! D32   D(11,8,10,15)          -1.8379                                         !
 ! D33   D(7,9,12,14)           -9.8053                                         !
 ! D34   D(7,9,12,18)          171.6191                                         !
 ! D35   D(13,9,12,14)        -140.9474                                         !
 ! D36   D(13,9,12,18)          40.477                                          !
 ! D37   D(50,9,12,14)         110.3755                                         !
 ! D38   D(50,9,12,18)         -68.2001                                         !
 ! D39   D(7,9,50,48)         -100.4217                                         !
 ! D40   D(7,9,50,49)           78.4017                                         !
 ! D41   D(12,9,50,48)         133.9408                                         !
 ! D42   D(12,9,50,49)         -47.2358                                         !
 ! D43   D(13,9,50,48)          18.5748                                         !
 ! D44   D(13,9,50,49)        -162.6019                                         !
 ! D45   D(8,10,14,12)           4.6058                                         !
 ! D46   D(8,10,14,16)        -173.8534                                         !
 ! D47   D(15,10,14,12)       -178.5586                                         !
 ! D48   D(15,10,14,16)          2.9823                                         !
 ! D49   D(9,12,14,10)           1.603                                          !
 ! D50   D(9,12,14,16)        -179.922                                          !
 ! D51   D(18,12,14,10)        179.8999                                         !
 ! D52   D(18,12,14,16)         -1.6252                                         !
 ! D53   D(9,12,18,19)         154.2733                                         !
 ! D54   D(14,12,18,19)        -24.164                                          !
 ! D55   D(10,14,16,17)         -0.6436                                         !
 ! D56   D(12,14,16,17)       -179.0996                                         !
 ! D57   D(12,18,19,20)         73.2465                                         !
 ! D58   D(12,18,19,21)       -167.7581                                         !
 ! D59   D(12,18,19,22)        -49.5199                                         !
 ! D60   D(24,23,25,26)        178.2743                                         !
 ! D61   D(24,23,25,27)         -0.4588                                         !
 ! D62   D(29,23,25,26)         -0.2507                                         !
 ! D63   D(29,23,25,27)       -178.9838                                         !
 ! D64   D(24,23,29,30)         -0.1005                                         !
 ! D65   D(24,23,29,31)        179.5845                                         !
 ! D66   D(25,23,29,30)        178.476                                          !
 ! D67   D(25,23,29,31)         -1.839                                          !
 ! D68   D(23,25,27,28)        176.8011                                         !
 ! D69   D(23,25,27,45)         -3.5288                                         !
 ! D70   D(26,25,27,28)         -2.0203                                         !
 ! D71   D(26,25,27,45)        177.6498                                         !
 ! D72   D(25,27,45,5)          79.5384                                         !
 ! D73   D(25,27,45,46)        -40.5777                                         !
 ! D74   D(25,27,45,47)       -158.1125                                         !
 ! D75   D(28,27,45,5)        -100.79                                           !
 ! D76   D(28,27,45,46)        139.0939                                         !
 ! D77   D(28,27,45,47)         21.559                                          !
 ! D78   D(23,29,30,32)       -179.6438                                         !
 ! D79   D(23,29,30,33)         -0.2395                                         !
 ! D80   D(31,29,30,32)          0.6538                                         !
 ! D81   D(31,29,30,33)       -179.942                                          !
 ! D82   D(23,29,31,34)        179.6291                                         !
 ! D83   D(23,29,31,35)          0.2914                                         !
 ! D84   D(30,29,31,34)         -0.6831                                         !
 ! D85   D(30,29,31,35)        179.9792                                         !
 ! D86   D(29,30,32,36)          0.0327                                         !
 ! D87   D(29,30,32,37)        179.2678                                         !
 ! D88   D(33,30,32,36)       -179.3724                                         !
 ! D89   D(33,30,32,37)         -0.1373                                         !
 ! D90   D(29,31,34,36)          0.0255                                         !
 ! D91   D(29,31,34,40)       -176.7897                                         !
 ! D92   D(35,31,34,36)        179.3877                                         !
 ! D93   D(35,31,34,40)          2.5724                                         !
 ! D94   D(30,32,36,34)         -0.7068                                         !
 ! D95   D(30,32,36,38)        178.5987                                         !
 ! D96   D(37,32,36,34)       -179.948                                          !
 ! D97   D(37,32,36,38)         -0.6425                                         !
 ! D98   D(31,34,36,32)          0.6758                                         !
 ! D99   D(31,34,36,38)       -178.6659                                         !
 ! D100  D(40,34,36,32)        177.425                                          !
 ! D101  D(40,34,36,38)         -1.9167                                         !
 ! D102  D(31,34,40,41)       -112.7159                                         !
 ! D103  D(36,34,40,41)         70.5266                                         !
 ! D104  D(32,36,38,39)          0.281                                          !
 ! D105  D(34,36,38,39)        179.5981                                         !
 ! D106  D(34,40,41,42)         58.3261                                         !
 ! D107  D(34,40,41,43)        176.7407                                         !
 ! D108  D(34,40,41,44)        -64.1854                                         !
 --------------------------------------------------------------------------------
                          Input orientation:                          
 ---------------------------------------------------------------------
 Center     Atomic      Atomic             Coordinates (Angstroms)
 Number     Number       Type             X           Y           Z
 ---------------------------------------------------------------------
      1          6           0        2.192579    0.894022    0.910090
      2          1           0        1.759867    1.889897    0.877922
      3          6           0        1.453140   -0.116491    1.445045
      4          1           0        1.822548   -1.136147    1.465104
      5          6           0        0.112813    0.029666    2.011779
      6          8           0       -0.494383   -0.954257    2.420558
      7          6           0        3.511502    0.811010    0.362549
      8          6           0        4.150371    1.956268   -0.092956
      9          6           0        4.255935   -0.488157    0.272213
     10          6           0        5.485548    1.955743   -0.492862
     11          1           0        3.606155    2.895006   -0.090006
     12          6           0        5.711399   -0.402938   -0.036106
     13          1           0        4.083063   -1.141826    1.127106
     14          6           0        6.283921    0.791769   -0.422012
     15          1           0        5.947716    2.881826   -0.821273
     16          8           0        7.619102    0.843613   -0.700536
     17          1           0        7.864228    1.747748   -0.940032
     18          8           0        6.295027   -1.609926    0.090387
     19          6           0        7.494473   -1.953810   -0.633493
     20          1           0        8.363045   -1.444825   -0.220835
     21          1           0        7.596415   -3.030221   -0.508237
     22          1           0        7.383018   -1.713370   -1.691387
     23          6           0       -3.180231    0.505661    0.966728
     24          1           0       -2.790637    0.058190    1.876801
     25          6           0       -2.435198    1.440836    0.339126
     26          1           0       -2.767225    1.898174   -0.588601
     27          6           0       -1.126391    1.923642    0.788123
     28          8           0       -0.503945    2.734956    0.113290
     29          6           0       -4.473188   -0.016867    0.545648
     30          6           0       -5.082818   -1.017119    1.319187
     31          6           0       -5.154882    0.434633   -0.601878
     32          6           0       -6.311781   -1.554381    0.957699
     33          1           0       -4.582379   -1.384338    2.209194
     34          6           0       -6.379571   -0.091416   -0.975017
     35          1           0       -4.732382    1.205327   -1.236672
     36          6           0       -6.968230   -1.107770   -0.189318
     37          1           0       -6.764750   -2.336631    1.560924
     38          8           0       -8.156176   -1.616424   -0.604270
     39          1           0       -8.449081   -2.303905    0.010474
     40          8           0       -6.966022    0.338193   -2.136076
     41          6           0       -8.175759    1.096086   -1.979925
     42          1           0       -7.997467    1.985414   -1.366565
     43          1           0       -8.470368    1.403539   -2.982942
     44          1           0       -8.971077    0.494632   -1.536090
     45          6           0       -0.534268    1.418981    2.111147
     46          1           0       -1.307452    1.350192    2.876092
     47          1           0        0.197168    2.161141    2.431306
     48          8           0        2.823579   -2.235267   -0.593264
     49          8           0        3.906244   -1.061546   -2.056749
     50          7           0        3.600374   -1.355539   -0.916582
 ---------------------------------------------------------------------
                    Distance matrix (angstroms):
                    1          2          3          4          5
     1  C    0.000000
     2  H    1.086298   0.000000
     3  C    1.361647   2.107440   0.000000
     4  H    2.136948   3.083124   1.084694   0.000000
     5  C    2.507241   2.731095   1.462541   2.140366   0.000000
     6  O    3.594080   3.943423   2.333736   2.512796   1.226333
     7  C    1.430472   2.120810   2.503779   2.803501   3.857661
     8  C    2.442830   2.580992   3.733207   4.172450   4.944045
     9  C    2.564126   3.500340   3.060936   2.786441   4.523239
    10  C    3.733520   3.970401   4.930512   5.177932   6.232919
    11  H    2.646191   2.314283   4.007614   4.674378   4.983082
    12  C    3.867750   4.659093   4.517591   4.232540   5.977052
    13  H    2.786701   3.827621   2.840579   2.285652   4.232957
    14  C    4.303955   4.833505   5.258068   5.213628   6.677328
    15  H    4.588032   4.627015   5.858952   6.195857   7.085696
    16  O    5.660725   6.157668   6.598819   6.496883   8.022689
    17  H    6.026557   6.370901   7.089853   7.113608   8.470503
    18  O    4.875628   5.782444   5.244932   4.702912   6.678307
    19  C    6.213121   7.067119   6.647839   6.102739   8.088297
    20  H    6.695061   7.478609   7.230934   6.761344   8.673236
    21  H    6.827355   7.758498   7.074246   6.388985   8.468629
    22  H    6.364498   7.155747   6.895700   6.419926   8.343111
    23  C    5.387125   5.131137   4.699360   5.288828   3.487526
    24  H    5.144472   5.005996   4.269259   4.783034   2.906726
    25  C    4.694819   4.253296   4.332146   5.102653   3.358799
    26  H    5.277694   4.758710   5.099614   5.872889   4.306729
    27  C    3.477148   2.887852   3.353755   4.303121   2.572956
    28  O    3.360829   2.534489   3.706009   4.714383   3.362030
    29  C    6.737581   6.526648   5.995015   6.460223   4.814885
    30  C    7.533341   7.447671   6.598918   6.907933   5.345094
    31  C    7.515469   7.219513   6.939711   7.444750   5.894389
    32  C    8.849920   8.776156   7.911955   8.160863   6.700426
    33  H    7.264892   7.260647   6.214407   6.452779   4.907465
    34  C    8.832127   8.579594   8.198090   8.620928   7.147494
    35  H    7.256762   6.862175   6.870189   7.466539   5.950675
    36  C    9.441202   9.290032   8.635581   8.945150   7.501984
    37  H    9.544341   9.539346   8.513293   8.671333   7.287215
    38  O   10.756038  10.621633   9.939238  10.202348   8.827769
    39  H   11.148138  11.070821  10.241912  10.439635   9.097077
    40  O    9.667888   9.361256   9.160429   9.611511   8.210347
    41  C   10.765475  10.368900  10.291572  10.808202   9.261284
    42  H   10.498159  10.012613  10.081524  10.686215   9.000823
    43  H   11.362823  10.945343  10.972400  11.496923  10.025256
    44  H   11.435494  11.087262  10.859325  11.321172   9.763228
    45  C    3.025528   2.646821   2.598300   3.535624   1.535834
    46  H    4.040232   3.700326   3.438012   4.239064   2.123200
    47  H    2.810935   2.220046   2.781688   3.800988   2.174006
    48  O    3.528552   4.506978   3.243765   2.539096   4.389125
    49  O    3.945000   4.682974   4.378745   4.092775   5.668667
    50  N    3.221667   4.140116   3.423906   2.980139   4.759955
                    6          7          8          9         10
     6  O    0.000000
     7  C    4.837219   0.000000
     8  C    6.030145   1.388256   0.000000
     9  C    5.234324   1.500058   2.473804   0.000000
    10  C    7.260557   2.437006   1.393780   2.840763   0.000000
    11  H    6.159072   2.134667   1.085085   3.463987   2.139305
    12  C    6.697080   2.544041   2.829469   1.490201   2.413091
    13  H    4.760379   2.173660   3.330356   1.089959   3.766457
    14  C    7.554747   2.881355   2.452828   2.496575   1.413242
    15  H    8.168576   3.409523   2.148849   3.926146   1.085856
    16  O    8.877061   4.243064   3.693135   3.745764   2.414957
    17  H    9.405358   4.639010   3.814937   4.414588   2.429267
    18  O    7.208029   3.699056   4.165442   2.334379   3.702625
    19  C    8.610932   4.949787   5.173385   3.668320   4.397745
    20  H    9.255898   5.382062   5.415755   4.245782   4.462942
    21  H    8.851467   5.674490   6.075586   4.269660   5.414410
    22  H    8.918396   5.057646   5.145020   3.890440   4.301075
    23  C    3.385079   6.725887   7.547511   7.534360   8.906675
    24  H    2.567782   6.525079   7.460579   7.247577   8.815398
    25  C    3.719622   5.980006   6.619825   6.963960   7.980949
    26  H    4.728341   6.442750   6.935573   7.467285   8.253529
    27  C    3.368468   4.788436   5.349915   5.920504   6.734961
    28  O    4.351307   4.459542   4.723511   5.750667   6.070307
    29  C    4.497208   8.029582   8.869434   8.746112  10.205201
    30  C    4.719185   8.838527   9.802396   9.412134  11.127075
    31  C    5.725766   8.728001   9.442570   9.496266  10.749159
    32  C    6.028451  10.121570  11.085358  10.643465  12.393630
    33  H    4.115988   8.587233   9.629148   9.092350  10.946251
    34  C    6.849077  10.021815  10.763398  10.715735  12.050078
    35  H    5.999981   8.406820   8.987509   9.270085  10.272414
    36  C    6.981813  10.668227  11.533469  11.250725  12.828634
    37  H    6.478227  10.814116  11.845006  11.248694  13.142005
    38  O    8.263844  11.956667  12.824846  12.494067  14.102107
    39  H    8.420646  12.364555  13.300601  12.836778  14.579844
    40  O    8.019691  10.781707  11.417824  11.507173  12.663263
    41  C    9.086896  11.923109  12.499362  12.732987  13.768866
    42  H    8.903945  11.697241  12.214455  12.607538  13.511326
    43  H    9.918334  12.454261  12.959190  13.271524  14.187073
    44  H    9.466186  12.630111  13.281243  13.386175  14.567676
    45  C    2.393655   4.449212   5.205055   5.474021   6.580818
    46  H    2.485775   5.461770   6.242628   6.411785   7.606667
    47  H    3.191248   4.133694   4.694858   5.306039   6.046479
    48  O    4.661864   3.265979   4.424890   2.419316   4.965957
    49  O    6.278798   3.084686   3.608778   2.423865   3.747529
    50  N    5.297599   2.517540   3.456721   1.611008   3.833798
                   11         12         13         14         15
    11  H    0.000000
    12  C    3.912977   0.000000
    13  H    4.243208   2.133190   0.000000
    14  C    3.421149   1.379865   3.313960   0.000000
    15  H    2.453127   3.385559   4.843851   2.154247   0.000000
    16  O    4.548044   2.373749   4.448125   1.364908   2.638640
    17  H    4.491094   3.174460   5.188440   1.918231   2.230079
    18  O    5.249475   1.346641   2.487306   2.455772   4.596476
    19  C    6.239023   2.437504   3.923869   3.008050   5.080462
    20  H    6.440439   2.854974   4.497444   3.060324   4.991418
    21  H    7.155795   3.267845   4.310919   4.041990   6.145608
    22  H    6.169785   2.692860   4.377245   3.015801   4.892139
    23  C    7.271911   8.994015   7.449521   9.569776   9.600131
    24  H    7.268755   8.726768   7.017822   9.389903   9.571381
    25  C    6.228700   8.361061   7.055408   8.776311   8.584650
    26  H    6.470104   8.802695   7.688413   9.120039   8.773363
    27  C    4.910362   7.269643   6.053959   7.593305   7.317873
    28  O    4.118236   6.964137   6.090805   7.080794   6.520653
    29  C    8.611553  10.208492   8.649454  10.830773  10.902575
    30  C    9.632694  10.896292   9.168742  11.640730  11.893529
    31  C    9.114342  10.913189   9.529651  11.445790  11.371217
    32  C   10.920631  12.119007  10.404407  12.886416  13.158265
    33  H    9.521093  10.581418   8.736110  11.390135  11.758690
    34  C   10.460243  12.131371  10.723292  12.706292  12.681712
    35  H    8.584932  10.634870   9.423834  11.054123  10.818859
    36  C   11.307064  12.700129  11.129475  13.389619  13.532846
    37  H   11.732487  12.725721  10.922032  13.564170  13.946825
    38  O   12.608327  13.932157  12.370201  14.640663  14.805442
    39  H   13.128880  14.287584  12.635344  15.060929  15.324861
    40  O   11.067729  12.871525  11.615554  13.368049  13.227373
    41  C   12.067369  14.102435  12.842920  14.546547  14.282993
    42  H   11.709014  13.978819  12.725456  14.362277  13.984600
    43  H   12.507436  14.596908  13.452138  14.987383  14.653986
    44  H   12.885640  14.786166  13.423158  15.298510  15.125477
    45  C    4.915977   6.851164   5.370831   7.300547   7.263272
    46  H    5.943712   7.798630   6.190861   8.295677   8.285763
    47  H    4.303111   6.562726   5.264096   6.860405   6.645861
    48  O    5.213961   3.465164   2.396161   4.600678   5.999738
    49  O    4.428592   2.788431   3.189772   3.429357   4.609142
    50  N    4.330172   2.477724   2.110764   3.472313   4.845035
                   16         17         18         19         20
    16  O    0.000000
    17  H    0.966905   0.000000
    18  O    2.898032   3.846834   0.000000
    19  C    2.801000   3.732588   1.442543   0.000000
    20  H    2.453673   3.310375   2.097812   1.088012   0.000000
    21  H    3.878670   4.804910   2.017225   1.088459   1.784322
    22  H    2.752396   3.574274   2.090250   1.090584   1.787483
    23  C   10.932501  11.276461   9.748035  11.070637  11.766984
    24  H   10.752778  11.149677   9.408676  10.776512  11.448308
    25  C   10.125538  10.383092   9.251262  10.538879  11.191186
    26  H   10.440327  10.638323   9.741263  10.960942  11.627287
    27  C    8.936791   9.156893   8.249266   9.559024  10.119979
    28  O    8.379940   8.491783   8.068739   9.301447   9.808452
    29  C   12.186751  12.551213  10.894933  12.180601  12.938139
    30  C   12.995399  13.430359  11.459351  12.762390  13.540526
    31  C   12.780911  13.089532  11.651604  12.872912  13.653275
    32  C   14.232696  14.678714  12.636729  13.903384  14.722482
    33  H   12.739955  13.215355  11.084142  12.419965  13.171663
    34  C   14.032550  14.362087  12.809621  14.002652  14.823806
    35  H   12.368406  12.611772  11.458206  12.642783  13.399457
    36  C   14.726151  15.123470  13.275707  14.494236  15.335012
    37  H   14.903803  15.392982  13.162384  14.432167  15.258445
    38  O   15.966229  16.373262  14.467891  15.654313  16.524561
    39  H   16.388988  16.835777  14.760648  15.960394  16.835650
    40  O   14.664313  14.945022  13.587043  14.717913  15.550807
    41  C   15.848603  16.086864  14.866484  16.020953  16.825061
    42  H   15.672414  15.869208  14.809611  16.001722  16.755465
    43  H   16.260196  16.465448  15.379962  16.482350  17.294687
    44  H   16.614873  16.892397  15.496081  16.671050  17.491803
    45  C    8.643730   8.941617   7.739317   9.130688   9.633365
    46  H    9.629759   9.941858   8.620913  10.035313  10.531932
    47  H    8.162685   8.385739   7.542197   8.920565   9.312271
    48  O    5.699829   6.433723   3.592963   4.679540   5.607958
    49  O    4.387968   4.980444   3.258404   3.961966   4.835344
    50  N    4.586189   5.273650   2.887881   3.949947   4.814050
                   21         22         23         24         25
    21  H    0.000000
    22  H    1.783110   0.000000
    23  C   11.437398  11.116290   0.000000
    24  H   11.095834  10.925825   1.086391   0.000000
    25  C   11.015517  10.510440   1.350374   2.098211   0.000000
    26  H   11.476086  10.829904   2.128078   3.076409   1.086314
    27  C   10.114774   9.580495   2.502164   2.726691   1.465495
    28  O    9.961897   9.233020   3.586171   3.937513   2.335698
    29  C   12.484642  12.184091   1.456737   2.146760   2.514151
    30  C   12.967459  12.843107   2.462301   2.592550   3.743255
    31  C   13.213991  12.767141   2.522859   3.446043   3.048707
    32  C   14.062894  13.949568   3.748394   3.980401   4.937799
    33  H   12.586357  12.589422   2.661173   2.324159   4.011129
    34  C   14.289249  13.876339   3.789809   4.586469   4.430897
    35  H   13.056405  12.470304   2.784543   3.844477   2.795650
    36  C   14.694435  14.442344   4.276510   4.804227   5.227143
    37  H   14.526029  14.530152   4.613075   4.650647   5.874271
    38  O   15.816199  15.577476   5.633055   6.144026   6.554878
    39  H   16.070300  15.934253   6.047220   6.409420   7.092101
    40  O   15.035313  14.501780   4.897719   5.797881   5.279282
    41  C   16.369292  15.813028   5.829808   6.704558   6.200878
    42  H   16.403124  15.822321   5.553350   6.429984   5.843354
    43  H   16.850042  16.208427   6.662704   7.595157   6.889180
    44  H   16.969468  16.503206   6.308575   7.073623   6.865089
    45  C    9.631437   9.324930   3.024065   2.645349   2.598859
    46  H   10.484300  10.284529   2.804675   2.206284   2.777809
    47  H    9.504736   9.145758   4.036387   3.695518   3.438808
    48  O    4.839333   4.718765   6.781739   6.548327   6.483657
    49  O    4.459925   3.556166   7.862295   7.846964   7.226065
    50  N    4.351971   3.877727   7.279252   7.116645   6.769389
                   26         27         28         29         30
    26  H    0.000000
    27  C    2.142044   0.000000
    28  O    2.513024   1.225182   0.000000
    29  C    2.804321   3.876263   4.849160   0.000000
    30  C    4.183367   4.958167   6.041385   1.403750   0.000000
    31  C    2.800542   4.514199   5.237763   1.409034   2.408998
    32  C    5.184116   6.246092   7.269278   2.431904   1.389127
    33  H    4.679458   4.990594   6.164011   2.156221   1.085082
    34  C    4.142081   5.896187   6.610278   2.439728   2.793182
    35  H    2.182173   4.197492   4.694874   2.176603   3.405067
    36  C    5.181078   6.653715   7.526294   2.820546   2.416316
    37  H    6.207595   7.109024   8.186227   3.415164   2.151381
    38  O    6.433774   7.993041   8.832103   4.176756   3.674831
    39  H    7.092239   8.491094   9.408819   4.617865   3.834094
    40  O    4.739000   6.720556   7.250004   3.678577   4.161991
    41  C    5.641930   7.618433   8.119370   4.618031   4.991598
    42  H    5.288504   7.201262   7.674937   4.481766   4.972288
    43  H    6.205109   8.271967   8.650041   5.517784   5.986935
    44  H    6.430820   8.305608   8.912453   4.982596   5.055349
    45  C    3.536150   1.534824   2.392518   4.475214   5.220258
    46  H    3.799383   2.172841   3.193160   4.161936   4.720329
    47  H    4.239883   2.123267   2.488779   5.487408   6.262299
    48  O    6.952872   5.899747   6.022852   7.711110   8.225112
    49  O    7.446515   6.506310   6.210658   8.836216   9.602196
    50  N    7.158249   6.000113   5.885424   8.313396   8.972793
                   31         32         33         34         35
    31  C    0.000000
    32  C    2.779726   0.000000
    33  H    3.396844   2.141492   0.000000
    34  C    1.384133   2.424923   3.878240   0.000000
    35  H    1.084176   3.863386   4.313103   2.112637   0.000000
    36  C    2.416080   1.395003   3.394354   1.413088   3.383250
    37  H    3.866431   1.086727   2.467763   3.408863   4.950002
    38  O    3.635190   2.417724   4.554280   2.370533   4.481582
    39  H    4.327391   2.455010   4.542175   3.185777   5.261552
    40  O    2.375561   3.685283   5.246927   1.369871   2.559296
    41  C    3.385591   4.373674   6.050917   2.376193   3.524372
    42  H    3.327154   4.557838   5.983654   2.661602   3.359492
    43  H    4.195317   5.379353   7.060240   3.261608   4.130531
    44  H    3.929337   4.182019   6.067812   2.715540   4.308279
    45  C    5.447892   6.599317   4.924979   6.780359   5.373798
    46  H    5.266616   6.095908   4.318282   6.529599   5.354060
    47  H    6.389481   7.638261   5.955151   7.741482   6.218368
    48  O    8.413339   9.291065   7.964048   9.457261   8.327317
    49  O    9.298345  10.664794   9.505746  10.387940   8.968674
    50  N    8.941938  10.089761   8.759495  10.059856   8.723263
                   36         37         38         39         40
    36  C    0.000000
    37  H    2.148220   0.000000
    38  O    1.357251   2.672607   0.000000
    39  H    1.914047   2.289528   0.967643   0.000000
    40  O    2.425011   4.567603   2.753802   3.713196   0.000000
    41  C    3.085673   5.129532   3.041467   3.949219   1.436053
    42  H    3.465981   5.363754   3.685040   4.527522   2.090302
    43  H    4.045667   6.127374   3.857068   4.765095   2.028596
    44  H    2.897046   4.740825   2.447225   3.239776   2.098738
    45  C    7.285086   7.295633   8.641797   8.995386   7.782960
    46  H    6.890771   6.715983   8.235215   8.518631   7.626623
    47  H    8.300384   8.334015   9.657281  10.027696   8.688809
    48  O    9.864783   9.827860  10.997186  11.289024  10.239104
    49  O   11.033750  11.339467  12.162219  12.588524  10.962287
    50  N   10.596494  10.702166  11.763590  12.122219  10.770544
                   41         42         43         44         45
    41  C    0.000000
    42  H    1.094944   0.000000
    43  H    1.089663   1.781821   0.000000
    44  H    1.091452   1.788599   1.780506   0.000000
    45  C    8.673725   8.253161   9.430358   9.237776   0.000000
    46  H    8.415409   7.947323   9.254107   8.884283   1.089809
    47  H    9.523612   9.033645  10.247644  10.127892   1.090092
    48  O   11.576103  11.640755  12.103913  12.143112   5.651770
    49  O   12.273389  12.306855  12.653656  12.981455   6.575905
    50  N   12.075531  12.077846  12.553293  12.721961   5.827553
                   46         47         48         49         50
    46  H    0.000000
    47  H    1.766169   0.000000
    48  O    6.477450   5.947643   0.000000
    49  O    7.571791   6.654742   2.166004   0.000000
    50  N    6.766986   5.929351   1.217319   1.216540   0.000000
 Stoichiometry    C21H20NO8(2)
 Framework group  C1[X(C21H20NO8)]
 Deg. of freedom   144
 Full point group                 C1      NOp   1
 Largest Abelian subgroup         C1      NOp   1
 Largest concise Abelian subgroup C1      NOp   1
                         Standard orientation:                         
 ---------------------------------------------------------------------
 Center     Atomic      Atomic             Coordinates (Angstroms)
 Number     Number       Type             X           Y           Z
 ---------------------------------------------------------------------
      1          6           0        2.205432    0.979520    0.728341
      2          1           0        1.772659    1.960559    0.554237
      3          6           0        1.468544    0.057835    1.407735
      4          1           0        1.837952   -0.948437    1.573614
      5          6           0        0.131040    0.285692    1.953802
      6          8           0       -0.474226   -0.628084    2.503857
      7          6           0        3.521633    0.816942    0.192213
      8          6           0        4.158356    1.883547   -0.427617
      9          6           0        4.265491   -0.482196    0.287564
     10          6           0        5.491546    1.823975   -0.829709
     11          1           0        3.614248    2.813234   -0.558149
     12          6           0        5.719426   -0.443750   -0.036926
     13          1           0        4.096773   -1.004881    1.229023
     14          6           0        6.290150    0.681927   -0.594739
     15          1           0        5.952176    2.692289   -1.291156
     16          8           0        7.623948    0.691767   -0.884325
     17          1           0        7.867974    1.551431   -1.253560
     18          8           0        6.303558   -1.620118    0.260379
     19          6           0        7.499391   -2.066281   -0.411821
     20          1           0        8.370033   -1.503548   -0.081542
     21          1           0        7.601849   -3.113243   -0.132329
     22          1           0        7.382747   -1.981661   -1.492842
     23          6           0       -3.167070    0.607804    0.866807
     24          1           0       -2.773038    0.296686    1.830233
     25          6           0       -2.425052    1.441511    0.106641
     26          1           0       -2.761604    1.759787   -0.875963
     27          6           0       -1.114004    1.983255    0.474529
     28          8           0       -0.494815    2.687661   -0.313816
     29          6           0       -4.462135    0.030793    0.532222
     30          6           0       -5.068039   -0.846255    1.445558
     31          6           0       -5.149434    0.311709   -0.665310
     32          6           0       -6.298818   -1.429257    1.171760
     33          1           0       -4.563254   -1.080968    2.376958
     34          6           0       -6.375995   -0.261891   -0.952282
     35          1           0       -4.729995    0.981890   -1.407177
     36          6           0       -6.960870   -1.153125   -0.024681
     37          1           0       -6.748881   -2.115424    1.884217
     38          8           0       -8.150893   -1.715606   -0.355725
     39          1           0       -8.440829   -2.306464    0.353611
     40          8           0       -6.968120   -0.004673   -2.160492
     41          6           0       -8.177003    0.768826   -2.109988
     42          1           0       -7.995608    1.737536   -1.632917
     43          1           0       -8.476522    0.927854   -3.145538
     44          1           0       -8.970180    0.238712   -1.579783
     45          6           0       -0.515416    1.675256    1.853845
     46          1           0       -1.284827    1.718716    2.624431
     47          1           0        0.217658    2.455400    2.059464
     48          8           0        2.828725   -2.335166   -0.308501
     49          8           0        3.904275   -1.386889   -1.931935
     50          7           0        3.603999   -1.512232   -0.759718
 ---------------------------------------------------------------------
 Rotational constants (GHZ):           0.3757415           0.0449607           0.0441915
 Standard basis: 6-311G(d) (5D, 7F)
 There are   630 symmetry adapted cartesian basis functions of A   symmetry.
 There are   600 symmetry adapted basis functions of A   symmetry.
   600 basis functions,  1060 primitive gaussians,   630 cartesian basis functions
   109 alpha electrons      108 beta electrons
       nuclear repulsion energy      2674.2778789137 Hartrees.
 NAtoms=   50 NActive=   50 NUniq=   50 SFac= 1.00D+00 NAtFMM=   60 NAOKFM=F Big=F
 Integral buffers will be    131072 words long.
 Raffenetti 2 integral format.
 Two-electron integral symmetry is turned on.
 Using the following non-standard input for PCM:
 Eps=7
 EpsInf=1.85341
 HbondAcidity=0
 HbondBasicity=0.48
 SurfaceTensionAtInterface=60.62
 CarbonAromaticity=0
 ElectronegativeHalogenicity=0
 --- end of non-standard input.
 ------------------------------------------------------------------------------
 Polarizable Continuum Model (PCM)
 =================================
 Model                : PCM.
 Atomic radii         : SMD-Coulomb.
 Polarization charges : Total charges.
 Charge compensation  : None.
 Solution method      : On-the-fly selection.
 Cavity type          : VdW (van der Waals Surface) (Alpha=1.000).
 Cavity algorithm     : GePol (No added spheres)
                        Default sphere list used, NSphG=   50.
                        Lebedev-Laikov grids with approx.  5.0 points / Ang**2.
                        Smoothing algorithm: York/Karplus (Gamma=1.0000).
                        Polarization charges: spherical gaussians, with
                                              point-specific exponents (IZeta= 3).
                        Self-potential: point-specific (ISelfS= 7).
                        Self-field    : sphere-specific E.n sum rule (ISelfD= 2).
 Solvent              : Generic,
                        Eps                           =   7.000000
                        Eps(infinity)                 =   1.853410
                        RSolv                         =   0.000000 Ang.
                        Molar volume                  =   0.000000 cm**3/mol
                        Thermal expansion coefficient =   0.000000 K**-1
                        Absolute temperature          = 298.150000 K
                        Numeral density               =   0.000000 Ang**-3
                        Hydrogen bond acidity         =   0.000000
                        Hydrogen bond basicity        =   0.480000
                        Surface tension at interface  =  60.620000 (cal/mol)*Ang**-2
                        Carbon aromaticity            =   0.000000
                        Electronegative halogenicity  =   0.000000
 ------------------------------------------------------------------------------
 ------------------------------------------------------------------------------
 Atomic radii for non-electrostatic terms: SMD-CDS.
 ------------------------------------------------------------------------------
 Nuclear repulsion after PCM non-electrostatic terms =     2674.2739524113 Hartrees.
 One-electron integrals computed using PRISM.
 NBasis=   600 RedAO= T EigKep=  1.75D-04  NBF=   600
 NBsUse=   600 1.00D-06 EigRej= -1.00D+00 NBFU=   600
 Initial guess from the checkpoint file:  "CURCUMIN-Reag-1-B3LYP-6-311G-D-298-NBO.chk"
 B after Tr=    -0.000000    0.000000   -0.000000
         Rot=    1.000000   -0.000000   -0.000000    0.000000 Ang=   0.00 deg.
 Initial guess <Sx>= 0.0000 <Sy>= 0.0000 <Sz>= 0.5000 <S**2>= 0.7861 S= 0.5179
 Requested convergence on RMS density matrix=1.00D-08 within 128 cycles.
 Requested convergence on MAX density matrix=1.00D-06.
 Requested convergence on             energy=1.00D-06.
 No special actions if energy rises.
 Inv3:  Mode=1 IEnd=    50135232.
 Iteration    1 A*A^-1 deviation from unit magnitude is 4.22D-15 for   2951.
 Iteration    1 A*A^-1 deviation from orthogonality  is 1.84D-15 for   3799   2509.
 Iteration    1 A^-1*A deviation from unit magnitude is 3.33D-15 for   2852.
 Iteration    1 A^-1*A deviation from orthogonality  is 2.72D-15 for   1772    758.
 Error on total polarization charges =  0.03478
 SCF Done:  E(UB3LYP) =  -1468.98900681     A.U. after    1 cycles
            NFock=  1  Conv=0.66D-08     -V/T= 2.0034
 <Sx>= 0.0000 <Sy>= 0.0000 <Sz>= 0.5000 <S**2>= 0.7861 S= 0.5179
 <L.S>=  0.00000000000    
 SMD-CDS (non-electrostatic) energy       (kcal/mol) =      -2.46
 (included in total energy above)
 Annihilation of the first spin contaminant:
 S**2 before annihilation     0.7861,   after     0.7508

 **********************************************************************

            Population analysis using the SCF density.

 **********************************************************************

 Orbital symmetries:
 Alpha Orbitals:
       Occupied  (A) (A) (A) (A) (A) (A) (A) (A) (A) (A) (A) (A)
                 (A) (A) (A) (A) (A) (A) (A) (A) (A) (A) (A) (A)
                 (A) (A) (A) (A) (A) (A) (A) (A) (A) (A) (A) (A)
                 (A) (A) (A) (A) (A) (A) (A) (A) (A) (A) (A) (A)
                 (A) (A) (A) (A) (A) (A) (A) (A) (A) (A) (A) (A)
                 (A) (A) (A) (A) (A) (A) (A) (A) (A) (A) (A) (A)
                 (A) (A) (A) (A) (A) (A) (A) (A) (A) (A) (A) (A)
                 (A) (A) (A) (A) (A) (A) (A) (A) (A) (A) (A) (A)
                 (A) (A) (A) (A) (A) (A) (A) (A) (A) (A) (A) (A)
                 (A)
       Virtual   (A) (A) (A) (A) (A) (A) (A) (A) (A) (A) (A) (A)
                 (A) (A) (A) (A) (A) (A) (A) (A) (A) (A) (A) (A)
                 (A) (A) (A) (A) (A) (A) (A) (A) (A) (A) (A) (A)
                 (A) (A) (A) (A) (A) (A) (A) (A) (A) (A) (A) (A)
                 (A) (A) (A) (A) (A) (A) (A) (A) (A) (A) (A) (A)
                 (A) (A) (A) (A) (A) (A) (A) (A) (A) (A) (A) (A)
                 (A) (A) (A) (A) (A) (A) (A) (A) (A) (A) (A) (A)
                 (A) (A) (A) (A) (A) (A) (A) (A) (A) (A) (A) (A)
                 (A) (A) (A) (A) (A) (A) (A) (A) (A) (A) (A) (A)
                 (A) (A) (A) (A) (A) (A) (A) (A) (A) (A) (A) (A)
                 (A) (A) (A) (A) (A) (A) (A) (A) (A) (A) (A) (A)
                 (A) (A) (A) (A) (A) (A) (A) (A) (A) (A) (A) (A)
                 (A) (A) (A) (A) (A) (A) (A) (A) (A) (A) (A) (A)
                 (A) (A) (A) (A) (A) (A) (A) (A) (A) (A) (A) (A)
                 (A) (A) (A) (A) (A) (A) (A) (A) (A) (A) (A) (A)
                 (A) (A) (A) (A) (A) (A) (A) (A) (A) (A) (A) (A)
                 (A) (A) (A) (A) (A) (A) (A) (A) (A) (A) (A) (A)
                 (A) (A) (A) (A) (A) (A) (A) (A) (A) (A) (A) (A)
                 (A) (A) (A) (A) (A) (A) (A) (A) (A) (A) (A) (A)
                 (A) (A) (A) (A) (A) (A) (A) (A) (A) (A) (A) (A)
                 (A) (A) (A) (A) (A) (A) (A) (A) (A) (A) (A) (A)
                 (A) (A) (A) (A) (A) (A) (A) (A) (A) (A) (A) (A)
                 (A) (A) (A) (A) (A) (A) (A) (A) (A) (A) (A) (A)
                 (A) (A) (A) (A) (A) (A) (A) (A) (A) (A) (A) (A)
                 (A) (A) (A) (A) (A) (A) (A) (A) (A) (A) (A) (A)
                 (A) (A) (A) (A) (A) (A) (A) (A) (A) (A) (A) (A)
                 (A) (A) (A) (A) (A) (A) (A) (A) (A) (A) (A) (A)
                 (A) (A) (A) (A) (A) (A) (A) (A) (A) (A) (A) (A)
                 (A) (A) (A) (A) (A) (A) (A) (A) (A) (A) (A) (A)
                 (A) (A) (A) (A) (A) (A) (A) (A) (A) (A) (A) (A)
                 (A) (A) (A) (A) (A) (A) (A) (A) (A) (A) (A) (A)
                 (A) (A) (A) (A) (A) (A) (A) (A) (A) (A) (A) (A)
                 (A) (A) (A) (A) (A) (A) (A) (A) (A) (A) (A) (A)
                 (A) (A) (A) (A) (A) (A) (A) (A) (A) (A) (A) (A)
                 (A) (A) (A) (A) (A) (A) (A) (A) (A) (A) (A) (A)
                 (A) (A) (A) (A) (A) (A) (A) (A) (A) (A) (A) (A)
                 (A) (A) (A) (A) (A) (A) (A) (A) (A) (A) (A) (A)
                 (A) (A) (A) (A) (A) (A) (A) (A) (A) (A) (A) (A)
                 (A) (A) (A) (A) (A) (A) (A) (A) (A) (A) (A) (A)
                 (A) (A) (A) (A) (A) (A) (A) (A) (A) (A) (A) (A)
                 (A) (A) (A) (A) (A) (A) (A) (A) (A) (A) (A)
 Beta  Orbitals:
       Occupied  (A) (A) (A) (A) (A) (A) (A) (A) (A) (A) (A) (A)
                 (A) (A) (A) (A) (A) (A) (A) (A) (A) (A) (A) (A)
                 (A) (A) (A) (A) (A) (A) (A) (A) (A) (A) (A) (A)
                 (A) (A) (A) (A) (A) (A) (A) (A) (A) (A) (A) (A)
                 (A) (A) (A) (A) (A) (A) (A) (A) (A) (A) (A) (A)
                 (A) (A) (A) (A) (A) (A) (A) (A) (A) (A) (A) (A)
                 (A) (A) (A) (A) (A) (A) (A) (A) (A) (A) (A) (A)
                 (A) (A) (A) (A) (A) (A) (A) (A) (A) (A) (A) (A)
                 (A) (A) (A) (A) (A) (A) (A) (A) (A) (A) (A) (A)
       Virtual   (A) (A) (A) (A) (A) (A) (A) (A) (A) (A) (A) (A)
                 (A) (A) (A) (A) (A) (A) (A) (A) (A) (A) (A) (A)
                 (A) (A) (A) (A) (A) (A) (A) (A) (A) (A) (A) (A)
                 (A) (A) (A) (A) (A) (A) (A) (A) (A) (A) (A) (A)
                 (A) (A) (A) (A) (A) (A) (A) (A) (A) (A) (A) (A)
                 (A) (A) (A) (A) (A) (A) (A) (A) (A) (A) (A) (A)
                 (A) (A) (A) (A) (A) (A) (A) (A) (A) (A) (A) (A)
                 (A) (A) (A) (A) (A) (A) (A) (A) (A) (A) (A) (A)
                 (A) (A) (A) (A) (A) (A) (A) (A) (A) (A) (A) (A)
                 (A) (A) (A) (A) (A) (A) (A) (A) (A) (A) (A) (A)
                 (A) (A) (A) (A) (A) (A) (A) (A) (A) (A) (A) (A)
                 (A) (A) (A) (A) (A) (A) (A) (A) (A) (A) (A) (A)
                 (A) (A) (A) (A) (A) (A) (A) (A) (A) (A) (A) (A)
                 (A) (A) (A) (A) (A) (A) (A) (A) (A) (A) (A) (A)
                 (A) (A) (A) (A) (A) (A) (A) (A) (A) (A) (A) (A)
                 (A) (A) (A) (A) (A) (A) (A) (A) (A) (A) (A) (A)
                 (A) (A) (A) (A) (A) (A) (A) (A) (A) (A) (A) (A)
                 (A) (A) (A) (A) (A) (A) (A) (A) (A) (A) (A) (A)
                 (A) (A) (A) (A) (A) (A) (A) (A) (A) (A) (A) (A)
                 (A) (A) (A) (A) (A) (A) (A) (A) (A) (A) (A) (A)
                 (A) (A) (A) (A) (A) (A) (A) (A) (A) (A) (A) (A)
                 (A) (A) (A) (A) (A) (A) (A) (A) (A) (A) (A) (A)
                 (A) (A) (A) (A) (A) (A) (A) (A) (A) (A) (A) (A)
                 (A) (A) (A) (A) (A) (A) (A) (A) (A) (A) (A) (A)
                 (A) (A) (A) (A) (A) (A) (A) (A) (A) (A) (A) (A)
                 (A) (A) (A) (A) (A) (A) (A) (A) (A) (A) (A) (A)
                 (A) (A) (A) (A) (A) (A) (A) (A) (A) (A) (A) (A)
                 (A) (A) (A) (A) (A) (A) (A) (A) (A) (A) (A) (A)
                 (A) (A) (A) (A) (A) (A) (A) (A) (A) (A) (A) (A)
                 (A) (A) (A) (A) (A) (A) (A) (A) (A) (A) (A) (A)
                 (A) (A) (A) (A) (A) (A) (A) (A) (A) (A) (A) (A)
                 (A) (A) (A) (A) (A) (A) (A) (A) (A) (A) (A) (A)
                 (A) (A) (A) (A) (A) (A) (A) (A) (A) (A) (A) (A)
                 (A) (A) (A) (A) (A) (A) (A) (A) (A) (A) (A) (A)
                 (A) (A) (A) (A) (A) (A) (A) (A) (A) (A) (A) (A)
                 (A) (A) (A) (A) (A) (A) (A) (A) (A) (A) (A) (A)
                 (A) (A) (A) (A) (A) (A) (A) (A) (A) (A) (A) (A)
                 (A) (A) (A) (A) (A) (A) (A) (A) (A) (A) (A) (A)
                 (A) (A) (A) (A) (A) (A) (A) (A) (A) (A) (A) (A)
                 (A) (A) (A) (A) (A) (A) (A) (A) (A) (A) (A) (A)
                 (A) (A) (A) (A) (A) (A) (A) (A) (A) (A) (A) (A)
 The electronic state is 2-A.
 Alpha  occ. eigenvalues --  -19.16941 -19.16117 -19.16082 -19.16024 -19.15903
 Alpha  occ. eigenvalues --  -19.13408 -19.10022 -19.09989 -14.54388 -10.25731
 Alpha  occ. eigenvalues --  -10.25634 -10.25567 -10.25046 -10.24678 -10.24551
 Alpha  occ. eigenvalues --  -10.23135 -10.21683 -10.20607 -10.20417 -10.19560
 Alpha  occ. eigenvalues --  -10.19315 -10.19232 -10.19098 -10.18664 -10.18138
 Alpha  occ. eigenvalues --  -10.17927 -10.17849 -10.17549 -10.17315 -10.17066
 Alpha  occ. eigenvalues --   -1.23841  -1.09175  -1.08160  -1.07139  -1.06828
 Alpha  occ. eigenvalues --   -1.04902  -1.03790  -1.03360  -0.88508  -0.86721
 Alpha  occ. eigenvalues --   -0.81615  -0.80720  -0.79939  -0.77302  -0.76116
 Alpha  occ. eigenvalues --   -0.75278  -0.72942  -0.71651  -0.69476  -0.68873
 Alpha  occ. eigenvalues --   -0.66065  -0.64281  -0.62750  -0.62107  -0.59561
 Alpha  occ. eigenvalues --   -0.58563  -0.57487  -0.56045  -0.55371  -0.54749
 Alpha  occ. eigenvalues --   -0.54092  -0.52856  -0.52209  -0.51672  -0.51143
 Alpha  occ. eigenvalues --   -0.50745  -0.49515  -0.48981  -0.48150  -0.47799
 Alpha  occ. eigenvalues --   -0.47267  -0.46183  -0.45511  -0.45400  -0.44494
 Alpha  occ. eigenvalues --   -0.44180  -0.43863  -0.43278  -0.42652  -0.42137
 Alpha  occ. eigenvalues --   -0.41735  -0.41458  -0.41119  -0.39525  -0.39182
 Alpha  occ. eigenvalues --   -0.39094  -0.38211  -0.37855  -0.37663  -0.37224
 Alpha  occ. eigenvalues --   -0.36511  -0.36421  -0.36264  -0.35789  -0.35260
 Alpha  occ. eigenvalues --   -0.34104  -0.33300  -0.32367  -0.30931  -0.30796
 Alpha  occ. eigenvalues --   -0.29463  -0.29023  -0.28336  -0.26169  -0.25155
 Alpha  occ. eigenvalues --   -0.24526  -0.23262  -0.21939  -0.19127
 Alpha virt. eigenvalues --   -0.07558  -0.07216  -0.05837  -0.01233   0.00370
 Alpha virt. eigenvalues --    0.01611   0.03497   0.03886   0.04838   0.05849
 Alpha virt. eigenvalues --    0.06419   0.06548   0.07028   0.07467   0.07811
 Alpha virt. eigenvalues --    0.08332   0.08383   0.08654   0.09524   0.10768
 Alpha virt. eigenvalues --    0.11523   0.11754   0.12240   0.12446   0.12843
 Alpha virt. eigenvalues --    0.13502   0.14623   0.14845   0.15901   0.16260
 Alpha virt. eigenvalues --    0.16951   0.17155   0.17307   0.18488   0.19752
 Alpha virt. eigenvalues --    0.21136   0.22245   0.22634   0.23223   0.24102
 Alpha virt. eigenvalues --    0.24594   0.25576   0.26144   0.27163   0.27485
 Alpha virt. eigenvalues --    0.27795   0.28647   0.30116   0.30841   0.31353
 Alpha virt. eigenvalues --    0.31625   0.32393   0.33090   0.33426   0.33815
 Alpha virt. eigenvalues --    0.34317   0.35060   0.35282   0.35856   0.36126
 Alpha virt. eigenvalues --    0.36185   0.36924   0.37298   0.37432   0.37974
 Alpha virt. eigenvalues --    0.38302   0.38704   0.39541   0.40046   0.40196
 Alpha virt. eigenvalues --    0.40407   0.41048   0.41613   0.41818   0.42951
 Alpha virt. eigenvalues --    0.43002   0.43417   0.43481   0.44095   0.44675
 Alpha virt. eigenvalues --    0.44911   0.45558   0.45718   0.46183   0.46320
 Alpha virt. eigenvalues --    0.46825   0.47546   0.48166   0.48624   0.49413
 Alpha virt. eigenvalues --    0.49664   0.50600   0.50894   0.51878   0.52099
 Alpha virt. eigenvalues --    0.52314   0.53181   0.53855   0.54454   0.54983
 Alpha virt. eigenvalues --    0.55451   0.55899   0.56850   0.57734   0.57984
 Alpha virt. eigenvalues --    0.58364   0.58472   0.58773   0.59061   0.59700
 Alpha virt. eigenvalues --    0.60128   0.60515   0.61083   0.61238   0.61857
 Alpha virt. eigenvalues --    0.62114   0.62431   0.63157   0.63365   0.63666
 Alpha virt. eigenvalues --    0.64122   0.64559   0.65139   0.65606   0.66300
 Alpha virt. eigenvalues --    0.66560   0.67230   0.67441   0.68803   0.69057
 Alpha virt. eigenvalues --    0.70028   0.70315   0.71687   0.71978   0.73405
 Alpha virt. eigenvalues --    0.74910   0.75315   0.75495   0.76473   0.77090
 Alpha virt. eigenvalues --    0.77835   0.78187   0.78239   0.78783   0.79377
 Alpha virt. eigenvalues --    0.80028   0.80260   0.80980   0.81304   0.81973
 Alpha virt. eigenvalues --    0.83002   0.83791   0.84258   0.85184   0.85718
 Alpha virt. eigenvalues --    0.86316   0.86837   0.88053   0.88724   0.89103
 Alpha virt. eigenvalues --    0.89581   0.89711   0.90967   0.91565   0.92541
 Alpha virt. eigenvalues --    0.93197   0.93321   0.94178   0.94628   0.95419
 Alpha virt. eigenvalues --    0.96247   0.97501   0.97935   0.98323   0.98829
 Alpha virt. eigenvalues --    0.99778   1.00697   1.01480   1.02348   1.03055
 Alpha virt. eigenvalues --    1.04476   1.05336   1.06649   1.06840   1.08237
 Alpha virt. eigenvalues --    1.09242   1.09647   1.10812   1.12039   1.13530
 Alpha virt. eigenvalues --    1.13944   1.14279   1.15285   1.16897   1.17693
 Alpha virt. eigenvalues --    1.18638   1.19497   1.20203   1.21559   1.23210
 Alpha virt. eigenvalues --    1.23407   1.23663   1.24401   1.24843   1.25149
 Alpha virt. eigenvalues --    1.27283   1.28239   1.29151   1.30648   1.34260
 Alpha virt. eigenvalues --    1.36040   1.37406   1.37983   1.38608   1.41076
 Alpha virt. eigenvalues --    1.42188   1.44411   1.44946   1.46010   1.46674
 Alpha virt. eigenvalues --    1.47231   1.48434   1.49862   1.50227   1.50948
 Alpha virt. eigenvalues --    1.51069   1.52089   1.52480   1.53146   1.54249
 Alpha virt. eigenvalues --    1.54493   1.54973   1.55363   1.56371   1.56609
 Alpha virt. eigenvalues --    1.57310   1.58488   1.59619   1.60143   1.61227
 Alpha virt. eigenvalues --    1.61868   1.62641   1.64317   1.64843   1.65798
 Alpha virt. eigenvalues --    1.66955   1.67885   1.68362   1.68875   1.69269
 Alpha virt. eigenvalues --    1.69642   1.70665   1.71574   1.72299   1.73326
 Alpha virt. eigenvalues --    1.73828   1.75013   1.76240   1.76691   1.77492
 Alpha virt. eigenvalues --    1.78715   1.79095   1.79737   1.79946   1.81342
 Alpha virt. eigenvalues --    1.82756   1.83397   1.83843   1.84351   1.85358
 Alpha virt. eigenvalues --    1.88095   1.89073   1.90912   1.91802   1.94006
 Alpha virt. eigenvalues --    1.95764   1.96461   1.98159   1.99165   2.00699
 Alpha virt. eigenvalues --    2.01687   2.02442   2.04554   2.05389   2.07565
 Alpha virt. eigenvalues --    2.07838   2.09950   2.10977   2.11708   2.12036
 Alpha virt. eigenvalues --    2.14513   2.15709   2.16979   2.18579   2.19445
 Alpha virt. eigenvalues --    2.21097   2.24044   2.24562   2.27058   2.27803
 Alpha virt. eigenvalues --    2.28957   2.29734   2.30684   2.31296   2.31790
 Alpha virt. eigenvalues --    2.32574   2.33272   2.33683   2.34169   2.35634
 Alpha virt. eigenvalues --    2.35975   2.37878   2.39009   2.39880   2.40556
 Alpha virt. eigenvalues --    2.43127   2.44511   2.46131   2.49081   2.50796
 Alpha virt. eigenvalues --    2.51404   2.52470   2.54090   2.54422   2.57860
 Alpha virt. eigenvalues --    2.60102   2.62046   2.63445   2.63978   2.65457
 Alpha virt. eigenvalues --    2.66372   2.69304   2.69621   2.70928   2.73207
 Alpha virt. eigenvalues --    2.74701   2.76282   2.76910   2.77592   2.79496
 Alpha virt. eigenvalues --    2.81286   2.81468   2.82689   2.83371   2.84377
 Alpha virt. eigenvalues --    2.85176   2.85900   2.87051   2.89383   2.90503
 Alpha virt. eigenvalues --    2.91977   2.92970   2.93625   2.93831   2.94547
 Alpha virt. eigenvalues --    2.94711   2.95130   2.96700   2.97588   2.98349
 Alpha virt. eigenvalues --    2.99256   3.00360   3.01099   3.02600   3.03629
 Alpha virt. eigenvalues --    3.05263   3.05717   3.06541   3.08717   3.09950
 Alpha virt. eigenvalues --    3.12290   3.12792   3.13254   3.14064   3.14588
 Alpha virt. eigenvalues --    3.14680   3.14872   3.16429   3.17653   3.18487
 Alpha virt. eigenvalues --    3.18552   3.19819   3.20685   3.24113   3.25491
 Alpha virt. eigenvalues --    3.26134   3.28269   3.29515   3.29805   3.29915
 Alpha virt. eigenvalues --    3.30311   3.31085   3.31571   3.32489   3.33079
 Alpha virt. eigenvalues --    3.33448   3.35015   3.36459   3.38560   3.39840
 Alpha virt. eigenvalues --    3.42393   3.44536   3.44837   3.45917   3.47375
 Alpha virt. eigenvalues --    3.48233   3.49015   3.51158   3.52499   3.54005
 Alpha virt. eigenvalues --    3.56554   3.56834   3.60515   3.64006   3.66992
 Alpha virt. eigenvalues --    3.70258   3.71649   3.72825   3.75570   3.87283
 Alpha virt. eigenvalues --    3.89759   3.90077   3.90701   3.93490   3.94764
 Alpha virt. eigenvalues --    3.95466   3.98816   4.06044   4.07497   4.08910
 Alpha virt. eigenvalues --    4.11375   4.35180   4.40868   4.45944   4.47347
 Alpha virt. eigenvalues --    4.68522   4.79013   4.80934   4.81171   4.83916
 Alpha virt. eigenvalues --    4.86246   4.87898   4.89801   4.93504   4.94123
 Alpha virt. eigenvalues --    4.96257   4.96791   5.05440   5.06108   5.11107
 Alpha virt. eigenvalues --    5.14452   5.16472   5.20094   5.46067   5.49602
 Alpha virt. eigenvalues --    5.50201   5.59108   5.60068   5.68298   5.69384
 Alpha virt. eigenvalues --    6.00714  23.23285  23.25902  23.42356  23.42594
 Alpha virt. eigenvalues --   23.55630  23.56408  23.71092  23.73737  23.76220
 Alpha virt. eigenvalues --   23.78862  23.79696  23.86231  23.90201  23.93792
 Alpha virt. eigenvalues --   23.99132  24.02178  24.05488  24.09332  24.11946
 Alpha virt. eigenvalues --   24.12061  24.15347  35.32795  49.81404  49.86525
 Alpha virt. eigenvalues --   49.86598  49.91085  49.92992  49.93573  49.96700
 Alpha virt. eigenvalues --   49.98431
  Beta  occ. eigenvalues --  -19.16669 -19.16081 -19.16073 -19.16055 -19.15875
  Beta  occ. eigenvalues --  -19.13408 -19.09987 -19.09830 -14.54132 -10.25731
  Beta  occ. eigenvalues --  -10.25667 -10.25231 -10.25050 -10.24678 -10.24625
  Beta  occ. eigenvalues --  -10.23135 -10.21687 -10.20607 -10.20022 -10.19456
  Beta  occ. eigenvalues --  -10.19278 -10.19232 -10.19054 -10.18663 -10.18138
  Beta  occ. eigenvalues --  -10.17927 -10.17849 -10.17315 -10.17282 -10.17066
  Beta  occ. eigenvalues --   -1.23632  -1.08843  -1.08160  -1.06995  -1.06684
  Beta  occ. eigenvalues --   -1.04902  -1.03671  -1.03153  -0.87973  -0.86721
  Beta  occ. eigenvalues --   -0.81264  -0.80663  -0.79430  -0.77023  -0.76113
  Beta  occ. eigenvalues --   -0.75107  -0.72855  -0.71518  -0.68874  -0.68708
  Beta  occ. eigenvalues --   -0.66055  -0.63960  -0.62541  -0.62053  -0.59249
  Beta  occ. eigenvalues --   -0.58562  -0.57330  -0.56012  -0.55267  -0.54360
  Beta  occ. eigenvalues --   -0.53906  -0.52659  -0.52011  -0.51485  -0.51132
  Beta  occ. eigenvalues --   -0.50636  -0.49414  -0.48738  -0.48070  -0.47266
  Beta  occ. eigenvalues --   -0.47077  -0.46183  -0.45409  -0.45150  -0.44299
  Beta  occ. eigenvalues --   -0.44161  -0.43846  -0.43196  -0.42553  -0.42000
  Beta  occ. eigenvalues --   -0.41652  -0.41321  -0.41096  -0.39370  -0.39120
  Beta  occ. eigenvalues --   -0.38705  -0.38131  -0.37716  -0.37625  -0.37148
  Beta  occ. eigenvalues --   -0.36416  -0.36206  -0.35670  -0.35626  -0.34485
  Beta  occ. eigenvalues --   -0.34084  -0.32780  -0.32282  -0.30563  -0.30309
  Beta  occ. eigenvalues --   -0.29099  -0.28351  -0.28283  -0.26043  -0.25154
  Beta  occ. eigenvalues --   -0.24399  -0.21936  -0.21743
  Beta virt. eigenvalues --   -0.12380  -0.07365  -0.06897  -0.05092  -0.01227
  Beta virt. eigenvalues --    0.00954   0.02292   0.03530   0.03886   0.05724
  Beta virt. eigenvalues --    0.06009   0.06550   0.06877   0.07075   0.07497
  Beta virt. eigenvalues --    0.08041   0.08389   0.08589   0.08791   0.09654
  Beta virt. eigenvalues --    0.10809   0.11563   0.11804   0.12256   0.12472
  Beta virt. eigenvalues --    0.12880   0.13623   0.14628   0.15023   0.16003
  Beta virt. eigenvalues --    0.16264   0.16963   0.17262   0.18082   0.18627
  Beta virt. eigenvalues --    0.19822   0.21206   0.22335   0.22966   0.23522
  Beta virt. eigenvalues --    0.24164   0.24655   0.25882   0.26201   0.27289
  Beta virt. eigenvalues --    0.27649   0.27997   0.28765   0.30189   0.30863
  Beta virt. eigenvalues --    0.31438   0.31702   0.32503   0.33160   0.33614
  Beta virt. eigenvalues --    0.33947   0.34428   0.35141   0.35492   0.35914
  Beta virt. eigenvalues --    0.36183   0.36510   0.37232   0.37384   0.37494
  Beta virt. eigenvalues --    0.38122   0.38440   0.38709   0.39876   0.40142
  Beta virt. eigenvalues --    0.40360   0.40571   0.41204   0.41792   0.41970
  Beta virt. eigenvalues --    0.42956   0.43234   0.43485   0.43619   0.44248
  Beta virt. eigenvalues --    0.44828   0.45004   0.45670   0.45761   0.46197
  Beta virt. eigenvalues --    0.46560   0.47056   0.47616   0.48373   0.49298
  Beta virt. eigenvalues --    0.49683   0.49753   0.50790   0.51029   0.51913
  Beta virt. eigenvalues --    0.52200   0.52409   0.53394   0.53969   0.54601
  Beta virt. eigenvalues --    0.55154   0.55504   0.56045   0.56929   0.57786
  Beta virt. eigenvalues --    0.58043   0.58376   0.58581   0.58866   0.59082
  Beta virt. eigenvalues --    0.59865   0.60204   0.60556   0.61179   0.61391
  Beta virt. eigenvalues --    0.62007   0.62235   0.62551   0.63299   0.63446
  Beta virt. eigenvalues --    0.63746   0.64180   0.64705   0.65266   0.65727
  Beta virt. eigenvalues --    0.66383   0.66645   0.67352   0.67521   0.68856
  Beta virt. eigenvalues --    0.69296   0.70125   0.70402   0.71844   0.72183
  Beta virt. eigenvalues --    0.73617   0.74960   0.75372   0.75659   0.76511
  Beta virt. eigenvalues --    0.77255   0.77872   0.78240   0.78456   0.78821
  Beta virt. eigenvalues --    0.79458   0.80106   0.80294   0.81044   0.81409
  Beta virt. eigenvalues --    0.82070   0.83045   0.83876   0.84302   0.85303
  Beta virt. eigenvalues --    0.85813   0.86463   0.86938   0.88124   0.88818
  Beta virt. eigenvalues --    0.89176   0.89703   0.89827   0.91073   0.91656
  Beta virt. eigenvalues --    0.92659   0.93400   0.93435   0.94286   0.94716
  Beta virt. eigenvalues --    0.95582   0.96325   0.97595   0.97972   0.98390
  Beta virt. eigenvalues --    0.99005   0.99967   1.00934   1.01635   1.02401
  Beta virt. eigenvalues --    1.03473   1.04544   1.05493   1.06681   1.06974
  Beta virt. eigenvalues --    1.08570   1.09292   1.09708   1.10952   1.12383
  Beta virt. eigenvalues --    1.13706   1.14149   1.14343   1.15320   1.16990
  Beta virt. eigenvalues --    1.17990   1.19249   1.19771   1.20242   1.21735
  Beta virt. eigenvalues --    1.23249   1.23496   1.23684   1.24471   1.25125
  Beta virt. eigenvalues --    1.25453   1.27301   1.28395   1.29420   1.30996
  Beta virt. eigenvalues --    1.34473   1.36207   1.37542   1.37996   1.38957
  Beta virt. eigenvalues --    1.41181   1.42380   1.44576   1.44956   1.46151
  Beta virt. eigenvalues --    1.46797   1.47239   1.48615   1.49941   1.50330
  Beta virt. eigenvalues --    1.51011   1.51276   1.52243   1.52489   1.53188
  Beta virt. eigenvalues --    1.54416   1.54630   1.55004   1.55390   1.56452
  Beta virt. eigenvalues --    1.56672   1.57481   1.58546   1.59665   1.60312
  Beta virt. eigenvalues --    1.61339   1.62043   1.62679   1.64394   1.65436
  Beta virt. eigenvalues --    1.65959   1.67068   1.67996   1.68465   1.69137
  Beta virt. eigenvalues --    1.69691   1.69839   1.70696   1.71691   1.72546
[...]
   349. RY*(   9) O  28                  0.00000     3.06587   
   350. RY*(  10) O  28                  0.00000    49.68448   
   351. RY*(  11) O  28                  0.00000     3.04863   
   352. RY*(  12) O  28                  0.00000     3.14634   
   353. RY*(  13) O  28                  0.00001     3.12334   
   354. RY*(   1) C  29                  0.00318     1.57925   
   355. RY*(   2) C  29                  0.00235     1.61295   
   356. RY*(   3) C  29                  0.00061     0.72204   
   357. RY*(   4) C  29                  0.00034     1.62911   
   358. RY*(   5) C  29                  0.00025     1.11522   
   359. RY*(   6) C  29                  0.00024     1.50165   
   360. RY*(   7) C  29                  0.00011     2.64215   
   361. RY*(   8) C  29                  0.00007     3.32774   
   362. RY*(   9) C  29                  0.00005     4.55580   
   363. RY*(  10) C  29                  0.00003     3.14830   
   364. RY*(  11) C  29                  0.00001     2.18707   
   365. RY*(  12) C  29                  0.00000     2.72092   
   366. RY*(  13) C  29                  0.00001    20.44060   
   367. RY*(   1) C  30                  0.00269     1.33967   
   368. RY*(   2) C  30                  0.00097     1.34366   
   369. RY*(   3) C  30                  0.00050     0.83560   
   370. RY*(   4) C  30                  0.00035     1.39803   
   371. RY*(   5) C  30                  0.00029     1.28638   
   372. RY*(   6) C  30                  0.00007     3.04662   
   373. RY*(   7) C  30                  0.00004     3.19514   
   374. RY*(   8) C  30                  0.00002     2.56574   
   375. RY*(   9) C  30                  0.00002     2.31589   
   376. RY*(  10) C  30                  0.00001     2.56912   
   377. RY*(  11) C  30                  0.00002     2.06543   
   378. RY*(  12) C  30                  0.00000    20.75702   
   379. RY*(  13) C  30                  0.00000     2.68031   
   380. RY*(   1) C  31                  0.00244     1.39456   
   381. RY*(   2) C  31                  0.00129     1.24903   
   382. RY*(   3) C  31                  0.00070     0.97362   
   383. RY*(   4) C  31                  0.00038     1.21511   
   384. RY*(   5) C  31                  0.00027     1.44299   
   385. RY*(   6) C  31                  0.00012     3.12997   
   386. RY*(   7) C  31                  0.00006     2.59388   
   387. RY*(   8) C  31                  0.00004     2.03535   
   388. RY*(   9) C  31                  0.00004     3.65862   
   389. RY*(  10) C  31                  0.00002     2.01613   
   390. RY*(  11) C  31                  0.00001     2.25782   
   391. RY*(  12) C  31                  0.00000    20.63736   
   392. RY*(  13) C  31                  0.00000     3.27502   
   393. RY*(   1) C  32                  0.00250     1.37932   
   394. RY*(   2) C  32                  0.00111     1.37643   
   395. RY*(   3) C  32                  0.00042     0.75643   
   396. RY*(   4) C  32                  0.00037     1.07420   
   397. RY*(   5) C  32                  0.00026     1.50380   
   398. RY*(   6) C  32                  0.00011     3.28206   
   399. RY*(   7) C  32                  0.00006     4.18846   
   400. RY*(   8) C  32                  0.00003     4.73225   
   401. RY*(   9) C  32                  0.00003     1.83207   
   402. RY*(  10) C  32                  0.00002     2.19229   
   403. RY*(  11) C  32                  0.00001     1.99873   
   404. RY*(  12) C  32                  0.00000     2.60778   
   405. RY*(  13) C  32                  0.00000    18.36874   
   406. RY*(   1) H  33                  0.00080     0.44947   
   407. RY*(   2) H  33                  0.00011     2.26839   
   408. RY*(   1) C  34                  0.00310     1.47848   
   409. RY*(   2) C  34                  0.00203     1.34037   
   410. RY*(   3) C  34                  0.00150     1.26606   
   411. RY*(   4) C  34                  0.00090     2.40405   
   412. RY*(   5) C  34                  0.00079     1.23473   
   413. RY*(   6) C  34                  0.00030     1.66639   
   414. RY*(   7) C  34                  0.00025     1.68928   
   415. RY*(   8) C  34                  0.00009     2.90833   
   416. RY*(   9) C  34                  0.00006     2.41285   
   417. RY*(  10) C  34                  0.00002     3.63831   
   418. RY*(  11) C  34                  0.00001     2.75135   
   419. RY*(  12) C  34                  0.00002     2.57221   
   420. RY*(  13) C  34                  0.00001    20.50946   
   421. RY*(   1) H  35                  0.00129     0.46487   
   422. RY*(   2) H  35                  0.00014     2.26137   
   423. RY*(   1) C  36                  0.00324     1.28076   
   424. RY*(   2) C  36                  0.00152     1.52670   
   425. RY*(   3) C  36                  0.00138     1.50045   
   426. RY*(   4) C  36                  0.00081     2.25498   
   427. RY*(   5) C  36                  0.00041     1.91021   
   428. RY*(   6) C  36                  0.00037     1.66788   
   429. RY*(   7) C  36                  0.00021     0.62629   
   430. RY*(   8) C  36                  0.00015     3.47352   
   431. RY*(   9) C  36                  0.00004     2.25746   
   432. RY*(  10) C  36                  0.00003     5.31852   
   433. RY*(  11) C  36                  0.00001    12.50732   
   434. RY*(  12) C  36                  0.00001     7.95813   
   435. RY*(  13) C  36                  0.00000     2.76637   
   436. RY*(   1) H  37                  0.00116     0.39431   
   437. RY*(   2) H  37                  0.00010     2.24783   
   438. RY*(   1) O  38                  0.00084     0.94209   
   439. RY*(   2) O  38                  0.00057     1.40524   
   440. RY*(   3) O  38                  0.00011     1.68166   
   441. RY*(   4) O  38                  0.00008     1.36311   
   442. RY*(   5) O  38                  0.00000    49.58032   
   443. RY*(   6) O  38                  0.00000     4.89376   
   444. RY*(   7) O  38                  0.00001     4.98114   
   445. RY*(   8) O  38                  0.00000     4.90842   
   446. RY*(   9) O  38                  0.00001     3.09964   
   447. RY*(  10) O  38                  0.00000     2.84809   
   448. RY*(  11) O  38                  0.00001     2.98639   
   449. RY*(  12) O  38                  0.00001     3.00592   
   450. RY*(  13) O  38                  0.00000     2.94536   
   451. RY*(   1) H  39                  0.00042     0.97416   
   452. RY*(   2) H  39                  0.00020     1.65174   
   453. RY*(   1) O  40                  0.00169     1.07500   
   454. RY*(   2) O  40                  0.00107     1.17621   
   455. RY*(   3) O  40                  0.00018     1.91110   
   456. RY*(   4) O  40                  0.00010     2.30066   
   457. RY*(   5) O  40                  0.00006     2.78968   
   458. RY*(   6) O  40                  0.00004     2.84208   
   459. RY*(   7) O  40                  0.00000     5.07604   
   460. RY*(   8) O  40                  0.00001     4.94440   
   461. RY*(   9) O  40                  0.00001     3.24560   
   462. RY*(  10) O  40                  0.00000     2.98151   
   463. RY*(  11) O  40                  0.00000     2.93617   
   464. RY*(  12) O  40                  0.00000    49.61806   
   465. RY*(  13) O  40                  0.00000     4.94054   
   466. RY*(   1) C  41                  0.00113     1.40578   
   467. RY*(   2) C  41                  0.00103     1.39954   
   468. RY*(   3) C  41                  0.00068     0.90887   
   469. RY*(   4) C  41                  0.00026     0.98433   
   470. RY*(   5) C  41                  0.00010     1.07548   
   471. RY*(   6) C  41                  0.00004     1.87803   
   472. RY*(   7) C  41                  0.00000     1.43371   
   473. RY*(   8) C  41                  0.00001     2.73256   
   474. RY*(   9) C  41                  0.00000     2.13712   
   475. RY*(  10) C  41                  0.00000    23.16423   
   476. RY*(  11) C  41                  0.00000     1.61596   
   477. RY*(  12) C  41                  0.00000     2.67465   
   478. RY*(  13) C  41                  0.00000     1.71495   
   479. RY*(   1) H  42                  0.00100     0.39422   
   480. RY*(   2) H  42                  0.00006     2.11821   
   481. RY*(   1) H  43                  0.00046     0.37904   
   482. RY*(   2) H  43                  0.00006     2.04828   
   483. RY*(   1) H  44                  0.00102     0.46126   
   484. RY*(   2) H  44                  0.00007     2.07610   
   485. RY*(   1) C  45                  0.00279     1.19251   
   486. RY*(   2) C  45                  0.00095     1.35686   
   487. RY*(   3) C  45                  0.00064     0.64090   
   488. RY*(   4) C  45                  0.00039     0.89060   
   489. RY*(   5) C  45                  0.00013     1.90259   
   490. RY*(   6) C  45                  0.00009     3.03538   
   491. RY*(   7) C  45                  0.00006     2.28561   
   492. RY*(   8) C  45                  0.00006     2.01592   
   493. RY*(   9) C  45                  0.00003     3.32803   
   494. RY*(  10) C  45                  0.00003     2.16883   
   495. RY*(  11) C  45                  0.00001     1.56633   
   496. RY*(  12) C  45                  0.00000    22.33334   
   497. RY*(  13) C  45                  0.00001     2.83804   
   498. RY*(   1) H  46                  0.00118     0.52624   
   499. RY*(   2) H  46                  0.00007     2.21017   
   500. RY*(   1) H  47                  0.00120     0.52077   
   501. RY*(   2) H  47                  0.00007     2.21500   
   502. RY*(   1) O  48                  0.00138     0.94550   
   503. RY*(   2) O  48                  0.00135     1.00094   
   504. RY*(   3) O  48                  0.00074     1.70015   
   505. RY*(   4) O  48                  0.00003     2.63690   
   506. RY*(   5) O  48                  0.00000    49.67616   
   507. RY*(   6) O  48                  0.00001     4.79171   
   508. RY*(   7) O  48                  0.00001     4.77453   
   509. RY*(   8) O  48                  0.00000     4.79480   
   510. RY*(   9) O  48                  0.00001     3.01721   
   511. RY*(  10) O  48                  0.00001     2.57568   
   512. RY*(  11) O  48                  0.00001     2.61067   
   513. RY*(  12) O  48                  0.00000     2.95822   
   514. RY*(  13) O  48                  0.00000     2.75570   
   515. RY*(   1) O  49                  0.00141     0.93146   
   516. RY*(   2) O  49                  0.00131     0.97035   
   517. RY*(   3) O  49                  0.00076     1.81930   
   518. RY*(   4) O  49                  0.00004     1.75000   
   519. RY*(   5) O  49                  0.00001     5.44663   
   520. RY*(   6) O  49                  0.00000     4.80067   
   521. RY*(   7) O  49                  0.00000     4.80388   
   522. RY*(   8) O  49                  0.00000    49.20624   
   523. RY*(   9) O  49                  0.00000     2.85096   
   524. RY*(  10) O  49                  0.00000     2.96644   
   525. RY*(  11) O  49                  0.00000     2.95764   
   526. RY*(  12) O  49                  0.00001     2.80843   
   527. RY*(  13) O  49                  0.00001     2.93992   
   528. RY*(   1) N  50                  0.00858     0.96623   
   529. RY*(   2) N  50                  0.00460     1.23718   
   530. RY*(   3) N  50                  0.00273     2.14305   
   531. RY*(   4) N  50                  0.00186     1.99645   
   532. RY*(   5) N  50                  0.00137     0.89819   
   533. RY*(   6) N  50                  0.00114     2.85914   
   534. RY*(   7) N  50                  0.00086     1.72097   
   535. RY*(   8) N  50                  0.00009     1.97412   
   536. RY*(   9) N  50                  0.00002     3.55756   
   537. RY*(  10) N  50                  0.00000     3.85657   
   538. RY*(  11) N  50                  0.00000     3.77109   
   539. RY*(  12) N  50                  0.00000     4.02451   
   540. RY*(  13) N  50                  0.00000    33.80894   
   541. BD*(   1) C   1 - H   2          0.00994     0.44886   
   542. BD*(   1) C   1 - C   3          0.00766     0.62643   
   543. BD*(   2) C   1 - C   3          0.05679     0.04306   
   544. BD*(   1) C   1 - C   7          0.01198     0.52968   
   545. BD*(   1) C   3 - H   4          0.00855     0.45189   
   546. BD*(   1) C   3 - C   5          0.02543     0.48204   
   547. BD*(   1) C   5 - O   6          0.00646     0.59239   
   548. BD*(   2) C   5 - O   6          0.07422     0.02246   
   549. BD*(   1) C   5 - C  45          0.03271     0.37548   
   550. BD*(   1) C   7 - C   8          0.01091     0.57657   
   551. BD*(   2) C   7 - C   8          0.09949     0.03688   
   552. BD*(   1) C   7 - C   9          0.01573     0.41412   
   553. BD*(   1) C   8 - C  10          0.00688     0.56906   
   554. BD*(   1) C   8 - H  11          0.00712     0.44319   
   555. BD*(   1) C   9 - C  12          0.01301     0.40836   
   556. BD*(   1) C   9 - H  13          0.00646     0.41314   
   557. BD*(   1) C   9 - N  50          0.07715     0.14068   
   558. BD*(   1) C  10 - C  14          0.01290     0.52485   
   559. BD*(   1) C  10 - H  15          0.00590     0.43475   
   560. BD*(   1) C  12 - C  14          0.01904     0.56311   
   561. BD*(   1) C  12 - O  18          0.01324     0.37645   
   562. BD*(   1) C  14 - O  16          0.01170     0.33550   
   563. BD*(   1) O  16 - H  17          0.00362     0.38488   
   564. BD*(   1) O  18 - C  19          0.00595     0.26446   
   565. BD*(   1) C  19 - H  20          0.00648     0.40524   
   566. BD*(   1) C  19 - H  21          0.00479     0.40727   
   567. BD*(   1) C  19 - H  22          0.00565     0.39782   
   568. BD*(   1) C  23 - H  24          0.00942     0.45321   
   569. BD*(   1) C  23 - C  25          0.00738     0.64726   
   570. BD*(   2) C  23 - C  25          0.06675     0.04267   
   571. BD*(   1) C  23 - C  29          0.01273     0.50355   
   572. BD*(   1) C  25 - H  26          0.00844     0.44610   
   573. BD*(   1) C  25 - C  27          0.02583     0.47757   
   574. BD*(   1) C  27 - O  28          0.00647     0.59336   
   575. BD*(   2) C  27 - O  28          0.09538     0.01954   
   576. BD*(   1) C  27 - C  45          0.03245     0.37674   
   577. BD*(   1) C  29 - C  30          0.01143     0.56551   
   578. BD*(   2) C  29 - C  30          0.19933     0.03160  583(v),586(v),570(v),369(g)
                                                    395(v),357(g),356(g),300(v)
   579. BD*(   1) C  29 - C  31          0.01315     0.56157   
   580. BD*(   1) C  30 - C  32          0.00688     0.58296   
   581. BD*(   1) C  30 - H  33          0.00678     0.45242   
   582. BD*(   1) C  31 - C  34          0.01220     0.58394   
   583. BD*(   2) C  31 - C  34          0.16014     0.03111  578(v),586(v),384(g),570(r)
                                                    592(v)
   584. BD*(   1) C  31 - H  35          0.00649     0.44947   
   585. BD*(   1) C  32 - C  36          0.01304     0.55651   
   586. BD*(   2) C  32 - C  36          0.19207     0.02016  583(v),578(v),429(g),395(g)
                                                    397(g)
   587. BD*(   1) C  32 - H  37          0.00677     0.43616   
   588. BD*(   1) C  34 - C  36          0.02296     0.52490   
   589. BD*(   1) C  34 - O  40          0.01408     0.36449   
   590. BD*(   1) C  36 - O  38          0.01098     0.35104   
   591. BD*(   1) O  38 - H  39          0.00370     0.38417   
   592. BD*(   1) O  40 - C  41          0.00519     0.28628   
   593. BD*(   1) C  41 - H  42          0.00857     0.39654   
   594. BD*(   1) C  41 - H  43          0.00447     0.41107   
   595. BD*(   1) C  41 - H  44          0.00923     0.40890   
   596. BD*(   1) C  45 - H  46          0.00470     0.41563   
   597. BD*(   1) C  45 - H  47          0.00482     0.41474   
   598. BD (   1) O  48 - O  49          0.44328    -0.26133  535(v)
   599. BD*(   1) O  48 - N  50          0.02726     0.44134   
   600. BD*(   1) O  49 - N  50          0.02695     0.44611   
       -------------------------------
              Total Lewis  104.45282  ( 96.7156%)
        Valence non-Lewis    3.32908  (  3.0825%)
        Rydberg non-Lewis    0.21810  (  0.2019%)
       -------------------------------
            Total unit  1  108.00000  (100.0000%)
           Charge unit  1    0.50000
 1\1\GINC-N02\SP\UB3LYP\6-311G(d)\C21H20N1O8(2)\UNKNOWN\06-Nov-2024\0\\
 # pop=nbo b3lyp/6-311g(d) scrf=(smd,solvent=generic,read) temperature=
 298.15 Geom=Check Guess=Read\\Reagente 1\\0,2\C,0,2.192579339,0.894021
 6676,0.9100899168\H,0,1.7598671153,1.8898971955,0.8779218164\C,0,1.453
 1399997,-0.1164914081,1.4450445068\H,0,1.8225479221,-1.1361467784,1.46
 5104399\C,0,0.1128132534,0.029666184,2.0117792507\O,0,-0.4943829983,-0
 .9542570186,2.4205577335\C,0,3.5115024077,0.8110099712,0.362548783\C,0
 ,4.1503714471,1.9562678166,-0.0929556819\C,0,4.2559348833,-0.488157116
 6,0.2722133639\C,0,5.4855482902,1.9557429257,-0.4928615607\H,0,3.60615
 51071,2.8950055978,-0.0900060199\C,0,5.7113994571,-0.4029379614,-0.036
 1062508\H,0,4.0830629515,-1.1418263946,1.1271063212\C,0,6.2839207375,0
 .7917691583,-0.4220116722\H,0,5.9477160176,2.8818259128,-0.8212732091\
 O,0,7.619102476,0.843612724,-0.7005355037\H,0,7.8642275713,1.747747826
 9,-0.9400316984\O,0,6.2950271744,-1.6099264916,0.0903869757\C,0,7.4944
 73356,-1.953810132,-0.6334930476\H,0,8.3630451064,-1.4448250129,-0.220
 8348607\H,0,7.5964146465,-3.030221436,-0.5082367525\H,0,7.3830180841,-
 1.7133704152,-1.6913872053\C,0,-3.180230624,0.5056605346,0.9667279762\
 H,0,-2.7906369944,0.0581902778,1.8768006618\C,0,-2.435197648,1.4408355
 725,0.3391259149\H,0,-2.767224658,1.8981740125,-0.5886007411\C,0,-1.12
 63912793,1.9236417173,0.7881232869\O,0,-0.5039451153,2.7349560173,0.11
 32897665\C,0,-4.4731882577,-0.0168669712,0.5456477876\C,0,-5.082818106
 2,-1.0171190705,1.3191867984\C,0,-5.1548823262,0.4346334474,-0.6018783
 467\C,0,-6.3117811057,-1.5543810423,0.9576987407\H,0,-4.5823793737,-1.
 3843384598,2.2091942975\C,0,-6.3795708134,-0.0914162563,-0.9750173738\
 H,0,-4.7323823578,1.2053266379,-1.2366716427\C,0,-6.9682302528,-1.1077
 697784,-0.1893180197\H,0,-6.7647495539,-2.3366308351,1.5609236849\O,0,
 -8.1561759092,-1.616424477,-0.6042704204\H,0,-8.4490810035,-2.30390549
 28,0.010473734\O,0,-6.9660221311,0.3381934544,-2.1360758528\C,0,-8.175
 7588319,1.0960862427,-1.979924581\H,0,-7.9974670859,1.9854141518,-1.36
 65652566\H,0,-8.4703681167,1.4035390941,-2.9829415969\H,0,-8.971076933
 1,0.4946315108,-1.5360895358\C,0,-0.5342683485,1.41898139,2.1111471601
 \H,0,-1.3074516974,1.3501922824,2.8760916712\H,0,0.1971676303,2.161140
 8497,2.4313057459\O,0,2.8235785429,-2.2352667505,-0.5932639109\O,0,3.9
 062444436,-1.0615460339,-2.0567486811\N,0,3.600373562,-1.3555388407,-0
 .9165818714\\Version=ES64L-G16RevA.03\State=2-A\HF=-1468.9890068\S2=0.
 786103\S2-1=0.\S2A=0.750813\RMSD=6.577e-09\Dipole=1.0056253,1.0965878,
 0.9946428\Quadrupole=56.0617884,-22.4144071,-33.6473814,20.0425941,-12
 .3279368,-3.9285986\PG=C01 [X(C21H20N1O8)]\\@


 Some scientists claim that hydrogen, because it is so
 plentiful, is the basic building block of the universe. 
 I dispute that. I say that stupidity is far more
 abundant than hydrogen, and THAT is the basic building 
 block of the universe.
                   --Frank Zappa
 Job cpu time:       0 days  0 hours  1 minutes  4.3 seconds.
 Elapsed time:       0 days  0 hours  1 minutes  4.8 seconds.
 File lengths (MBytes):  RWF=    616 Int=      0 D2E=      0 Chk=     49 Scr=      1
 Normal termination of Gaussian 16 at Wed Nov  6 14:00:48 2024.
