 Entering Gaussian System, Link 0=g16
 Initial command:
 /sw/cluster/pub/apps//g16/l1.exe "/data/natrosa/24893/Gau-627438.inp" -scrdir="/data/natrosa/24893/"
 Entering Link 1 = /sw/cluster/pub/apps//g16/l1.exe PID=    627439.
  
 Copyright (c) 1988,1990,1992,1993,1995,1998,2003,2009,2016,
            Gaussian, Inc.  All Rights Reserved.
  
 This is part of the Gaussian(R) 16 program.  It is based on
 the Gaussian(R) 09 system (copyright 2009, Gaussian, Inc.),
 the Gaussian(R) 03 system (copyright 2003, Gaussian, Inc.),
 the Gaussian(R) 98 system (copyright 1998, Gaussian, Inc.),
 the Gaussian(R) 94 system (copyright 1995, Gaussian, Inc.),
 the Gaussian 92(TM) system (copyright 1992, Gaussian, Inc.),
 the Gaussian 90(TM) system (copyright 1990, Gaussian, Inc.),
 the Gaussian 88(TM) system (copyright 1988, Gaussian, Inc.),
 the Gaussian 86(TM) system (copyright 1986, Carnegie Mellon
 University), and the Gaussian 82(TM) system (copyright 1983,
 Carnegie Mellon University). Gaussian is a federally registered
 trademark of Gaussian, Inc.
  
 This software contains proprietary and confidential information,
 including trade secrets, belonging to Gaussian, Inc.
  
 This software is provided under written license and may be
 used, copied, transmitted, or stored only in accord with that
 written license.
  
 The following legend is applicable only to US Government
 contracts under FAR:
  
                    RESTRICTED RIGHTS LEGEND
  
 Use, reproduction and disclosure by the US Government is
 subject to restrictions as set forth in subparagraphs (a)
 and (c) of the Commercial Computer Software - Restricted
 Rights clause in FAR 52.227-19.
  
 Gaussian, Inc.
 340 Quinnipiac St., Bldg. 40, Wallingford CT 06492
  
  
 ---------------------------------------------------------------
 Warning -- This program may not be used in any manner that
 competes with the business of Gaussian, Inc. or will provide
 assistance to any competitor of Gaussian, Inc.  The licensee
 of this program is prohibited from giving any competitor of
 Gaussian, Inc. access to this program.  By using this program,
 the user acknowledges that Gaussian, Inc. is engaged in the
 business of creating and licensing software in the field of
 computational chemistry and represents and warrants to the
 licensee that it is not a competitor of Gaussian, Inc. and that
 it will not use this program in any manner prohibited above.
 ---------------------------------------------------------------
  

 Cite this work as:
 Gaussian 16, Revision A.03,
 M. J. Frisch, G. W. Trucks, H. B. Schlegel, G. E. Scuseria, 
 M. A. Robb, J. R. Cheeseman, G. Scalmani, V. Barone, 
 G. A. Petersson, H. Nakatsuji, X. Li, M. Caricato, A. V. Marenich, 
 J. Bloino, B. G. Janesko, R. Gomperts, B. Mennucci, H. P. Hratchian, 
 J. V. Ortiz, A. F. Izmaylov, J. L. Sonnenberg, D. Williams-Young, 
 F. Ding, F. Lipparini, F. Egidi, J. Goings, B. Peng, A. Petrone, 
 T. Henderson, D. Ranasinghe, V. G. Zakrzewski, J. Gao, N. Rega, 
 G. Zheng, W. Liang, M. Hada, M. Ehara, K. Toyota, R. Fukuda, 
 J. Hasegawa, M. Ishida, T. Nakajima, Y. Honda, O. Kitao, H. Nakai, 
 T. Vreven, K. Throssell, J. A. Montgomery, Jr., J. E. Peralta, 
 F. Ogliaro, M. J. Bearpark, J. J. Heyd, E. N. Brothers, K. N. Kudin, 
 V. N. Staroverov, T. A. Keith, R. Kobayashi, J. Normand, 
 K. Raghavachari, A. P. Rendell, J. C. Burant, S. S. Iyengar, 
 J. Tomasi, M. Cossi, J. M. Millam, M. Klene, C. Adamo, R. Cammi, 
 J. W. Ochterski, R. L. Martin, K. Morokuma, O. Farkas, 
 J. B. Foresman, and D. J. Fox, Gaussian, Inc., Wallingford CT, 2016.
 
 ******************************************
 Gaussian 16:  ES64L-G16RevA.03 25-Dec-2016
                21-Oct-2024 
 ******************************************
 %chk=CURCUMIN-OPT-FREQ-TS-B3LYP-6-311G-D-363.chk
 ----------------------------------------------------------------------
 # opt=(calcfc,noeigen,ts) freq=noraman b3lyp/6-311g(d) scrf=(smd,solve
 nt=generic,read) temperature=363.15
 ----------------------------------------------------------------------
 1/5=1,10=4,11=1,18=20,26=3,38=1,40=2,112=363150/1,3;
 2/9=110,12=2,17=6,18=5,40=1/2;
 3/5=4,6=6,7=1,11=2,25=1,30=1,70=32203,71=2,72=-2,74=-5,140=1/1,2,3;
 4//1;
 5/5=2,38=5/2;
 8/6=4,10=90,11=11/1;
 11/6=1,8=1,9=11,15=111,16=1/1,2,10;
 10/6=1,13=1/2;
 6/7=2,8=2,9=2,10=2,28=1/1;
 7/10=1,18=20,25=1/1,2,3,16;
 1/5=1,10=4,11=1,18=20,26=3/3(2);
 2/9=110/2;
 99//99;
 2/9=110/2;
 3/5=4,6=6,7=1,11=2,25=1,30=1,70=32205,71=1,72=-2,74=-5/1,2,3;
 4/5=5,16=3,69=1/1;
 5/5=2,38=5/2;
 7//1,2,3,16;
 1/5=1,11=1,18=20,26=3/3(-5);
 2/9=110/2;
 6/7=2,8=2,9=2,10=2,19=2,28=1/1;
 99/9=1/99;
 --------------
 TS1 - reacao 1
 --------------
 Symbolic Z-matrix:
 Charge =  0 Multiplicity = 2
 C                     2.23752   1.13249   0.67009 
 H                     1.85624   2.12173   0.43825 
 C                     1.49956   0.32512   1.45908 
 H                     1.84274  -0.65772   1.76458 
 C                     0.18345   0.67116   2.01829 
 O                    -0.39438  -0.12801   2.74495 
 C                     3.5489    0.87609   0.09112 
 C                     4.32059   1.97652  -0.2992 
 C                     4.17907  -0.39342  -0.02518 
 C                     5.60372   1.84008  -0.81498 
 H                     3.90012   2.96991  -0.18928 
 C                     5.437    -0.5677   -0.62972 
 H                     4.72061  -0.50594   1.82218 
 C                     6.166     0.57701  -0.99576 
 H                     6.16449   2.72182  -1.11123 
 O                     7.38209   0.3795   -1.55922 
 H                     7.77937   1.22567  -1.81384 
 O                     5.86533  -1.82295  -0.90651 
 C                     7.00998  -2.30548  -0.16437 
 H                     6.79896  -2.28574   0.90703 
 H                     7.15743  -3.333    -0.49084 
 H                     7.89703  -1.71355  -0.38922 
 C                    -3.06485   0.79156   0.79393 
 H                    -2.72179   0.65356   1.81511 
 C                    -2.30154   1.51515  -0.05508 
 H                    -2.60169   1.66763  -1.08779 
 C                    -1.02531   2.14511   0.28405 
 O                    -0.4033    2.77907  -0.56309 
 C                    -4.3318    0.13733   0.49697 
 C                    -4.9514   -0.6199    1.50446 
 C                    -4.97642   0.22624  -0.75285 
 C                    -6.1558   -1.27262   1.2738 
 H                    -4.47716  -0.70612   2.47655 
 C                    -6.18045  -0.41347  -0.99424 
 H                    -4.54347   0.79883  -1.56553 
 C                    -6.77642  -1.18489   0.02762 
 H                    -6.61522  -1.8656    2.06006 
 O                    -7.94053  -1.82289  -0.262 
 H                    -8.24634  -2.32532   0.50739 
 O                    -6.74012  -0.34938  -2.24428 
 C                    -7.93417   0.44346  -2.34722 
 H                    -7.7208    1.48789  -2.09802 
 H                    -8.25413   0.37776  -3.38665 
 H                    -8.72457   0.06022  -1.69898 
 C                    -0.45921   2.0273    1.70808 
 H                    -1.24819   2.18076   2.44441 
 H                     0.27448   2.82591   1.8245 
 O                     3.61351  -2.48654   0.88053 
 O                     2.50053  -1.76239  -0.83128 
 N                     3.36092  -1.65041   0.0293 
 
 Add virtual bond connecting atoms H13        and C9         Dist= 3.64D+00.

 GradGradGradGradGradGradGradGradGradGradGradGradGradGradGradGradGradGrad
 Berny optimization.
 Initialization pass.
                           ----------------------------
                           !    Initial Parameters    !
                           ! (Angstroms and Degrees)  !
 --------------------------                            --------------------------
 ! Name  Definition              Value          Derivative Info.                !
 --------------------------------------------------------------------------------
 ! R1    R(1,2)                  1.0852         calculate D2E/DX2 analytically  !
 ! R2    R(1,3)                  1.3487         calculate D2E/DX2 analytically  !
 ! R3    R(1,7)                  1.4562         calculate D2E/DX2 analytically  !
 ! R4    R(3,4)                  1.0849         calculate D2E/DX2 analytically  !
 ! R5    R(3,5)                  1.4713         calculate D2E/DX2 analytically  !
 ! R6    R(5,6)                  1.225          calculate D2E/DX2 analytically  !
 ! R7    R(5,45)                 1.5324         calculate D2E/DX2 analytically  !
 ! R8    R(7,8)                  1.3996         calculate D2E/DX2 analytically  !
 ! R9    R(7,9)                  1.4221         calculate D2E/DX2 analytically  !
 ! R10   R(8,10)                 1.3896         calculate D2E/DX2 analytically  !
 ! R11   R(8,11)                 1.0843         calculate D2E/DX2 analytically  !
 ! R12   R(9,12)                 1.4065         calculate D2E/DX2 analytically  !
 ! R13   R(9,13)                 1.9284         calculate D2E/DX2 analytically  !
 ! R14   R(9,50)                 1.5008         calculate D2E/DX2 analytically  !
 ! R15   R(10,14)                1.3943         calculate D2E/DX2 analytically  !
 ! R16   R(10,15)                1.0861         calculate D2E/DX2 analytically  !
 ! R17   R(12,14)                1.4056         calculate D2E/DX2 analytically  !
 ! R18   R(12,18)                1.3549         calculate D2E/DX2 analytically  !
 ! R19   R(14,16)                1.3548         calculate D2E/DX2 analytically  !
 ! R20   R(16,17)                0.9688         calculate D2E/DX2 analytically  !
 ! R21   R(18,19)                1.447          calculate D2E/DX2 analytically  !
 ! R22   R(19,20)                1.0922         calculate D2E/DX2 analytically  !
 ! R23   R(19,21)                1.0882         calculate D2E/DX2 analytically  !
 ! R24   R(19,22)                1.0899         calculate D2E/DX2 analytically  !
 ! R25   R(23,24)                1.0861         calculate D2E/DX2 analytically  !
 ! R26   R(23,25)                1.3517         calculate D2E/DX2 analytically  !
 ! R27   R(23,29)                1.4565         calculate D2E/DX2 analytically  !
 ! R28   R(25,26)                1.0862         calculate D2E/DX2 analytically  !
 ! R29   R(25,27)                1.4631         calculate D2E/DX2 analytically  !
 ! R30   R(27,28)                1.2274         calculate D2E/DX2 analytically  !
 ! R31   R(27,45)                1.5369         calculate D2E/DX2 analytically  !
 ! R32   R(29,30)                1.4044         calculate D2E/DX2 analytically  !
 ! R33   R(29,31)                1.4091         calculate D2E/DX2 analytically  !
 ! R34   R(30,32)                1.3892         calculate D2E/DX2 analytically  !
 ! R35   R(30,33)                1.085          calculate D2E/DX2 analytically  !
 ! R36   R(31,34)                1.3846         calculate D2E/DX2 analytically  !
 ! R37   R(31,35)                1.0843         calculate D2E/DX2 analytically  !
 ! R38   R(32,36)                1.3949         calculate D2E/DX2 analytically  !
 ! R39   R(32,37)                1.0867         calculate D2E/DX2 analytically  !
 ! R40   R(34,36)                1.4122         calculate D2E/DX2 analytically  !
 ! R41   R(34,40)                1.3711         calculate D2E/DX2 analytically  !
 ! R42   R(36,38)                1.3587         calculate D2E/DX2 analytically  !
 ! R43   R(38,39)                0.9685         calculate D2E/DX2 analytically  !
 ! R44   R(40,41)                1.437          calculate D2E/DX2 analytically  !
 ! R45   R(41,42)                1.0947         calculate D2E/DX2 analytically  !
 ! R46   R(41,43)                1.0895         calculate D2E/DX2 analytically  !
 ! R47   R(41,44)                1.0917         calculate D2E/DX2 analytically  !
 ! R48   R(45,46)                1.0901         calculate D2E/DX2 analytically  !
 ! R49   R(45,47)                1.0907         calculate D2E/DX2 analytically  !
 ! R50   R(48,50)                1.2196         calculate D2E/DX2 analytically  !
 ! R51   R(49,50)                1.222          calculate D2E/DX2 analytically  !
 ! A1    A(2,1,3)              118.5824         calculate D2E/DX2 analytically  !
 ! A2    A(2,1,7)              113.0757         calculate D2E/DX2 analytically  !
 ! A3    A(3,1,7)              128.3105         calculate D2E/DX2 analytically  !
 ! A4    A(1,3,4)              122.2729         calculate D2E/DX2 analytically  !
 ! A5    A(1,3,5)              124.822          calculate D2E/DX2 analytically  !
 ! A6    A(4,3,5)              112.8924         calculate D2E/DX2 analytically  !
 ! A7    A(3,5,6)              119.6027         calculate D2E/DX2 analytically  !
 ! A8    A(3,5,45)             120.4207         calculate D2E/DX2 analytically  !
 ! A9    A(6,5,45)             119.9739         calculate D2E/DX2 analytically  !
 ! A10   A(1,7,8)              117.967          calculate D2E/DX2 analytically  !
 ! A11   A(1,7,9)              126.0685         calculate D2E/DX2 analytically  !
 ! A12   A(8,7,9)              115.7702         calculate D2E/DX2 analytically  !
 ! A13   A(7,8,10)             122.3733         calculate D2E/DX2 analytically  !
 ! A14   A(7,8,11)             118.5714         calculate D2E/DX2 analytically  !
 ! A15   A(10,8,11)            119.0547         calculate D2E/DX2 analytically  !
 ! A16   A(7,9,12)             122.8267         calculate D2E/DX2 analytically  !
 ! A17   A(7,9,13)              95.635          calculate D2E/DX2 analytically  !
 ! A18   A(7,9,50)             120.2084         calculate D2E/DX2 analytically  !
 ! A19   A(12,9,13)             98.8222         calculate D2E/DX2 analytically  !
 ! A20   A(12,9,50)            113.5401         calculate D2E/DX2 analytically  !
 ! A21   A(13,9,50)             93.9821         calculate D2E/DX2 analytically  !
 ! A22   A(8,10,14)            120.6249         calculate D2E/DX2 analytically  !
 ! A23   A(8,10,15)            119.8849         calculate D2E/DX2 analytically  !
 ! A24   A(14,10,15)           119.4603         calculate D2E/DX2 analytically  !
 ! A25   A(9,12,14)            118.3507         calculate D2E/DX2 analytically  !
 ! A26   A(9,12,18)            119.0351         calculate D2E/DX2 analytically  !
 ! A27   A(14,12,18)           122.5022         calculate D2E/DX2 analytically  !
 ! A28   A(10,14,12)           119.6569         calculate D2E/DX2 analytically  !
 ! A29   A(10,14,16)           123.2274         calculate D2E/DX2 analytically  !
 ! A30   A(12,14,16)           117.0732         calculate D2E/DX2 analytically  !
 ! A31   A(14,16,17)           110.4913         calculate D2E/DX2 analytically  !
 ! A32   A(12,18,19)           117.0158         calculate D2E/DX2 analytically  !
 ! A33   A(18,19,20)           110.1371         calculate D2E/DX2 analytically  !
 ! A34   A(18,19,21)           105.557          calculate D2E/DX2 analytically  !
 ! A35   A(18,19,22)           110.9111         calculate D2E/DX2 analytically  !
 ! A36   A(20,19,21)           109.7282         calculate D2E/DX2 analytically  !
 ! A37   A(20,19,22)           110.4769         calculate D2E/DX2 analytically  !
 ! A38   A(21,19,22)           109.9171         calculate D2E/DX2 analytically  !
 ! A39   A(24,23,25)           118.7004         calculate D2E/DX2 analytically  !
 ! A40   A(24,23,29)           114.167          calculate D2E/DX2 analytically  !
 ! A41   A(25,23,29)           127.1295         calculate D2E/DX2 analytically  !
 ! A42   A(23,25,26)           121.0831         calculate D2E/DX2 analytically  !
 ! A43   A(23,25,27)           125.2745         calculate D2E/DX2 analytically  !
 ! A44   A(26,25,27)           113.6392         calculate D2E/DX2 analytically  !
 ! A45   A(25,27,28)           120.2963         calculate D2E/DX2 analytically  !
 ! A46   A(25,27,45)           120.2016         calculate D2E/DX2 analytically  !
 ! A47   A(28,27,45)           119.5002         calculate D2E/DX2 analytically  !
 ! A48   A(23,29,30)           118.6659         calculate D2E/DX2 analytically  !
 ! A49   A(23,29,31)           123.3974         calculate D2E/DX2 analytically  !
 ! A50   A(30,29,31)           117.9365         calculate D2E/DX2 analytically  !
 ! A51   A(29,30,32)           121.113          calculate D2E/DX2 analytically  !
 ! A52   A(29,30,33)           119.5198         calculate D2E/DX2 analytically  !
 ! A53   A(32,30,33)           119.3639         calculate D2E/DX2 analytically  !
 ! A54   A(29,31,34)           121.5528         calculate D2E/DX2 analytically  !
 ! A55   A(29,31,35)           121.0262         calculate D2E/DX2 analytically  !
 ! A56   A(34,31,35)           117.4207         calculate D2E/DX2 analytically  !
 ! A57   A(30,32,36)           120.2991         calculate D2E/DX2 analytically  !
 ! A58   A(30,32,37)           120.1845         calculate D2E/DX2 analytically  !
 ! A59   A(36,32,37)           119.5122         calculate D2E/DX2 analytically  !
 ! A60   A(31,34,36)           119.5501         calculate D2E/DX2 analytically  !
 ! A61   A(31,34,40)           119.4909         calculate D2E/DX2 analytically  !
 ! A62   A(36,34,40)           120.861          calculate D2E/DX2 analytically  !
 ! A63   A(32,36,34)           119.5386         calculate D2E/DX2 analytically  !
 ! A64   A(32,36,38)           122.8257         calculate D2E/DX2 analytically  !
 ! A65   A(34,36,38)           117.6339         calculate D2E/DX2 analytically  !
 ! A66   A(36,38,39)           110.1698         calculate D2E/DX2 analytically  !
 ! A67   A(34,40,41)           115.4852         calculate D2E/DX2 analytically  !
 ! A68   A(40,41,42)           110.3718         calculate D2E/DX2 analytically  !
 ! A69   A(40,41,43)           106.2055         calculate D2E/DX2 analytically  !
 ! A70   A(40,41,44)           111.431          calculate D2E/DX2 analytically  !
 ! A71   A(42,41,43)           109.3859         calculate D2E/DX2 analytically  !
 ! A72   A(42,41,44)           109.9298         calculate D2E/DX2 analytically  !
 ! A73   A(43,41,44)           109.4324         calculate D2E/DX2 analytically  !
 ! A74   A(5,45,27)            114.1965         calculate D2E/DX2 analytically  !
 ! A75   A(5,45,46)            106.9407         calculate D2E/DX2 analytically  !
 ! A76   A(5,45,47)            110.1366         calculate D2E/DX2 analytically  !
 ! A77   A(27,45,46)           110.3943         calculate D2E/DX2 analytically  !
 ! A78   A(27,45,47)           106.8902         calculate D2E/DX2 analytically  !
 ! A79   A(46,45,47)           108.1613         calculate D2E/DX2 analytically  !
 ! A80   A(9,50,48)            119.1191         calculate D2E/DX2 analytically  !
 ! A81   A(9,50,49)            115.7852         calculate D2E/DX2 analytically  !
 ! A82   A(48,50,49)           125.0636         calculate D2E/DX2 analytically  !
 ! D1    D(2,1,3,4)           -177.2357         calculate D2E/DX2 analytically  !
 ! D2    D(2,1,3,5)              1.3729         calculate D2E/DX2 analytically  !
 ! D3    D(7,1,3,4)              0.5721         calculate D2E/DX2 analytically  !
 ! D4    D(7,1,3,5)            179.1807         calculate D2E/DX2 analytically  !
 ! D5    D(2,1,7,8)             19.4063         calculate D2E/DX2 analytically  !
 ! D6    D(2,1,7,9)           -165.8938         calculate D2E/DX2 analytically  !
 ! D7    D(3,1,7,8)           -158.5012         calculate D2E/DX2 analytically  !
 ! D8    D(3,1,7,9)             16.1986         calculate D2E/DX2 analytically  !
 ! D9    D(1,3,5,6)           -178.7121         calculate D2E/DX2 analytically  !
 ! D10   D(1,3,5,45)             0.6895         calculate D2E/DX2 analytically  !
 ! D11   D(4,3,5,6)              0.0109         calculate D2E/DX2 analytically  !
 ! D12   D(4,3,5,45)           179.4125         calculate D2E/DX2 analytically  !
 ! D13   D(3,5,45,27)           74.3503         calculate D2E/DX2 analytically  !
 ! D14   D(3,5,45,46)         -163.2214         calculate D2E/DX2 analytically  !
 ! D15   D(3,5,45,47)          -45.916          calculate D2E/DX2 analytically  !
 ! D16   D(6,5,45,27)         -106.2503         calculate D2E/DX2 analytically  !
 ! D17   D(6,5,45,46)           16.178          calculate D2E/DX2 analytically  !
 ! D18   D(6,5,45,47)          133.4833         calculate D2E/DX2 analytically  !
 ! D19   D(1,7,8,10)           177.5402         calculate D2E/DX2 analytically  !
 ! D20   D(1,7,8,11)            -2.1726         calculate D2E/DX2 analytically  !
 ! D21   D(9,7,8,10)             2.2962         calculate D2E/DX2 analytically  !
 ! D22   D(9,7,8,11)          -177.4166         calculate D2E/DX2 analytically  !
 ! D23   D(1,7,9,12)           178.3003         calculate D2E/DX2 analytically  !
 ! D24   D(1,7,9,13)           -77.3966         calculate D2E/DX2 analytically  !
 ! D25   D(1,7,9,50)            20.5466         calculate D2E/DX2 analytically  !
 ! D26   D(8,7,9,12)            -6.8976         calculate D2E/DX2 analytically  !
 ! D27   D(8,7,9,13)            97.4055         calculate D2E/DX2 analytically  !
 ! D28   D(8,7,9,50)          -164.6513         calculate D2E/DX2 analytically  !
 ! D29   D(7,8,10,14)            1.6007         calculate D2E/DX2 analytically  !
 ! D30   D(7,8,10,15)          179.6029         calculate D2E/DX2 analytically  !
 ! D31   D(11,8,10,14)        -178.6878         calculate D2E/DX2 analytically  !
 ! D32   D(11,8,10,15)          -0.6856         calculate D2E/DX2 analytically  !
 ! D33   D(7,9,12,14)            7.4334         calculate D2E/DX2 analytically  !
 ! D34   D(7,9,12,18)         -168.8166         calculate D2E/DX2 analytically  !
 ! D35   D(13,9,12,14)         -95.1801         calculate D2E/DX2 analytically  !
 ! D36   D(13,9,12,18)          88.5699         calculate D2E/DX2 analytically  !
 ! D37   D(50,9,12,14)         166.525          calculate D2E/DX2 analytically  !
 ! D38   D(50,9,12,18)          -9.7251         calculate D2E/DX2 analytically  !
 ! D39   D(7,9,50,48)         -122.1599         calculate D2E/DX2 analytically  !
 ! D40   D(7,9,50,49)           59.7961         calculate D2E/DX2 analytically  !
 ! D41   D(12,9,50,48)          78.1447         calculate D2E/DX2 analytically  !
 ! D42   D(12,9,50,49)         -99.8993         calculate D2E/DX2 analytically  !
 ! D43   D(13,9,50,48)         -23.2765         calculate D2E/DX2 analytically  !
 ! D44   D(13,9,50,49)         158.6795         calculate D2E/DX2 analytically  !
 ! D45   D(8,10,14,12)          -1.1753         calculate D2E/DX2 analytically  !
 ! D46   D(8,10,14,16)         176.3837         calculate D2E/DX2 analytically  !
 ! D47   D(15,10,14,12)       -179.1859         calculate D2E/DX2 analytically  !
 ! D48   D(15,10,14,16)         -1.6269         calculate D2E/DX2 analytically  !
 ! D49   D(9,12,14,10)          -3.1745         calculate D2E/DX2 analytically  !
 ! D50   D(9,12,14,16)         179.1186         calculate D2E/DX2 analytically  !
 ! D51   D(18,12,14,10)        172.9378         calculate D2E/DX2 analytically  !
 ! D52   D(18,12,14,16)         -4.7692         calculate D2E/DX2 analytically  !
 ! D53   D(9,12,18,19)        -113.2843         calculate D2E/DX2 analytically  !
 ! D54   D(14,12,18,19)         70.629          calculate D2E/DX2 analytically  !
 ! D55   D(10,14,16,17)         -0.4874         calculate D2E/DX2 analytically  !
 ! D56   D(12,14,16,17)        177.1304         calculate D2E/DX2 analytically  !
 ! D57   D(12,18,19,20)         58.694          calculate D2E/DX2 analytically  !
 ! D58   D(12,18,19,21)        177.0724         calculate D2E/DX2 analytically  !
 ! D59   D(12,18,19,22)        -63.9204         calculate D2E/DX2 analytically  !
 ! D60   D(24,23,25,26)        179.2706         calculate D2E/DX2 analytically  !
 ! D61   D(24,23,25,27)         -0.0347         calculate D2E/DX2 analytically  !
 ! D62   D(29,23,25,26)         -0.0487         calculate D2E/DX2 analytically  !
 ! D63   D(29,23,25,27)       -179.354          calculate D2E/DX2 analytically  !
 ! D64   D(24,23,29,30)         -1.9642         calculate D2E/DX2 analytically  !
 ! D65   D(24,23,29,31)        177.8388         calculate D2E/DX2 analytically  !
 ! D66   D(25,23,29,30)        177.3813         calculate D2E/DX2 analytically  !
 ! D67   D(25,23,29,31)         -2.8156         calculate D2E/DX2 analytically  !
 ! D68   D(23,25,27,28)        179.6901         calculate D2E/DX2 analytically  !
 ! D69   D(23,25,27,45)         -0.8131         calculate D2E/DX2 analytically  !
 ! D70   D(26,25,27,28)          0.3395         calculate D2E/DX2 analytically  !
 ! D71   D(26,25,27,45)        179.8364         calculate D2E/DX2 analytically  !
 ! D72   D(25,27,45,5)          77.2125         calculate D2E/DX2 analytically  !
 ! D73   D(25,27,45,46)        -43.3094         calculate D2E/DX2 analytically  !
 ! D74   D(25,27,45,47)       -160.7234         calculate D2E/DX2 analytically  !
 ! D75   D(28,27,45,5)        -103.2867         calculate D2E/DX2 analytically  !
 ! D76   D(28,27,45,46)        136.1914         calculate D2E/DX2 analytically  !
 ! D77   D(28,27,45,47)         18.7775         calculate D2E/DX2 analytically  !
 ! D78   D(23,29,30,32)       -179.5607         calculate D2E/DX2 analytically  !
 ! D79   D(23,29,30,33)         -0.2229         calculate D2E/DX2 analytically  !
 ! D80   D(31,29,30,32)          0.6254         calculate D2E/DX2 analytically  !
 ! D81   D(31,29,30,33)        179.9632         calculate D2E/DX2 analytically  !
 ! D82   D(23,29,31,34)        179.909          calculate D2E/DX2 analytically  !
 ! D83   D(23,29,31,35)          0.0954         calculate D2E/DX2 analytically  !
 ! D84   D(30,29,31,34)         -0.2866         calculate D2E/DX2 analytically  !
 ! D85   D(30,29,31,35)        179.8998         calculate D2E/DX2 analytically  !
 ! D86   D(29,30,32,36)         -0.0843         calculate D2E/DX2 analytically  !
 ! D87   D(29,30,32,37)        179.1663         calculate D2E/DX2 analytically  !
 ! D88   D(33,30,32,36)       -179.4231         calculate D2E/DX2 analytically  !
 ! D89   D(33,30,32,37)         -0.1725         calculate D2E/DX2 analytically  !
 ! D90   D(29,31,34,36)         -0.5827         calculate D2E/DX2 analytically  !
 ! D91   D(29,31,34,40)       -177.0146         calculate D2E/DX2 analytically  !
 ! D92   D(35,31,34,36)        179.2374         calculate D2E/DX2 analytically  !
 ! D93   D(35,31,34,40)          2.8055         calculate D2E/DX2 analytically  !
 ! D94   D(30,32,36,34)         -0.7992         calculate D2E/DX2 analytically  !
 ! D95   D(30,32,36,38)        178.6889         calculate D2E/DX2 analytically  !
 ! D96   D(37,32,36,34)        179.9451         calculate D2E/DX2 analytically  !
 ! D97   D(37,32,36,38)         -0.5668         calculate D2E/DX2 analytically  !
 ! D98   D(31,34,36,32)          1.126          calculate D2E/DX2 analytically  !
 ! D99   D(31,34,36,38)       -178.3885         calculate D2E/DX2 analytically  !
 ! D100  D(40,34,36,32)        177.5079         calculate D2E/DX2 analytically  !
 ! D101  D(40,34,36,38)         -2.0066         calculate D2E/DX2 analytically  !
 ! D102  D(31,34,40,41)       -109.9677         calculate D2E/DX2 analytically  !
 ! D103  D(36,34,40,41)         73.6482         calculate D2E/DX2 analytically  !
 ! D104  D(32,36,38,39)         -0.1758         calculate D2E/DX2 analytically  !
 ! D105  D(34,36,38,39)        179.3215         calculate D2E/DX2 analytically  !
 ! D106  D(34,40,41,42)         62.3833         calculate D2E/DX2 analytically  !
 ! D107  D(34,40,41,43)       -179.15           calculate D2E/DX2 analytically  !
 ! D108  D(34,40,41,44)        -60.0541         calculate D2E/DX2 analytically  !
 --------------------------------------------------------------------------------
 Trust Radius=3.00D-01 FncErr=1.00D-07 GrdErr=1.00D-06 EigMax=2.50D+02 EigMin=1.00D-04
 Number of steps in this run=    251 maximum allowed number of steps=    300.
 Search for a saddle point of order  1.
 GradGradGradGradGradGradGradGradGradGradGradGradGradGradGradGradGradGrad

                          Input orientation:                          
 ---------------------------------------------------------------------
 Center     Atomic      Atomic             Coordinates (Angstroms)
 Number     Number       Type             X           Y           Z
 ---------------------------------------------------------------------
      1          6           0        2.237520    1.132490    0.670090
      2          1           0        1.856243    2.121726    0.438253
      3          6           0        1.499557    0.325122    1.459080
      4          1           0        1.842738   -0.657720    1.764575
      5          6           0        0.183448    0.671164    2.018292
      6          8           0       -0.394379   -0.128008    2.744948
      7          6           0        3.548895    0.876085    0.091118
      8          6           0        4.320595    1.976524   -0.299197
      9          6           0        4.179074   -0.393421   -0.025180
     10          6           0        5.603717    1.840084   -0.814975
     11          1           0        3.900122    2.969905   -0.189284
     12          6           0        5.437001   -0.567700   -0.629717
     13          1           0        4.720609   -0.505942    1.822176
     14          6           0        6.165996    0.577006   -0.995758
     15          1           0        6.164486    2.721824   -1.111231
     16          8           0        7.382087    0.379504   -1.559220
     17          1           0        7.779373    1.225674   -1.813835
     18          8           0        5.865325   -1.822954   -0.906513
     19          6           0        7.009977   -2.305479   -0.164368
     20          1           0        6.798962   -2.285740    0.907026
     21          1           0        7.157433   -3.333001   -0.490836
     22          1           0        7.897029   -1.713554   -0.389219
     23          6           0       -3.064847    0.791559    0.793929
     24          1           0       -2.721786    0.653561    1.815114
     25          6           0       -2.301538    1.515148   -0.055079
     26          1           0       -2.601693    1.667626   -1.087793
     27          6           0       -1.025308    2.145113    0.284053
     28          8           0       -0.403295    2.779067   -0.563088
     29          6           0       -4.331801    0.137332    0.496973
     30          6           0       -4.951399   -0.619897    1.504458
     31          6           0       -4.976420    0.226242   -0.752852
     32          6           0       -6.155804   -1.272619    1.273797
     33          1           0       -4.477159   -0.706122    2.476551
     34          6           0       -6.180454   -0.413472   -0.994236
     35          1           0       -4.543467    0.798825   -1.565525
     36          6           0       -6.776418   -1.184894    0.027615
     37          1           0       -6.615222   -1.865603    2.060063
     38          8           0       -7.940533   -1.822894   -0.262002
     39          1           0       -8.246337   -2.325316    0.507386
     40          8           0       -6.740117   -0.349377   -2.244277
     41          6           0       -7.934171    0.443461   -2.347219
     42          1           0       -7.720795    1.487889   -2.098023
     43          1           0       -8.254126    0.377759   -3.386653
     44          1           0       -8.724573    0.060216   -1.698979
     45          6           0       -0.459206    2.027296    1.708075
     46          1           0       -1.248193    2.180758    2.444411
     47          1           0        0.274475    2.825905    1.824500
     48          8           0        3.613505   -2.486539    0.880532
     49          8           0        2.500529   -1.762385   -0.831276
     50          7           0        3.360918   -1.650407    0.029301
 ---------------------------------------------------------------------
                    Distance matrix (angstroms):
                    1          2          3          4          5
     1  C    0.000000
     2  H    1.085223   0.000000
     3  C    1.348680   2.096926   0.000000
     4  H    2.135088   3.079713   1.084933   0.000000
     5  C    2.499936   2.720091   1.471260   2.140922   0.000000
     6  O    3.580612   3.930324   2.333619   2.499284   1.224985
     7  C    1.456247   2.130069   2.524810   2.839716   3.883584
     8  C    2.447675   2.576421   3.711728   4.163913   4.918405
     9  C    2.565431   3.454892   3.146290   2.954918   4.612391
    10  C    3.746650   3.961498   4.930575   5.199814   6.226804
    11  H    2.622759   2.300142   3.933789   4.605438   4.896046
    12  C    3.849263   4.603846   4.545731   4.319660   6.012200
    13  H    3.190218   4.126073   3.346294   2.882446   4.691468
    14  C    4.303084   4.797553   5.278762   5.275846   6.699570
    15  H    4.595666   4.617573   5.840569   6.194278   7.054923
    16  O    5.657153   6.128637   6.611902   6.542770   8.043883
    17  H    6.073772   6.399866   7.138561   7.183023   8.525887
    18  O    4.937742   5.782874   5.410193   4.967262   6.859944
    19  C    5.940732   6.820870   6.318257   5.756413   7.760535
    20  H    5.705014   6.638974   5.933385   5.286776   7.330977
    21  H    6.744917   7.662889   7.013957   6.363175   8.424104
    22  H    6.422783   7.203137   6.964198   6.512147   8.425101
    23  C    5.314759   5.110086   4.636138   5.208354   3.473468
    24  H    5.112257   5.000960   4.249043   4.749410   2.912383
    25  C    4.612520   4.230657   4.261122   5.020709   3.344597
    26  H    5.176341   4.733732   5.010901   5.770286   4.289255
    27  C    3.438092   2.885769   3.326860   4.274752   2.577053
    28  O    3.347514   2.557400   3.705652   4.719553   3.383939
    29  C    6.646524   6.498704   5.913176   6.353255   4.794462
    30  C    7.446314   7.416015   6.519966   6.799220   5.319541
    31  C    7.408575   7.190054   6.844026   7.322550   5.873792
    32  C    8.751965   8.741431   7.822510   8.037141   6.672232
    33  H    7.192406   7.229340   6.149784   6.360059   4.881411
    34  C    8.719075   8.547968   8.096101   8.487774   7.123974
    35  H    7.147803   6.835311   6.774273   7.348109   5.933276
    36  C    9.329208   9.253388   8.533522   8.808223   7.473117
    37  H    9.449425   9.502357   8.426749   8.548882   7.256641
    38  O   10.639354  10.584290   9.833178  10.058680   8.798814
    39  H   11.040568  11.038256  10.144604  10.302953   9.073203
    40  O    9.554446   9.338079   9.058810   9.477941   8.194312
    41  C   10.632131  10.316377  10.173354  10.663367   9.219830
    42  H   10.341992   9.927442   9.950874  10.534916   8.949198
    43  H   11.273926  10.949470  10.891200  11.382180  10.024578
    44  H   11.266310  10.989597  10.704034  11.143595   9.671825
    45  C    3.024966   2.642474   2.606942   3.537153   1.532427
    46  H    4.049355   3.696712   3.458958   4.251234   2.123687
    47  H    2.837933   2.218003   2.808607   3.820822   2.165352
    48  O    3.877498   4.951736   3.564959   2.694759   4.799050
    49  O    3.271632   4.136801   3.256587   2.896794   4.405799
    50  N    3.068737   4.081700   3.067841   2.510274   4.409319
                    6          7          8          9         10
     6  O    0.000000
     7  C    4.858027   0.000000
     8  C    5.993901   1.399583   0.000000
     9  C    5.353553   1.422075   2.389927   0.000000
    10  C    7.247316   2.443889   1.389620   2.764404   0.000000
    11  H    6.053885   2.141511   1.084290   3.378862   2.137807
    12  C    6.751791   2.483760   2.797978   1.406492   2.420648
    13  H    5.211281   2.505888   3.289813   1.928379   3.638445
    14  C    7.584751   2.849555   2.418544   2.414873   1.394348
    15  H    8.124677   3.419607   2.148210   3.850470   1.086138
    16  O    8.902632   4.202805   3.675713   3.634554   2.418635
    17  H    9.456489   4.652741   3.849812   4.333925   2.471578
    18  O    7.442439   3.694039   4.146210   2.379864   3.673509
    19  C    8.248029   4.708154   5.058310   3.418969   4.425669
    20  H    7.731618   4.607144   5.075842   3.363583   4.627777
    21  H    8.818852   5.574641   6.022909   4.210533   5.411091
    22  H    9.004688   5.083623   5.139617   3.962129   4.250752
    23  C    3.432707   6.651516   7.559353   7.385764   8.878737
    24  H    2.625312   6.507159   7.470989   7.218360   8.811311
    25  C    3.765285   5.887049   6.642673   6.755876   7.948338
    26  H    4.773514   6.312377   6.973907   7.166300   8.211755
    27  C    3.408981   4.750894   5.380268   5.798739   6.726431
    28  O    4.403892   4.434989   4.798838   5.599297   6.085173
    29  C    4.541706   7.925645   8.881468   8.543380  10.165387
    30  C    4.748389   8.745884   9.796144   9.260487  11.083400
    31  C    5.775396   8.591599   9.471208   9.205246  10.702693
    32  C    6.055447  10.009837  11.080892  10.453231  12.342537
    33  H    4.132232   8.521221   9.607385   9.015920  10.906024
    34  C    6.895045   9.874269  10.791997  10.404773  11.999056
    35  H    6.054265   8.260554   9.031177   8.937384  10.228044
    36  C    7.016504  10.529186  11.543183  10.984171  12.772165
    37  H    6.495167  10.709943  11.828784  11.091996  13.088179
    38  O    8.298122  11.807461  12.836363  12.205915  14.041720
    39  H    8.455063  12.229053  13.307298  12.585972  14.523195
    40  O    8.075256  10.621657  11.468762  11.142489  12.617721
    41  C    9.116206  11.747062  12.518944  12.362158  13.695720
    42  H    8.929830  11.496632  12.184811  12.224684  13.390776
    43  H    9.981380  12.314809  13.046534  12.902662  14.170100
    44  H    9.443307  12.430129  13.259262  13.019658  14.465452
    45  C    2.392623   4.472663   5.184421   5.511596   6.569617
    46  H    2.479863   5.500201   6.211320   6.494652   7.595283
    47  H    3.165469   4.186674   4.647862   5.388067   6.028225
    48  O    5.010175   3.454647   4.670189   2.349750   5.055230
    49  O    4.882731   2.985198   4.192277   2.311140   4.754769
    50  N    4.877980   2.534229   3.766101   1.500787   4.233967
                   11         12         13         14         15
    11  H    0.000000
    12  C    3.882091   0.000000
    13  H    4.098864   2.555154   0.000000
    14  C    3.392720   1.405621   3.347039   0.000000
    15  H    2.457412   3.403242   4.594359   2.147925   0.000000
    16  O    4.550932   2.354683   4.393327   1.354760   2.677631
    17  H    4.553032   3.178841   5.057184   1.921719   2.310839
    18  O    5.229526   1.354895   3.238926   2.420367   4.559212
    19  C    6.123846   2.389703   3.525038   3.116446   5.185092
    20  H    6.101391   2.677345   2.885261   3.495218   5.436140
    21  H    7.101242   3.259764   4.390945   4.065224   6.166988
    22  H    6.160359   2.724437   4.054410   2.934456   4.816179
    23  C    7.363606   8.726727   7.959531   9.405183   9.619571
    24  H    7.296076   8.604329   7.532180   9.321992   9.581599
    25  C    6.371414   8.034516   7.544497   8.571121   8.616559
    26  H    6.691550   8.356262   8.173642   8.835740   8.829370
    27  C    5.016392   7.067939   6.512256   7.470725   7.346601
    28  O    4.323835   6.731593   6.537214   6.942036   6.590864
    29  C    8.732638   9.858803   9.171482  10.612507  10.928768
    30  C    9.700766  10.605484   9.677896  11.457754  11.898396
    31  C    9.307969  10.444369  10.059783  11.150582  11.422616
    32  C   11.011869  11.769172  10.917182  12.664863  13.169415
    33  H    9.528835  10.390314   9.223189  11.268545  11.741704
    34  C   10.663639  11.624196  11.259392  12.386116  12.737398
    35  H    8.826201  10.116959   9.949977  10.726902  10.888736
    36  C   11.458530  12.246657  11.656031  13.101819  13.565633
    37  H   11.790427  12.416745  11.419559  13.366522  13.943548
    38  O   12.774088  13.441322  12.898941  14.328017  14.843423
    39  H   13.268805  13.842542  13.159806  14.778304  15.354653
    40  O   11.333813  12.285629  12.161776  12.999413  13.313333
    41  C   12.291871  13.518894  13.357720  14.165415  14.334948
    42  H   11.869514  13.398096  13.195903  13.960217  13.974884
    43  H   12.832308  13.997912  14.009160  14.618345  14.784064
    44  H   13.043328  14.215758  13.910140  14.916120  15.136502
    45  C    4.846878   6.853067   5.767217   7.301189   7.232161
    46  H    5.836459   7.854687   6.575114   8.329285   8.239123
    47  H    4.149865   6.647662   5.556016   6.908069   6.581913
    48  O    5.567714   3.047611   2.456652   4.406924   6.132020
    49  O    4.976503   3.176597   3.680790   4.351489   5.797507
    50  N    4.656802   2.432423   2.524472   3.725665   5.317632
                   16         17         18         19         20
    16  O    0.000000
    17  H    0.968849   0.000000
    18  O    2.752710   3.712270   0.000000
    19  C    3.048477   3.972625   1.447010   0.000000
    20  H    3.677762   4.549101   2.091596   1.092155   0.000000
    21  H    3.869704   4.787343   2.030412   1.088176   1.783052
    22  H    2.452541   3.268399   2.099377   1.089860   1.792596
    23  C   10.716601  11.161810   9.459131  10.583575  10.333310
    24  H   10.655960  11.125238   9.342315  10.362503  10.005436
    25  C    9.865329  10.237274   8.863719  10.065458   9.909162
    26  H   10.077567  10.415805   9.160099  10.441383  10.391377
    27  C    8.786314   9.097742   8.040138   9.196448   9.013310
    28  O    8.207457   8.422200   7.784095   8.998232   8.926702
    29  C   11.895451  12.377595  10.478257  11.620698  11.398829
    30  C   12.747541  13.284945  11.147271  12.194289  11.882884
    31  C   12.385734  12.838801  11.034775  12.264976  12.154212
    32  C   13.929465  14.490138  12.229643  13.284311  12.999496
    33  H   12.574090  13.128664  10.938894  11.894818  11.493890
    34  C   13.597446  14.079606  12.128278  13.351249  13.250865
    35  H   11.932925  12.332731  10.754114  12.044999  12.011609
    36  C   14.332782  14.868518  12.692257  13.833194  13.648303
    37  H   14.630939  15.223910  12.828345  13.812590  13.470202
    38  O   15.534350  16.087803  13.820894  14.958615  14.793024
    39  H   15.994829  16.577725  14.191211  15.271109  15.050658
    40  O   14.157585  14.611011  12.761591  14.043413  14.035201
    41  C   15.336649  15.742040  14.058391  15.350865  15.333097
    42  H   15.153081  15.504990  14.034388  15.333764  15.300129
    43  H   15.742639  16.132756  14.503556  15.829584  15.878456
    44  H   16.110431  16.545444  14.732259  15.985231  15.914613
    45  C    8.653110   8.995590   7.852400   8.835591   8.480859
    46  H    9.682733  10.027053   8.823862   9.753431   9.331123
    47  H    8.243336   8.492450   7.767105   8.697913   8.339041
    48  O    5.326237   6.196337   2.950351   3.558177   3.191889
    49  O    5.380260   6.144926   3.366182   4.590734   4.666060
    50  N    4.776373   5.584956   2.679100   3.712446   3.604746
                   21         22         23         24         25
    21  H    0.000000
    22  H    1.783238   0.000000
    23  C   11.097641  11.306554   0.000000
    24  H   10.899956  11.100520   1.086072   0.000000
    25  C   10.637977  10.702660   1.351679   2.101562   0.000000
    26  H   10.981947  11.051857   2.126707   3.077275   1.086205
    27  C    9.877623   9.744265   2.500360   2.728903   1.463089
    28  O    9.722510   9.439770   3.588251   3.943225   2.336427
    29  C   12.042486  12.399814   1.456492   2.143860   2.514976
    30  C   12.568450  13.033196   2.460922   2.586383   3.743306
    31  C   12.647816  13.023852   2.523138   3.443897   3.050108
    32  C   13.586809  14.157760   3.747682   3.974377   4.938919
    33  H   12.291038  12.741589   2.658738   2.316802   4.009553
    34  C   13.662953  14.150328   3.789016   4.581855   4.432559
    35  H   12.455441  12.746046   2.784492   3.842960   2.796571
    36  C   14.107989  14.688883   4.274268   4.797407   5.227008
    37  H   14.083550  14.718272   4.611807   4.643816   5.874621
    38  O   15.175024  15.838450   5.632288   6.138612   6.556188
    39  H   15.468937  16.179815   6.053499   6.411281   7.099730
    40  O   14.321957  14.817161   4.903064   5.799269   5.288669
    41  C   15.667301  16.096999   5.805024   6.673688   6.174866
    42  H   15.722140  16.033891   5.525044   6.403033   5.791607
    43  H   16.114330  16.559529   6.676609   7.598765   6.915659
    44  H   16.285320  16.767212   6.227516   6.981000   6.787828
    45  C    9.569806   9.392511   3.025239   2.649127   2.600999
    46  H   10.472429  10.335870   2.820319   2.213554   2.792852
    47  H    9.521975   9.143882   4.043725   3.700912   3.447716
    48  O    3.893144   4.534132   7.440014   7.132292   7.202541
    49  O    4.926407   5.414796   6.335403   6.333463   5.865539
    50  N    4.185115   4.555815   6.916524   6.745123   6.487778
                   26         27         28         29         30
    26  H    0.000000
    27  C    2.143582   0.000000
    28  O    2.518645   1.227374   0.000000
    29  C    2.801171   3.874199   4.851356   0.000000
    30  C    4.180149   4.954681   6.042595   1.404394   0.000000
    31  C    2.798053   4.513150   5.240839   1.409078   2.410814
    32  C    5.182070   6.243595   7.271978   2.432777   1.389188
    33  H    4.675104   4.985164   6.162979   2.156681   1.085036
    34  C    4.140924   5.895414   6.614662   2.438157   2.792250
    35  H    2.180259   4.196531   4.697580   2.176298   3.406461
    36  C    5.177773   6.650562   7.528520   2.818640   2.414742
    37  H    6.204927   7.105434   8.187913   3.415993   2.151462
    38  O    6.431864   7.991470   8.836213   4.176299   3.674575
    39  H    7.095787   8.495756   9.418808   4.624753   3.841773
    40  O    4.746821   6.728594   7.264219   3.681212   4.162416
    41  C    5.614272   7.586277   8.084075   4.600023   4.986289
    42  H    5.220927   7.136930   7.587422   4.476973   5.009010
    43  H    6.236867   8.297797   8.681840   5.524942   5.985507
    44  H    6.359794   8.219361   8.827574   4.911680   4.996139
    45  C    3.540691   1.536942   2.393004   4.476128   5.218131
    46  H    3.817294   2.172118   3.180704   4.180519   4.737184
    47  H    4.253869   2.127414   2.482366   5.496229   6.267834
    48  O    7.730464   6.582292   6.778298   8.376139   8.788129
    49  O    6.153328   5.379965   5.397120   7.214839   7.892538
    50  N    6.914476   5.806018   5.842984   7.911552   8.504861
                   31         32         33         34         35
    31  C    0.000000
    32  C    2.782955   0.000000
    33  H    3.398177   2.141351   0.000000
    34  C    1.384629   2.425431   3.877270   0.000000
    35  H    1.084314   3.866815   4.313657   2.115600   0.000000
    36  C    2.416697   1.394929   3.393096   1.412248   3.385160
    37  H    3.869623   1.086696   2.467625   3.409758   4.953406
    38  O    3.636737   2.418003   4.554318   2.370763   4.484712
    39  H    4.334859   2.462902   4.550396   3.190280   5.269579
    40  O    2.380402   3.683835   5.247329   1.371107   2.569892
    41  C    3.367118   4.383980   6.044934   2.374957   3.497743
    42  H    3.306483   4.630202   6.021759   2.684431   3.294507
    43  H    4.207520   5.370893   7.058147   3.263406   4.154852
    44  H    3.869286   4.148785   6.005235   2.682086   4.247941
    45  C    5.450246   6.597671   4.919967   6.781778   5.376503
    46  H    5.286048   6.113984   4.331435   6.548398   5.371048
    47  H    6.401007   7.645238   5.956376   7.752738   6.230079
    48  O    9.154995   9.852292   8.436587  10.184989   9.127596
    49  O    7.737283   8.922068   7.793943   8.786671   7.531056
    50  N    8.581654   9.605180   8.265359   9.675506   8.427426
                   36         37         38         39         40
    36  C    0.000000
    37  H    2.149464   0.000000
    38  O    1.358707   2.673997   0.000000
    39  H    1.921303   2.298408   0.968453   0.000000
    40  O    2.420930   4.565291   2.746209   3.707382   0.000000
    41  C    3.103509   5.147382   3.079697   3.989028   1.436995
    42  H    3.543156   5.455078   3.792169   4.648105   2.087742
    43  H    4.035187   6.114360   3.834665   4.740276   2.031249
    44  H    2.885608   4.721074   2.495140   3.284436   2.098376
    45  C    7.283494   7.292125   8.641494   9.001461   7.792272
    46  H    6.908675   6.732441   8.254775   8.545805   7.651575
    47  H    8.308453   8.338685   9.667015  10.043610   8.708723
    48  O   10.505820  10.315217  11.629342  11.866806  11.024037
    49  O    9.334502   9.563860  10.456745  10.844539   9.454243
    50  N   10.148019  10.183009  11.306520  11.636685  10.435169
                   41         42         43         44         45
    41  C    0.000000
    42  H    1.094741   0.000000
    43  H    1.089546   1.782526   0.000000
    44  H    1.091708   1.790267   1.780561   0.000000
    45  C    8.650378   8.216326   9.457167   9.153891   0.000000
    46  H    8.407153   7.937780   9.291674   8.806852   1.090065
    47  H    9.511107   9.005599  10.290120  10.052204   1.090697
    48  O   12.343099  12.374741  12.932662  12.859549   6.135675
    49  O   10.772502  10.800203  11.259342  11.405161   5.437832
    50  N   11.730779  11.712334  12.275644  12.327704   5.562116
                   46         47         48         49         50
    46  H    0.000000
    47  H    1.766075   0.000000
    48  O    6.918489   6.345255   0.000000
    49  O    6.350702   5.749858   2.166426   0.000000
    50  N    6.461771   5.725927   1.219636   1.222048   0.000000
 Stoichiometry    C21H20NO8(2)
 Framework group  C1[X(C21H20NO8)]
 Deg. of freedom   144
 Full point group                 C1      NOp   1
 Largest Abelian subgroup         C1      NOp   1
 Largest concise Abelian subgroup C1      NOp   1
                         Standard orientation:                         
 ---------------------------------------------------------------------
 Center     Atomic      Atomic             Coordinates (Angstroms)
 Number     Number       Type             X           Y           Z
 ---------------------------------------------------------------------
      1          6           0        2.237520    1.132490    0.670090
      2          1           0        1.856243    2.121726    0.438253
      3          6           0        1.499557    0.325122    1.459080
      4          1           0        1.842738   -0.657720    1.764575
      5          6           0        0.183448    0.671164    2.018292
      6          8           0       -0.394379   -0.128008    2.744948
      7          6           0        3.548895    0.876085    0.091118
      8          6           0        4.320595    1.976524   -0.299197
      9          6           0        4.179074   -0.393421   -0.025180
     10          6           0        5.603717    1.840084   -0.814975
     11          1           0        3.900122    2.969905   -0.189284
     12          6           0        5.437001   -0.567700   -0.629717
     13          1           0        4.720609   -0.505942    1.822176
     14          6           0        6.165996    0.577006   -0.995758
     15          1           0        6.164486    2.721824   -1.111231
     16          8           0        7.382087    0.379504   -1.559220
     17          1           0        7.779373    1.225674   -1.813835
     18          8           0        5.865325   -1.822954   -0.906513
     19          6           0        7.009977   -2.305479   -0.164368
     20          1           0        6.798962   -2.285740    0.907026
     21          1           0        7.157433   -3.333001   -0.490836
     22          1           0        7.897029   -1.713554   -0.389219
     23          6           0       -3.064847    0.791559    0.793929
     24          1           0       -2.721786    0.653561    1.815114
     25          6           0       -2.301538    1.515148   -0.055079
     26          1           0       -2.601693    1.667626   -1.087793
     27          6           0       -1.025308    2.145113    0.284053
     28          8           0       -0.403295    2.779067   -0.563088
     29          6           0       -4.331801    0.137332    0.496973
     30          6           0       -4.951399   -0.619897    1.504458
     31          6           0       -4.976420    0.226242   -0.752852
     32          6           0       -6.155804   -1.272619    1.273797
     33          1           0       -4.477159   -0.706122    2.476551
     34          6           0       -6.180454   -0.413472   -0.994236
     35          1           0       -4.543467    0.798825   -1.565525
     36          6           0       -6.776418   -1.184894    0.027615
     37          1           0       -6.615222   -1.865603    2.060063
     38          8           0       -7.940533   -1.822894   -0.262002
     39          1           0       -8.246337   -2.325316    0.507386
     40          8           0       -6.740117   -0.349377   -2.244277
     41          6           0       -7.934171    0.443461   -2.347219
     42          1           0       -7.720795    1.487889   -2.098023
     43          1           0       -8.254126    0.377759   -3.386653
     44          1           0       -8.724573    0.060216   -1.698979
     45          6           0       -0.459206    2.027296    1.708075
     46          1           0       -1.248193    2.180758    2.444411
     47          1           0        0.274475    2.825905    1.824500
     48          8           0        3.613505   -2.486539    0.880532
     49          8           0        2.500529   -1.762385   -0.831276
     50          7           0        3.360918   -1.650407    0.029301
 ---------------------------------------------------------------------
 Rotational constants (GHZ):           0.3380068           0.0476274           0.0465493
 Standard basis: 6-311G(d) (5D, 7F)
 There are   630 symmetry adapted cartesian basis functions of A   symmetry.
 There are   600 symmetry adapted basis functions of A   symmetry.
   600 basis functions,  1060 primitive gaussians,   630 cartesian basis functions
   109 alpha electrons      108 beta electrons
       nuclear repulsion energy      2692.0067589913 Hartrees.
 NAtoms=   50 NActive=   50 NUniq=   50 SFac= 1.00D+00 NAtFMM=   60 NAOKFM=F Big=F
 Integral buffers will be    131072 words long.
 Raffenetti 2 integral format.
 Two-electron integral symmetry is turned on.
 Force inversion solution in PCM.
 Using the following non-standard input for PCM:
 Eps=7
 EpsInf=1.85341
 HbondAcidity=0
 HbondBasicity=0.48
 SurfaceTensionAtInterface=60.62
 CarbonAromaticity=0
 ElectronegativeHalogenicity=0
 --- end of non-standard input.
 Force inversion solution in PCM.
 ------------------------------------------------------------------------------
 Polarizable Continuum Model (PCM)
 =================================
 Model                : PCM.
 Atomic radii         : SMD-Coulomb.
 Polarization charges : Total charges.
 Charge compensation  : None.
 Solution method      : Matrix inversion.
 Cavity type          : VdW (van der Waals Surface) (Alpha=1.000).
 Cavity algorithm     : GePol (No added spheres)
                        Default sphere list used, NSphG=   50.
                        Lebedev-Laikov grids with approx.  5.0 points / Ang**2.
                        Smoothing algorithm: York/Karplus (Gamma=1.0000).
                        Polarization charges: spherical gaussians, with
                                              point-specific exponents (IZeta= 3).
                        Self-potential: point-specific (ISelfS= 7).
                        Self-field    : sphere-specific E.n sum rule (ISelfD= 2).
 1st derivatives      : Analytical E(r).r(x)/FMM algorithm (CHGder, D1EAlg=3).
                        Cavity 1st derivative terms included.
 2nd derivatives      : Analytical E(r).r(xy)/FMM algorithm (CHGder, D2EAlg=3).
                        Cavity 2nd derivative terms included.
 Solvent              : Generic,
                        Eps                           =   7.000000
                        Eps(infinity)                 =   1.853410
                        RSolv                         =   0.000000 Ang.
                        Molar volume                  =   0.000000 cm**3/mol
                        Thermal expansion coefficient =   0.000000 K**-1
                        Absolute temperature          = 298.150000 K
                        Numeral density               =   0.000000 Ang**-3
                        Hydrogen bond acidity         =   0.000000
                        Hydrogen bond basicity        =   0.480000
                        Surface tension at interface  =  60.620000 (cal/mol)*Ang**-2
                        Carbon aromaticity            =   0.000000
                        Electronegative halogenicity  =   0.000000
 ------------------------------------------------------------------------------
 ------------------------------------------------------------------------------
 Atomic radii for non-electrostatic terms: SMD-CDS.
 ------------------------------------------------------------------------------
 Nuclear repulsion after PCM non-electrostatic terms =     2692.0032952027 Hartrees.
 One-electron integrals computed using PRISM.
 NBasis=   600 RedAO= T EigKep=  1.66D-04  NBF=   600
 NBsUse=   600 1.00D-06 EigRej= -1.00D+00 NBFU=   600
 ExpMin= 1.03D-01 ExpMax= 8.59D+03 ExpMxC= 1.30D+03 IAcc=3 IRadAn=         5 AccDes= 0.00D+00
 Harris functional with IExCor=  402 and IRadAn=       5 diagonalized for initial guess.
 HarFok:  IExCor=  402 AccDes= 0.00D+00 IRadAn=         5 IDoV= 1 UseB2=F ITyADJ=14
 ICtDFT=  3500011 ScaDFX=  1.000000  1.000000  1.000000  1.000000
 FoFCou: FMM=F IPFlag=           0 FMFlag=      100000 FMFlg1=           0
         NFxFlg=           0 DoJE=T BraDBF=F KetDBF=T FulRan=T
         wScrn=  0.000000 ICntrl=       500 IOpCl=  0 I1Cent=   200000004 NGrid=           0
         NMat0=    1 NMatS0=      1 NMatT0=    0 NMatD0=    1 NMtDS0=    0 NMtDT0=    0
 Petite list used in FoFCou.
 Initial guess <Sx>= 0.0000 <Sy>= 0.0000 <Sz>= 0.5000 <S**2>= 0.7500 S= 0.5000
 Requested convergence on RMS density matrix=1.00D-08 within 128 cycles.
 Requested convergence on MAX density matrix=1.00D-06.
 Requested convergence on             energy=1.00D-06.
 No special actions if energy rises.
 Inv3:  Mode=1 IEnd=    50135232.
 Iteration    1 A*A^-1 deviation from unit magnitude is 3.33D-15 for   2466.
 Iteration    1 A*A^-1 deviation from orthogonality  is 3.65D-15 for   1152   1037.
 Iteration    1 A^-1*A deviation from unit magnitude is 3.33D-15 for   2466.
 Iteration    1 A^-1*A deviation from orthogonality  is 4.44D-15 for   2882   2672.
 EnCoef did     1 forward-backward iterations
 Restarting incremental Fock formation.
 Error on total polarization charges =  0.03740
 SCF Done:  E(UB3LYP) =  -1468.91166063     A.U. after   23 cycles
            NFock= 23  Conv=0.74D-08     -V/T= 2.0034
 <Sx>= 0.0000 <Sy>= 0.0000 <Sz>= 0.5000 <S**2>= 0.7652 S= 0.5076
 <L.S>=  0.00000000000    
 SMD-CDS (non-electrostatic) energy       (kcal/mol) =      -2.17
 (included in total energy above)
 Annihilation of the first spin contaminant:
 S**2 before annihilation     0.7652,   after     0.7501
 DoSCS=F DFT=T ScalE2(SS,OS)=  1.000000  1.000000
 Range of M.O.s used for correlation:     1   600
 NBasis=   600 NAE=   109 NBE=   108 NFC=     0 NFV=     0
 NROrb=    600 NOA=   109 NOB=   108 NVA=   491 NVB=   492

 **** Warning!!: The largest alpha MO coefficient is  0.14968878D+02


 **** Warning!!: The largest beta MO coefficient is  0.14681162D+02

 Symmetrizing basis deriv contribution to polar:
 IMax=3 JMax=2 DiffMx= 0.00D+00
 G2DrvN: will do    26 centers at a time, making    2 passes.
 Calling FoFCou, ICntrl=  3107 FMM=F I1Cent=   0 AccDes= 0.00D+00.
 Calling FoFCou, ICntrl=  3107 FMM=F I1Cent=   0 AccDes= 0.00D+00.
 NEqPCM:  Using equilibrium solvation (IEInf=0, Eps=   7.0000, EpsInf=   1.8534)
 G2PCM: DoFxE=T DoFxN=T DoGrad=T DoDP/DQ/DG/TGxP=FFFF NFrqRd=   0 IEInf=0 SqF1=F DoCFld=F IF1Alg=4.
 End of G2Drv F.D. properties file   721 does not exist.
 End of G2Drv F.D. properties file   722 does not exist.
 End of G2Drv F.D. properties file   788 does not exist.
          IDoAtm=11111111111111111111111111111111111111111111111111
 NEqPCM:  Using equilibrium solvation (IEInf=0, Eps=   7.0000, EpsInf=   1.8534)
          Differentiating once with respect to nuclear coordinates.
 CalDSu exits because no D1Ps are significant.
          There are   153 degrees of freedom in the 1st order CPHF.  IDoFFX=6 NUNeed=     0.
    150 vectors produced by pass  0 Test12= 1.07D-13 1.00D-09 XBig12= 3.58D-01 1.96D-01.
 AX will form    50 AO Fock derivatives at one time.
    150 vectors produced by pass  1 Test12= 1.07D-13 1.00D-09 XBig12= 4.60D-02 3.17D-02.
    148 vectors produced by pass  2 Test12= 1.07D-13 1.00D-09 XBig12= 9.26D-04 3.85D-03.
    147 vectors produced by pass  3 Test12= 1.07D-13 1.00D-09 XBig12= 9.43D-06 3.98D-04.
    147 vectors produced by pass  4 Test12= 1.07D-13 1.00D-09 XBig12= 5.57D-08 2.21D-05.
    144 vectors produced by pass  5 Test12= 1.07D-13 1.00D-09 XBig12= 2.87D-10 1.42D-06.
     97 vectors produced by pass  6 Test12= 1.07D-13 1.00D-09 XBig12= 1.79D-12 8.76D-08.
     22 vectors produced by pass  7 Test12= 1.07D-13 1.00D-09 XBig12= 6.87D-15 4.84D-09.
      8 vectors produced by pass  8 Test12= 1.07D-13 1.00D-09 XBig12= 6.31D-15 3.95D-09.
      1 vectors produced by pass  9 Test12= 1.07D-13 1.00D-09 XBig12= 1.53D-15 2.23D-09.
 InvSVY:  IOpt=1 It=  1 EMax= 8.88D-16
 Solved reduced A of dimension  1014 with   153 vectors.
 End of Minotr F.D. properties file   721 does not exist.
 End of Minotr F.D. properties file   722 does not exist.
 End of Minotr F.D. properties file   788 does not exist.

 **********************************************************************

            Population analysis using the SCF density.

 **********************************************************************

 Orbital symmetries:
 Alpha Orbitals:
       Occupied  (A) (A) (A) (A) (A) (A) (A) (A) (A) (A) (A) (A)
                 (A) (A) (A) (A) (A) (A) (A) (A) (A) (A) (A) (A)
                 (A) (A) (A) (A) (A) (A) (A) (A) (A) (A) (A) (A)
                 (A) (A) (A) (A) (A) (A) (A) (A) (A) (A) (A) (A)
                 (A) (A) (A) (A) (A) (A) (A) (A) (A) (A) (A) (A)
                 (A) (A) (A) (A) (A) (A) (A) (A) (A) (A) (A) (A)
                 (A) (A) (A) (A) (A) (A) (A) (A) (A) (A) (A) (A)
                 (A) (A) (A) (A) (A) (A) (A) (A) (A) (A) (A) (A)
                 (A) (A) (A) (A) (A) (A) (A) (A) (A) (A) (A) (A)
                 (A)
       Virtual   (A) (A) (A) (A) (A) (A) (A) (A) (A) (A) (A) (A)
                 (A) (A) (A) (A) (A) (A) (A) (A) (A) (A) (A) (A)
                 (A) (A) (A) (A) (A) (A) (A) (A) (A) (A) (A) (A)
                 (A) (A) (A) (A) (A) (A) (A) (A) (A) (A) (A) (A)
                 (A) (A) (A) (A) (A) (A) (A) (A) (A) (A) (A) (A)
                 (A) (A) (A) (A) (A) (A) (A) (A) (A) (A) (A) (A)
                 (A) (A) (A) (A) (A) (A) (A) (A) (A) (A) (A) (A)
                 (A) (A) (A) (A) (A) (A) (A) (A) (A) (A) (A) (A)
                 (A) (A) (A) (A) (A) (A) (A) (A) (A) (A) (A) (A)
                 (A) (A) (A) (A) (A) (A) (A) (A) (A) (A) (A) (A)
                 (A) (A) (A) (A) (A) (A) (A) (A) (A) (A) (A) (A)
                 (A) (A) (A) (A) (A) (A) (A) (A) (A) (A) (A) (A)
                 (A) (A) (A) (A) (A) (A) (A) (A) (A) (A) (A) (A)
                 (A) (A) (A) (A) (A) (A) (A) (A) (A) (A) (A) (A)
                 (A) (A) (A) (A) (A) (A) (A) (A) (A) (A) (A) (A)
                 (A) (A) (A) (A) (A) (A) (A) (A) (A) (A) (A) (A)
                 (A) (A) (A) (A) (A) (A) (A) (A) (A) (A) (A) (A)
                 (A) (A) (A) (A) (A) (A) (A) (A) (A) (A) (A) (A)
                 (A) (A) (A) (A) (A) (A) (A) (A) (A) (A) (A) (A)
                 (A) (A) (A) (A) (A) (A) (A) (A) (A) (A) (A) (A)
                 (A) (A) (A) (A) (A) (A) (A) (A) (A) (A) (A) (A)
                 (A) (A) (A) (A) (A) (A) (A) (A) (A) (A) (A) (A)
                 (A) (A) (A) (A) (A) (A) (A) (A) (A) (A) (A) (A)
                 (A) (A) (A) (A) (A) (A) (A) (A) (A) (A) (A) (A)
                 (A) (A) (A) (A) (A) (A) (A) (A) (A) (A) (A) (A)
                 (A) (A) (A) (A) (A) (A) (A) (A) (A) (A) (A) (A)
                 (A) (A) (A) (A) (A) (A) (A) (A) (A) (A) (A) (A)
                 (A) (A) (A) (A) (A) (A) (A) (A) (A) (A) (A) (A)
                 (A) (A) (A) (A) (A) (A) (A) (A) (A) (A) (A) (A)
                 (A) (A) (A) (A) (A) (A) (A) (A) (A) (A) (A) (A)
                 (A) (A) (A) (A) (A) (A) (A) (A) (A) (A) (A) (A)
                 (A) (A) (A) (A) (A) (A) (A) (A) (A) (A) (A) (A)
                 (A) (A) (A) (A) (A) (A) (A) (A) (A) (A) (A) (A)
                 (A) (A) (A) (A) (A) (A) (A) (A) (A) (A) (A) (A)
                 (A) (A) (A) (A) (A) (A) (A) (A) (A) (A) (A) (A)
                 (A) (A) (A) (A) (A) (A) (A) (A) (A) (A) (A) (A)
                 (A) (A) (A) (A) (A) (A) (A) (A) (A) (A) (A) (A)
                 (A) (A) (A) (A) (A) (A) (A) (A) (A) (A) (A) (A)
                 (A) (A) (A) (A) (A) (A) (A) (A) (A) (A) (A) (A)
                 (A) (A) (A) (A) (A) (A) (A) (A) (A) (A) (A) (A)
                 (A) (A) (A) (A) (A) (A) (A) (A) (A) (A) (A)
 Beta  Orbitals:
       Occupied  (A) (A) (A) (A) (A) (A) (A) (A) (A) (A) (A) (A)
                 (A) (A) (A) (A) (A) (A) (A) (A) (A) (A) (A) (A)
                 (A) (A) (A) (A) (A) (A) (A) (A) (A) (A) (A) (A)
                 (A) (A) (A) (A) (A) (A) (A) (A) (A) (A) (A) (A)
                 (A) (A) (A) (A) (A) (A) (A) (A) (A) (A) (A) (A)
                 (A) (A) (A) (A) (A) (A) (A) (A) (A) (A) (A) (A)
                 (A) (A) (A) (A) (A) (A) (A) (A) (A) (A) (A) (A)
                 (A) (A) (A) (A) (A) (A) (A) (A) (A) (A) (A) (A)
                 (A) (A) (A) (A) (A) (A) (A) (A) (A) (A) (A) (A)
       Virtual   (A) (A) (A) (A) (A) (A) (A) (A) (A) (A) (A) (A)
                 (A) (A) (A) (A) (A) (A) (A) (A) (A) (A) (A) (A)
                 (A) (A) (A) (A) (A) (A) (A) (A) (A) (A) (A) (A)
                 (A) (A) (A) (A) (A) (A) (A) (A) (A) (A) (A) (A)
                 (A) (A) (A) (A) (A) (A) (A) (A) (A) (A) (A) (A)
                 (A) (A) (A) (A) (A) (A) (A) (A) (A) (A) (A) (A)
                 (A) (A) (A) (A) (A) (A) (A) (A) (A) (A) (A) (A)
                 (A) (A) (A) (A) (A) (A) (A) (A) (A) (A) (A) (A)
                 (A) (A) (A) (A) (A) (A) (A) (A) (A) (A) (A) (A)
                 (A) (A) (A) (A) (A) (A) (A) (A) (A) (A) (A) (A)
                 (A) (A) (A) (A) (A) (A) (A) (A) (A) (A) (A) (A)
                 (A) (A) (A) (A) (A) (A) (A) (A) (A) (A) (A) (A)
                 (A) (A) (A) (A) (A) (A) (A) (A) (A) (A) (A) (A)
                 (A) (A) (A) (A) (A) (A) (A) (A) (A) (A) (A) (A)
                 (A) (A) (A) (A) (A) (A) (A) (A) (A) (A) (A) (A)
                 (A) (A) (A) (A) (A) (A) (A) (A) (A) (A) (A) (A)
                 (A) (A) (A) (A) (A) (A) (A) (A) (A) (A) (A) (A)
                 (A) (A) (A) (A) (A) (A) (A) (A) (A) (A) (A) (A)
                 (A) (A) (A) (A) (A) (A) (A) (A) (A) (A) (A) (A)
                 (A) (A) (A) (A) (A) (A) (A) (A) (A) (A) (A) (A)
                 (A) (A) (A) (A) (A) (A) (A) (A) (A) (A) (A) (A)
                 (A) (A) (A) (A) (A) (A) (A) (A) (A) (A) (A) (A)
                 (A) (A) (A) (A) (A) (A) (A) (A) (A) (A) (A) (A)
                 (A) (A) (A) (A) (A) (A) (A) (A) (A) (A) (A) (A)
                 (A) (A) (A) (A) (A) (A) (A) (A) (A) (A) (A) (A)
                 (A) (A) (A) (A) (A) (A) (A) (A) (A) (A) (A) (A)
                 (A) (A) (A) (A) (A) (A) (A) (A) (A) (A) (A) (A)
                 (A) (A) (A) (A) (A) (A) (A) (A) (A) (A) (A) (A)
                 (A) (A) (A) (A) (A) (A) (A) (A) (A) (A) (A) (A)
                 (A) (A) (A) (A) (A) (A) (A) (A) (A) (A) (A) (A)
                 (A) (A) (A) (A) (A) (A) (A) (A) (A) (A) (A) (A)
                 (A) (A) (A) (A) (A) (A) (A) (A) (A) (A) (A) (A)
                 (A) (A) (A) (A) (A) (A) (A) (A) (A) (A) (A) (A)
                 (A) (A) (A) (A) (A) (A) (A) (A) (A) (A) (A) (A)
                 (A) (A) (A) (A) (A) (A) (A) (A) (A) (A) (A) (A)
                 (A) (A) (A) (A) (A) (A) (A) (A) (A) (A) (A) (A)
                 (A) (A) (A) (A) (A) (A) (A) (A) (A) (A) (A) (A)
                 (A) (A) (A) (A) (A) (A) (A) (A) (A) (A) (A) (A)
                 (A) (A) (A) (A) (A) (A) (A) (A) (A) (A) (A) (A)
                 (A) (A) (A) (A) (A) (A) (A) (A) (A) (A) (A) (A)
                 (A) (A) (A) (A) (A) (A) (A) (A) (A) (A) (A) (A)
 The electronic state is 2-A.
 Alpha  occ. eigenvalues --  -19.17133 -19.16469 -19.16374 -19.16067 -19.15376
 Alpha  occ. eigenvalues --  -19.13375 -19.10613 -19.10113 -14.55955 -10.26344
 Alpha  occ. eigenvalues --  -10.26238 -10.26066 -10.25929 -10.25695 -10.24745
 Alpha  occ. eigenvalues --  -10.23184 -10.21445 -10.21372 -10.20672 -10.20212
 Alpha  occ. eigenvalues --  -10.19767 -10.19650 -10.19444 -10.18758 -10.18255
 Alpha  occ. eigenvalues --  -10.18232 -10.17985 -10.17967 -10.17660 -10.17232
 Alpha  occ. eigenvalues --   -1.24625  -1.09462  -1.08065  -1.07243  -1.06837
 Alpha  occ. eigenvalues --   -1.04842  -1.04192  -1.03498  -0.89742  -0.86800
 Alpha  occ. eigenvalues --   -0.82190  -0.81213  -0.80869  -0.77649  -0.76158
 Alpha  occ. eigenvalues --   -0.75600  -0.73267  -0.71909  -0.69941  -0.68897
 Alpha  occ. eigenvalues --   -0.66272  -0.65700  -0.62700  -0.62200  -0.61224
 Alpha  occ. eigenvalues --   -0.58655  -0.57756  -0.56710  -0.55849  -0.54669
 Alpha  occ. eigenvalues --   -0.53142  -0.52993  -0.52731  -0.51771  -0.51182
 Alpha  occ. eigenvalues --   -0.50670  -0.49986  -0.48776  -0.48291  -0.47816
 Alpha  occ. eigenvalues --   -0.47334  -0.46195  -0.45625  -0.44890  -0.44365
 Alpha  occ. eigenvalues --   -0.44067  -0.43954  -0.43068  -0.42885  -0.42512
 Alpha  occ. eigenvalues --   -0.41814  -0.41190  -0.40704  -0.40161  -0.39462
 Alpha  occ. eigenvalues --   -0.39122  -0.38833  -0.38471  -0.37742  -0.37435
 Alpha  occ. eigenvalues --   -0.36866  -0.36395  -0.36060  -0.35932  -0.34143
 Alpha  occ. eigenvalues --   -0.33155  -0.32853  -0.32049  -0.30091  -0.29830
 Alpha  occ. eigenvalues --   -0.29250  -0.29108  -0.28231  -0.26520  -0.25319
 Alpha  occ. eigenvalues --   -0.24738  -0.23869  -0.22479  -0.22031
 Alpha virt. eigenvalues --   -0.09001  -0.07904  -0.06841  -0.03083  -0.01337
 Alpha virt. eigenvalues --   -0.00446   0.01287   0.03244   0.03847   0.05312
 Alpha virt. eigenvalues --    0.05871   0.06457   0.06987   0.07533   0.07765
 Alpha virt. eigenvalues --    0.07976   0.08327   0.09305   0.10457   0.10855
 Alpha virt. eigenvalues --    0.11813   0.12134   0.12342   0.12377   0.12805
 Alpha virt. eigenvalues --    0.13237   0.13841   0.14382   0.14952   0.16279
 Alpha virt. eigenvalues --    0.16781   0.17027   0.17146   0.18881   0.20359
 Alpha virt. eigenvalues --    0.21126   0.22007   0.23152   0.23627   0.24661
 Alpha virt. eigenvalues --    0.25680   0.26263   0.26613   0.26778   0.27537
 Alpha virt. eigenvalues --    0.27955   0.28939   0.29301   0.30075   0.30448
 Alpha virt. eigenvalues --    0.31035   0.31096   0.31953   0.32968   0.33204
 Alpha virt. eigenvalues --    0.33882   0.34108   0.35022   0.35202   0.35766
 Alpha virt. eigenvalues --    0.36013   0.36397   0.37231   0.37584   0.37867
 Alpha virt. eigenvalues --    0.38151   0.38589   0.39208   0.39958   0.40044
 Alpha virt. eigenvalues --    0.40649   0.41208   0.41857   0.42025   0.42250
 Alpha virt. eigenvalues --    0.42851   0.42933   0.43233   0.43459   0.44403
 Alpha virt. eigenvalues --    0.44959   0.45026   0.45310   0.45975   0.46171
 Alpha virt. eigenvalues --    0.46521   0.46899   0.47697   0.48396   0.48723
 Alpha virt. eigenvalues --    0.49425   0.49947   0.50635   0.51740   0.52101
 Alpha virt. eigenvalues --    0.52242   0.52471   0.53043   0.54514   0.54780
 Alpha virt. eigenvalues --    0.55228   0.55813   0.56611   0.57148   0.57833
 Alpha virt. eigenvalues --    0.57992   0.58216   0.58810   0.59041   0.59849
 Alpha virt. eigenvalues --    0.60289   0.60498   0.61290   0.61783   0.62143
 Alpha virt. eigenvalues --    0.62234   0.62461   0.62714   0.62914   0.63875
 Alpha virt. eigenvalues --    0.64151   0.64485   0.65116   0.65597   0.66243
 Alpha virt. eigenvalues --    0.67142   0.67183   0.68273   0.68733   0.69533
 Alpha virt. eigenvalues --    0.70520   0.70930   0.71434   0.73698   0.73797
 Alpha virt. eigenvalues --    0.75047   0.75335   0.75861   0.76265   0.76856
 Alpha virt. eigenvalues --    0.77798   0.78110   0.78295   0.79317   0.79440
 Alpha virt. eigenvalues --    0.80283   0.80682   0.81203   0.81589   0.82168
 Alpha virt. eigenvalues --    0.83122   0.83530   0.84158   0.85185   0.85353
 Alpha virt. eigenvalues --    0.85752   0.86344   0.87377   0.88056   0.88631
 Alpha virt. eigenvalues --    0.88906   0.89425   0.90224   0.91199   0.91387
 Alpha virt. eigenvalues --    0.92480   0.93873   0.94614   0.95365   0.95495
 Alpha virt. eigenvalues --    0.96603   0.96803   0.97890   0.98076   0.98986
 Alpha virt. eigenvalues --    0.99995   1.00357   1.01983   1.02888   1.04644
 Alpha virt. eigenvalues --    1.05120   1.05438   1.06554   1.07411   1.07844
 Alpha virt. eigenvalues --    1.08914   1.09135   1.10333   1.11332   1.11760
 Alpha virt. eigenvalues --    1.13471   1.14035   1.14979   1.15253   1.16029
 Alpha virt. eigenvalues --    1.17039   1.19478   1.19962   1.20871   1.21503
 Alpha virt. eigenvalues --    1.23325   1.23772   1.24138   1.24735   1.25550
 Alpha virt. eigenvalues --    1.26384   1.27280   1.28737   1.30410   1.32985
 Alpha virt. eigenvalues --    1.35132   1.37232   1.37590   1.38821   1.40568
 Alpha virt. eigenvalues --    1.41819   1.43744   1.44662   1.45305   1.46440
 Alpha virt. eigenvalues --    1.47133   1.47555   1.48931   1.49966   1.50847
 Alpha virt. eigenvalues --    1.51347   1.52535   1.52682   1.53040   1.53337
 Alpha virt. eigenvalues --    1.54003   1.54641   1.55189   1.56038   1.56478
 Alpha virt. eigenvalues --    1.56986   1.57908   1.58291   1.59360   1.60559
 Alpha virt. eigenvalues --    1.61425   1.62050   1.62616   1.64028   1.66166
 Alpha virt. eigenvalues --    1.67095   1.67754   1.68191   1.68984   1.70229
 Alpha virt. eigenvalues --    1.70422   1.70483   1.71516   1.72280   1.72870
 Alpha virt. eigenvalues --    1.74359   1.75295   1.75880   1.76690   1.77988
 Alpha virt. eigenvalues --    1.78685   1.79310   1.80262   1.80990   1.82454
 Alpha virt. eigenvalues --    1.83098   1.83981   1.84301   1.85167   1.87332
 Alpha virt. eigenvalues --    1.88918   1.89285   1.90884   1.92106   1.93816
 Alpha virt. eigenvalues --    1.94823   1.96165   1.98692   1.99978   2.00756
 Alpha virt. eigenvalues --    2.02436   2.02663   2.05091   2.05398   2.07510
 Alpha virt. eigenvalues --    2.09301   2.10792   2.10967   2.13556   2.14270
 Alpha virt. eigenvalues --    2.15273   2.15968   2.17018   2.19097   2.22517
 Alpha virt. eigenvalues --    2.24233   2.24782   2.26911   2.27154   2.27935
 Alpha virt. eigenvalues --    2.28871   2.29403   2.30753   2.31325   2.31814
 Alpha virt. eigenvalues --    2.32083   2.33103   2.34390   2.35708   2.37506
 Alpha virt. eigenvalues --    2.38128   2.38613   2.38712   2.40121   2.41020
 Alpha virt. eigenvalues --    2.44248   2.46077   2.47140   2.48868   2.50244
 Alpha virt. eigenvalues --    2.51150   2.52416   2.53435   2.55381   2.58057
 Alpha virt. eigenvalues --    2.60500   2.63817   2.64025   2.65281   2.66147
 Alpha virt. eigenvalues --    2.66836   2.67983   2.69221   2.70220   2.72744
 Alpha virt. eigenvalues --    2.74214   2.75374   2.76475   2.77390   2.79173
 Alpha virt. eigenvalues --    2.79516   2.81087   2.82408   2.83116   2.83553
 Alpha virt. eigenvalues --    2.84959   2.85567   2.86228   2.88142   2.89125
 Alpha virt. eigenvalues --    2.91573   2.92664   2.93703   2.94091   2.94522
 Alpha virt. eigenvalues --    2.94927   2.95269   2.95821   2.97089   2.98521
 Alpha virt. eigenvalues --    2.98897   2.99401   3.01504   3.01944   3.03553
 Alpha virt. eigenvalues --    3.03956   3.05228   3.06816   3.09080   3.10368
 Alpha virt. eigenvalues --    3.11748   3.12389   3.13762   3.14076   3.14344
 Alpha virt. eigenvalues --    3.14651   3.14812   3.15545   3.16642   3.18406
 Alpha virt. eigenvalues --    3.19518   3.19875   3.24534   3.25445   3.25485
 Alpha virt. eigenvalues --    3.26759   3.29073   3.29486   3.29811   3.30470
 Alpha virt. eigenvalues --    3.30724   3.31447   3.31773   3.32788   3.33273
 Alpha virt. eigenvalues --    3.33743   3.34806   3.36988   3.38489   3.39595
 Alpha virt. eigenvalues --    3.41153   3.42265   3.45580   3.46722   3.47883
 Alpha virt. eigenvalues --    3.48821   3.50252   3.51408   3.52421   3.54654
 Alpha virt. eigenvalues --    3.56084   3.56891   3.59590   3.62969   3.66169
 Alpha virt. eigenvalues --    3.69335   3.71492   3.71786   3.82840   3.86767
 Alpha virt. eigenvalues --    3.87367   3.87997   3.89132   3.89923   3.92824
 Alpha virt. eigenvalues --    3.94499   3.98088   4.06791   4.07410   4.07784
 Alpha virt. eigenvalues --    4.11180   4.38614   4.42524   4.47043   4.55294
 Alpha virt. eigenvalues --    4.74689   4.78929   4.80140   4.81066   4.85317
 Alpha virt. eigenvalues --    4.86377   4.87853   4.89631   4.93850   4.94992
 Alpha virt. eigenvalues --    4.96688   4.99813   5.04510   5.05434   5.10216
 Alpha virt. eigenvalues --    5.11039   5.16260   5.18249   5.46521   5.49944
 Alpha virt. eigenvalues --    5.51430   5.58750   5.59450   5.68044   5.68250
 Alpha virt. eigenvalues --    5.99541  23.22962  23.24284  23.41665  23.42282
 Alpha virt. eigenvalues --   23.54468  23.56022  23.70919  23.77476  23.78372
 Alpha virt. eigenvalues --   23.78848  23.83461  23.86011  23.89054  23.97501
 Alpha virt. eigenvalues --   23.98174  23.99032  24.05331  24.09537  24.11906
 Alpha virt. eigenvalues --   24.14657  24.14882  35.34569  49.82929  49.85922
 Alpha virt. eigenvalues --   49.86557  49.90867  49.93081  49.94363  49.96286
 Alpha virt. eigenvalues --   49.98107
  Beta  occ. eigenvalues --  -19.17159 -19.16435 -19.16372 -19.16067 -19.15329
  Beta  occ. eigenvalues --  -19.13375 -19.10579 -19.10113 -14.55930 -10.26351
  Beta  occ. eigenvalues --  -10.26310 -10.25929 -10.25850 -10.25786 -10.24745
  Beta  occ. eigenvalues --  -10.23184 -10.21424 -10.21202 -10.20672 -10.20248
  Beta  occ. eigenvalues --  -10.19835 -10.19524 -10.19444 -10.18758 -10.18232
  Beta  occ. eigenvalues --  -10.18200 -10.17985 -10.17967 -10.17660 -10.17232
  Beta  occ. eigenvalues --   -1.24594  -1.09469  -1.08065  -1.07212  -1.06750
  Beta  occ. eigenvalues --   -1.04842  -1.04142  -1.03491  -0.89596  -0.86800
  Beta  occ. eigenvalues --   -0.82087  -0.81196  -0.80859  -0.77547  -0.76157
  Beta  occ. eigenvalues --   -0.75560  -0.73230  -0.71776  -0.69824  -0.68897
  Beta  occ. eigenvalues --   -0.66260  -0.65630  -0.62678  -0.62193  -0.61108
  Beta  occ. eigenvalues --   -0.58654  -0.57694  -0.56671  -0.55839  -0.54632
  Beta  occ. eigenvalues --   -0.53084  -0.52909  -0.52681  -0.51743  -0.51181
  Beta  occ. eigenvalues --   -0.50604  -0.49944  -0.48709  -0.48241  -0.47494
  Beta  occ. eigenvalues --   -0.47331  -0.46195  -0.45614  -0.44865  -0.44350
  Beta  occ. eigenvalues --   -0.44029  -0.43950  -0.43043  -0.42857  -0.42421
  Beta  occ. eigenvalues --   -0.41803  -0.41181  -0.40652  -0.39765  -0.39415
  Beta  occ. eigenvalues --   -0.38908  -0.38502  -0.38379  -0.37730  -0.37421
  Beta  occ. eigenvalues --   -0.36836  -0.36359  -0.35963  -0.35818  -0.34141
  Beta  occ. eigenvalues --   -0.32928  -0.32095  -0.32059  -0.29960  -0.29580
[...]
 0004916,0.00005417,0.00001048,0.00006454,-0.00004893,-0.00000118,-0.00
 004469,0.00000732,-0.00000217,-0.00000225,-0.00001425,-0.00004861,0.00
 006033,0.00000294,0.00001106,-0.00000095,0.00007440,0.00003491,0.00001
 547,-0.00000430,-0.00000426,0.00000203,-0.00008991,-0.00004448,-0.0000
 1256,0.00000793,0.00000837,-0.00000747,-0.00002587,0.00001133,-0.00003
 291,0.00001802,-0.00001186,0.00000156,-0.00000118,0.00000296,0.0000012
 5,-0.00000222,0.00000167,-0.00000256,-0.00000072,-0.00000100,0.0000022
 3,-0.13344743,-0.19223926,-0.02772208,0.00370071,0.00441887,0.00151640
 ,0.14379711,0.20661397,0.00061550,-0.00087485,0.00011058,0.00156248,-0
 .00042517,-0.00070167,0.00001701,0.00008272,-0.00031077,0.00000333,0.0
 0008812,0.00003109,0.00424571,0.00432799,-0.00105205,-0.00170811,0.001
 91319,-0.00022144,-0.00010342,0.00018277,-0.00010496,0.00002558,0.0000
 0724,-0.00000187,-0.00003632,-0.00003798,-0.00000307,-0.00002693,0.000
 03254,-0.00000537,0.00002693,0.00001696,-0.00000762,-0.00000526,-0.000
 06846,0.00001352,-0.00000554,-0.00000523,-0.00001076,0.00008451,0.0000
 2104,-0.00003584,-0.00000727,-0.00000387,0.00000564,-0.00010768,0.0000
 0241,0.00004131,0.00001322,0.00000979,-0.00000383,-0.00005796,0.000066
 48,0.00000457,0.00003577,-0.00001421,0.00002405,-0.00000109,0.00000010
 ,-0.00000509,-0.00000349,0.00000422,-0.00000197,-0.00000339,-0.0000023
 1,-0.00000060,0.00076608,0.00063846,-0.00058965,0.00002753,0.00002112,
 0.00036246,-0.00094983,0.00193980,-0.00431044,-0.00130420,-0.00013193,
 -0.00010182,-0.02478440,-0.02390649,-0.00885284,0.00084454,0.00043012,
 0.00446534,0.00000605,-0.00019944,0.00018213,-0.00000872,-0.00000005,-
 0.00001841,0.00005081,0.00002924,-0.00004090,-0.00002067,-0.00000081,-
 0.00000970,-0.00000283,-0.00001165,0.00000614,0.00000335,-0.00003043,0
 .00005656,-0.00000096,-0.00000024,0.00003590,0.00001959,0.00000160,-0.
 00000163,-0.00000322,0.00000016,0.00000077,-0.00003382,-0.00001601,0.0
 0000007,0.00000048,0.00000340,-0.00000285,-0.00000246,0.00000765,-0.00
 000334,0.00000625,-0.00000396,0.00000069,-0.00000040,0.00000117,0.0000
 0001,-0.00000074,0.00000055,-0.00000063,-0.00000027,-0.00000035,0.0000
 0072,-0.01315205,-0.02336210,-0.04689560,0.01321620,0.01754931,0.00387
 893,0.02076355,0.02171689,0.05407900,-0.00055146,0.00051382,0.00020135
 ,0.00010351,-0.00001258,-0.00006763,0.00081476,-0.00037340,0.00002778,
 -0.00087646,0.00019761,-0.00025582,-0.00041233,0.00016680,0.00009463,0
 .00026415,0.00016672,-0.00016238,-0.00378245,-0.00065637,0.00189424,0.
 00041146,-0.00160237,-0.00015644,0.02246093,-0.00947256,0.00461591,0.0
 0029780,-0.00020009,-0.00007874,-0.00026228,-0.00032765,0.00004220,-0.
 00062325,0.00467832,-0.00146259,-0.00052518,-0.00189370,-0.00154044,0.
 00097947,-0.00047869,-0.00021131,-0.00005820,-0.00004027,-0.00002363,-
 0.00026094,0.00007231,0.00020680,0.00012836,-0.00000313,-0.00005970,-0
 .00455913,-0.00278655,0.00246456,0.00120555,-0.00044494,0.00007010,0.0
 0009889,0.00000555,0.00051357,0.00000366,0.00006844,0.00002033,-0.0001
 5288,-0.00000552,0.00014290,0.00000684,0.00000893,-0.00000604,-0.00000
 810,-0.00000684,-0.00000304,0.00000395,0.00003517,0.00003004,0.0000153
 6,-0.00001125,0.00000463,-0.00004973,-0.00002554,-0.00012801,0.0000073
 1,0.00002124,0.00006711,0.00000086,-0.00000006,0.00000232,-0.00000208,
 0.00000841,-0.00000047,-0.00000115,0.00000840,0.00000396,-0.00000484,0
 .00000903,-0.00000122,0.00000314,-0.00000673,-0.00000519,0.00000688,-0
 .00000341,0.00001812,0.00000195,-0.00000962,-0.00000203,0.00002185,0.0
 0000651,-0.00000255,0.00000173,-0.00000403,-0.00000125,-0.00002436,-0.
 00000423,0.00000223,0.00000800,-0.00000200,-0.00000408,-0.00002243,0.0
 0001071,-0.00001028,0.00001981,-0.00001356,0.00000030,-0.00000098,0.00
 000419,0.00000100,-0.00000087,0.00000064,-0.00000107,-0.00000260,-0.00
 000061,0.00000156,0.00000602,-0.00010002,0.00006593,-0.00000208,0.0000
 1355,-0.00000703,0.00000767,0.00001170,-0.00000056,0.11155851,-0.00145
 883,-0.00019191,0.00161277,0.00028036,-0.00003854,-0.00024513,0.001257
 43,-0.00077452,-0.00030610,0.00139894,-0.00038466,-0.00021437,-0.00170
 777,0.00062310,0.00064320,0.00078063,0.00041527,-0.00058793,-0.0045688
 7,-0.00153213,0.00174676,-0.00001064,-0.00221111,-0.00118664,0.0014047
 4,-0.03089216,0.03656021,0.00052562,-0.00071449,0.00028482,-0.00032918
 ,-0.00065509,0.00003315,0.00416487,-0.01018494,-0.00006028,-0.00114136
 ,-0.00360924,0.00016247,-0.00028548,0.00188275,-0.00177019,-0.00011595
 ,-0.00003327,0.00010799,-0.00144119,-0.00069896,0.00064714,0.00006176,
 0.00011324,0.00004513,0.00077893,0.00567473,-0.00011145,0.00002234,-0.
 00019833,0.00090795,-0.00054654,-0.00036571,-0.00054997,-0.00034237,0.
 00012354,-0.00003067,0.00009245,-0.00001042,-0.00020686,-0.00011113,-0
 .00009992,0.00003919,-0.00003804,0.00001046,0.00000763,0.00016037,0.00
 010102,-0.00001862,0.00000329,0.00001089,0.00000874,-0.00030875,-0.000
 10914,-0.00011797,0.00019988,0.00001377,-0.00002643,0.00006461,0.00002
 883,0.00001549,-0.00002236,-0.00002652,0.00003396,-0.00001470,0.000001
 54,-0.00002833,0.00002916,0.00000890,0.00002880,-0.00000419,-0.0000063
 7,-0.00000328,0.00001340,0.00002422,-0.00003898,-0.00000328,0.00000381
 ,-0.00000222,-0.00006029,-0.00003581,-0.00000555,0.00000961,0.00000294
 ,-0.00000340,0.00007772,0.00004649,0.00000538,-0.00000623,-0.00001193,
 0.00000837,0.00002474,-0.00000198,0.00001472,-0.00001782,0.00000495,-0
 .00000018,0.00000107,-0.00000078,0.00000103,0.00000002,-0.00000209,0.0
 0000123,0.00000248,0.00000185,-0.00000312,0.00002468,-0.00010209,0.000
 11602,0.00001303,0.00000862,-0.00001766,0.00001827,0.00000299,0.000035
 35,-0.06119962,0.32787792,0.00096078,-0.00015830,-0.00014184,-0.000111
 61,-0.00003974,0.00017828,0.00011749,0.00142960,-0.00060266,-0.0006904
 2,0.00009342,0.00037509,0.00060218,-0.00063441,-0.00001983,-0.00026632
 ,-0.00016668,0.00031028,0.00423790,0.00316672,-0.00063058,-0.00217587,
 0.00077745,0.00058138,-0.00757409,0.02341076,0.00466846,0.00034955,0.0
 0008164,-0.00009272,0.00021748,0.00033218,-0.00031117,0.00073704,0.000
 63797,-0.00097736,-0.00121548,-0.00105564,-0.00288090,-0.00055500,-0.0
 0052262,-0.00010303,0.00008210,-0.00001268,0.00001418,0.00036986,-0.00
 001915,-0.00010548,-0.00005078,-0.00004159,-0.00001886,0.00102531,-0.0
 0043371,0.00002228,0.00026433,-0.00029714,-0.00066669,0.00025496,0.000
 19246,0.00046334,0.00012896,0.00000169,0.00007754,-0.00013278,-0.00001
 642,0.00011275,0.00007374,0.00006707,-0.00003704,0.00000796,-0.0000135
 1,-0.00000570,-0.00008534,-0.00000765,0.00005867,0.00002281,-0.0000212
 5,0.00000616,0.00010330,0.00002413,-0.00023674,-0.00012411,0.00000875,
 0.00018453,-0.00003182,-0.00001535,-0.00000089,0.00000863,0.00002402,-
 0.00002661,0.00000700,0.00001183,0.00001641,-0.00002095,0.00000189,-0.
 00001217,0.00000544,-0.00000245,0.00000044,-0.00000276,-0.00001375,0.0
 0002808,0.00000494,-0.00001637,-0.00000044,0.00004956,0.00002310,-0.00
 000256,-0.00000615,-0.00000651,0.00000014,-0.00006233,-0.00002643,0.00
 000349,0.00001083,0.00000354,-0.00001074,-0.00003195,0.00001142,-0.000
 00339,0.00002910,-0.00001680,-0.00000123,-0.00000101,0.00000513,-0.000
 00044,0.00000032,0.00000164,-0.00000033,-0.00000476,-0.00000225,0.0000
 0316,0.00017810,-0.00000645,-0.00007370,0.00001609,-0.00004974,0.00001
 551,-0.00002459,0.00000569,-0.00000993,0.14136660,-0.27824345,0.383943
 32,-0.00230058,-0.00021037,0.00079197,0.00017745,-0.00006196,-0.000139
 00,0.00167754,0.00102119,0.00115199,-0.00111064,0.00105689,-0.00080876
 ,-0.00001201,0.00067910,0.00025515,0.00021881,0.00008393,-0.00011286,-
 0.00418988,0.00150173,-0.00161901,-0.00108322,-0.00187607,0.00256599,-
 0.02061140,-0.02805722,-0.02810562,0.00108751,-0.00184479,-0.00055298,
 -0.00003180,-0.00032342,0.00040047,0.00386725,-0.00378431,-0.00115851,
 -0.00011844,-0.00011356,0.00083374,0.00154831,0.00145623,0.00070064,-0
 .00013477,-0.00008395,-0.00019539,-0.00046199,-0.00035294,0.00036835,0
 .00008053,0.00000037,-0.00014029,-0.00164319,0.00198157,-0.00023651,0.
 00106127,0.00021721,-0.00001707,0.00004764,0.00006981,0.00007732,-0.00
 012208,0.00010946,-0.00014257,-0.00000031,-0.00006830,0.00014025,0.000
 07539,0.00006787,-0.00004033,0.00000377,-0.00002141,-0.00001513,-0.000
 07564,0.00003023,0.00007685,0.00002906,-0.00003228,0.00000434,0.000028
 46,-0.00002600,-0.00017145,-0.00006785,0.00007213,0.00013201,-0.000029
 28,-0.00001122,-0.00000058,0.00000363,0.00003171,-0.00002038,0.0000042
 8,0.00001560,0.00002469,-0.00002334,0.00001589,-0.00001564,0.00000888,
 -0.00001179,-0.00000968,0.00000797,-0.00001910,0.00006257,0.00000781,-
 0.00002239,-0.00000303,0.00007432,0.00002810,-0.00000384,-0.00000090,-
 0.00001068,-0.00000138,-0.00008672,-0.00002869,0.00000021,0.00001873,-
 0.00000018,-0.00001118,-0.00006045,0.00002582,-0.00003347,0.00005054,-
 0.00003405,0.00000121,-0.00000225,0.00001010,0.00000246,-0.00000255,0.
 00000235,-0.00000349,-0.00000649,-0.00000142,0.00000438,-0.00015051,-0
 .00007115,-0.00005313,-0.00002660,0.00001852,-0.00000638,0.00000249,-0
 .00001552,-0.00000107,-0.00817575,0.02365903,-0.05915141,0.33832833,-0
 .00102821,-0.00067683,-0.00039283,0.00012572,-0.00003936,-0.00013850,0
 .00156180,-0.00160731,-0.00096526,0.00030389,-0.00000355,-0.00027232,-
 0.00183670,0.00030141,0.00057155,0.00083120,0.00043742,-0.00057726,-0.
 00122114,-0.00138289,-0.00258020,0.00087367,0.00088665,0.00037623,-0.0
 3703117,-0.00228336,-0.02038884,-0.00119310,-0.00035613,0.00035820,0.0
 0002928,-0.00017186,0.00001789,0.00258340,-0.00809912,-0.00348628,-0.0
 0060698,-0.00096270,0.00123699,0.00042609,0.00029079,0.00128308,-0.000
 11268,-0.00004926,-0.00000279,-0.00112245,-0.00058298,0.00068599,0.000
 04817,0.00009031,-0.00004454,-0.00120682,0.00274937,-0.00034954,0.0008
 9118,0.00000868,0.00068276,-0.00007838,-0.00008970,-0.00018146,-0.0002
 0798,0.00012816,-0.00006782,-0.00002497,-0.00005641,-0.00004732,-0.000
 08596,-0.00007580,0.00002353,-0.00004226,0.00000321,0.00000513,0.00013
 796,0.00012039,0.00002042,0.00002246,-0.00000134,0.00001618,-0.0003103
 2,-0.00011023,-0.00032410,0.00015714,0.00000467,0.00009508,0.00005739,
 0.00002461,0.00001797,-0.00002169,-0.00001489,0.00002252,-0.00001262,0
 .00001167,-0.00002166,0.00002181,0.00001357,0.00002622,-0.00000108,-0.
 00000967,-0.00000412,0.00001454,0.00001973,-0.00002608,-0.00000102,-0.
 00000805,-0.00000357,-0.00003510,-0.00002561,-0.00001012,0.00000716,-0
 .00000125,-0.00000391,0.00004771,0.00003554,0.00001029,0.00000052,-0.0
 0001082,0.00000155,0.00000500,0.00000558,0.00001568,0.00000145,-0.0000
 0689,-0.00000113,0.00000036,0.00000325,0.00000097,0.00000038,-0.000001
 24,0.00000105,-0.00000085,0.00000057,-0.00000125,0.00016422,-0.0001973
 8,0.00019547,0.00002883,-0.00000591,-0.00001271,0.00001425,0.00001880,
 0.00002685,0.04183527,0.03256826,0.04188436,0.08265214,0.11811226,0.00
 041809,-0.00072619,-0.00007845,0.00009437,-0.00001251,-0.00002687,0.00
 052751,-0.00008976,-0.00014427,-0.00034478,0.00031968,-0.00084987,-0.0
 0013293,0.00003364,-0.00014317,0.00004070,-0.00001944,0.00007213,0.000
 13990,0.00275453,-0.00015407,-0.00066739,-0.00045491,0.00070187,-0.024
 10229,-0.00921311,0.00613347,0.00014590,-0.00011084,-0.00018652,-0.000
 02062,-0.00010959,-0.00015555,0.00344022,-0.00387527,-0.00160476,-0.00
 046369,0.00020719,-0.00151547,-0.00092975,0.00014769,0.00049649,0.0000
 0222,-0.00003949,0.00000579,-0.00012689,-0.00048916,0.00025495,-0.0000
 7625,0.00000279,-0.00001997,-0.00062199,0.00064436,0.00144878,0.000801
 86,0.00002894,-0.00069234,0.00030158,0.00021681,0.00042664,0.00004015,
 0.00003154,-0.00003602,0.00001623,-0.00006284,0.00026410,0.00004179,0.
 00004045,-0.00002581,-0.00000053,-0.00000899,-0.00000261,-0.00004475,0
 .00000605,0.00004115,0.00002122,-0.00001674,0.00000750,0.00003301,0.00
 001185,-0.00019286,-0.00005759,0.00000610,0.00015198,-0.00001579,-0.00
 000835,0.00000220,0.00000304,0.00001513,-0.00001736,0.00000433,0.00001
 204,0.00000779,-0.00001174,0.00000276,-0.00000402,0.00000373,-0.000002
 92,0.00000108,-0.00000135,-0.00000625,0.00001375,0.00000329,-0.0000142
 8,-0.00000113,0.00003052,0.00001277,-0.00000466,-0.00000401,-0.0000050
 6,-0.00000031,-0.00003831,-0.00001403,0.00000496,0.00000770,0.00000100
 ,-0.00000792,-0.00002202,0.00000897,0.00000439,0.00002185,-0.00001385,
 -0.00000170,-0.00000034,0.00000449,-0.00000035,0.00000073,0.00000103,0
 .00000012,-0.00000405,-0.00000173,0.00000224,0.00002861,-0.00004321,0.
 00005402,-0.00000744,0.00000260,0.00000176,-0.00000882,0.00000805,-0.0
 0000912,-0.06722042,0.02331711,-0.07597349,0.30891397,0.03666855,0.365
 62468,0.00218465,0.00083453,-0.00149119,-0.00033505,-0.00000520,0.0002
 3316,-0.00283270,0.00061578,0.00071117,-0.00020653,0.00116899,0.002554
 91,0.00045692,-0.00049382,-0.00027774,-0.00043077,-0.00028881,0.000233
 28,0.01986017,0.00500332,-0.00375435,-0.00096926,0.00740125,-0.0011896
 9,-0.10936208,-0.00143642,0.02296240,-0.00195721,0.00224605,0.00062471
 ,0.00074350,0.00140209,-0.00063956,-0.02219254,-0.03564430,0.00417781,
 -0.00268751,-0.00249492,-0.00552857,-0.00493233,0.00182699,0.00313989,
 0.00017002,0.00006046,0.00004359,0.00067318,-0.00126349,-0.00015453,-0
 .00053249,0.00005010,0.00027381,0.00474312,-0.00248014,-0.00143301,-0.
 00303455,0.00094995,-0.00087489,0.00002355,-0.00011953,-0.00002255,0.0
 0019227,-0.00022155,0.00018856,0.00052335,-0.00000957,0.00000688,-0.00
 006746,-0.00006146,0.00003892,0.00000143,0.00002779,0.00001673,0.00005
 541,-0.00006712,-0.00009210,-0.00004041,0.00003883,-0.00000921,0.00003
 882,0.00004889,0.00027382,0.00003673,-0.00008181,-0.00018161,0.0000220
 9,0.00000665,-0.00000347,0.00000021,-0.00003335,0.00001851,-0.00000251
 ,-0.00002152,-0.00002249,0.00002239,-0.00002136,0.00001162,-0.00001014
 ,0.00001573,0.00001138,-0.00001125,0.00001684,-0.00006371,-0.00000846,
 0.00002862,0.00000466,-0.00007806,-0.00002647,0.00000773,-0.00000036,0
 .00001283,0.00000251,0.00008949,0.00002510,-0.00000391,-0.00002203,0.0
 0000251,0.00001331,0.00006866,-0.00003105,0.00003145,-0.00005956,0.000
 04171,-0.00000045,0.00000241,-0.00001285,-0.00000291,0.00000242,-0.000
 00245,0.00000341,0.00000800,0.00000174,-0.00000494,0.00011412,0.000116
 29,0.00001118,0.00000866,-0.00002163,0.00000387,-0.00000420,-0.0000093
 8,-0.00000179,-0.11807886,0.03866516,-0.07891288,-0.30788134,-0.086661
 48,-0.22015882,0.54569605,0.00216373,0.00132536,-0.00092186,-0.0007024
 9,0.00021663,0.00063916,-0.00179244,0.00059519,-0.00094039,0.00041803,
 -0.00053217,-0.00025624,0.00334182,-0.00118540,-0.00141821,-0.00164837
 ,-0.00079346,0.00123519,-0.01384073,-0.02532497,0.00667906,0.00422259,
 -0.00091447,-0.00331107,-0.00315815,-0.11116778,0.00636656,0.00053577,
 0.00199317,-0.00038061,-0.00060229,0.00018464,0.00052298,-0.01859152,0
 .01617253,0.00286854,-0.00256300,-0.00101662,-0.00934368,0.00079910,-0
 .00233719,0.00002867,0.00009592,0.00009780,-0.00005386,0.00324165,0.00
 158782,-0.00165720,-0.00002761,-0.00022713,-0.00000505,0.00325460,-0.0
 1015788,0.00139218,-0.00107782,0.00027040,-0.00254810,0.00047722,0.000
 44516,0.00089596,0.00063301,-0.00028669,0.00017223,0.00005187,0.000069
 83,0.00035680,0.00017992,0.00016210,-0.00005654,0.00008283,-0.00001539
 ,-0.00001314,-0.00028354,-0.00022431,-0.00000828,-0.00003003,-0.000006
 24,-0.00002571,0.00062458,0.00020411,0.00047048,-0.00036322,-0.0000146
 7,-0.00010008,-0.00011603,-0.00004935,-0.00003115,0.00004375,0.0000393
 6,-0.00005353,0.00002378,-0.00001518,0.00004563,-0.00004977,-0.0000227
 5,-0.00005201,0.00000466,0.00001608,0.00000722,-0.00002543,-0.00004080
 ,0.00005333,0.00000321,0.00000521,0.00000644,0.00008486,0.00005621,0.0
 0001843,-0.00001624,-0.00000135,0.00000668,-0.00011493,-0.00007381,-0.
 00001423,0.00000573,0.00002014,-0.00000985,-0.00002363,-0.00000363,-0.
 00002444,0.00001224,0.00000492,0.00000087,-0.00000145,-0.00000355,-0.0
 0000246,-0.00000020,0.00000273,-0.00000119,-0.00000114,-0.00000278,0.0
 0000383,-0.00019836,0.00037601,-0.00024182,-0.00004913,0.00000046,0.00
 003342,-0.00004269,-0.00003186,-0.00006170,0.03184198,-0.31665803,0.20
 964364,-0.07772419,-0.13900433,-0.04916761,0.07090151,0.58626599,-0.00
 054675,0.00042205,-0.00357274,-0.00002100,0.00011203,-0.00009911,0.000
 18159,-0.00350407,0.00021902,0.00373068,-0.00258113,-0.00116685,-0.000
 69666,0.00066296,0.00015457,0.00022535,0.00018473,-0.00050103,-0.00692
 714,0.00123155,-0.00226725,0.00166872,0.00026256,0.00412220,0.01827469
 ,-0.01165319,-0.07056241,-0.00010630,-0.00067035,-0.00074601,0.0002843
 4,0.00010266,0.00124341,0.00994572,0.01396915,0.00078564,-0.00364148,-
 0.00429963,-0.00126068,0.00550170,-0.00171162,0.00416793,-0.00023595,0
 .00002491,-0.00035476,0.00010650,0.00136619,-0.00016316,0.00022778,0.0
 0000111,-0.00027300,0.00007578,0.00318123,-0.00699445,-0.00188829,0.00
 072874,0.00142211,-0.00077647,-0.00034813,-0.00088456,-0.00035708,0.00
 002352,-0.00013394,0.00001861,0.00012819,-0.00045199,-0.00012371,-0.00
 010852,0.00006551,-0.00000650,0.00001972,0.00000837,0.00013475,0.00000
 298,-0.00009731,-0.00004078,0.00003717,-0.00001185,-0.00013083,-0.0000
 3406,0.00040833,0.00018123,-0.00001481,-0.00032796,0.00005029,0.000025
 02,-0.00000085,-0.00001322,-0.00003985,0.00004331,-0.00001189,-0.00002
 194,-0.00002616,0.00003405,-0.00000443,0.00001937,-0.00000939,0.000005
 18,-0.00000040,0.00000364,0.00002141,-0.00004642,-0.00000802,0.0000287
 4,0.00000112,-0.00008367,-0.00003754,0.00000521,0.00001005,0.00001129,
 -0.00000043,0.00010396,0.00004323,-0.00000598,-0.00001835,-0.00000555,
 0.00001756,0.00005483,-0.00001970,0.00000484,-0.00005028,0.00002941,0.
 00000237,0.00000159,-0.00000904,0.00000071,-0.00000067,-0.00000287,0.0
 0000053,0.00000841,0.00000381,-0.00000553,-0.00020816,0.00006197,0.000
 10789,-0.00000682,0.00006557,-0.00001135,0.00004478,0.00000327,0.00001
 429,-0.08044625,0.21739421,-0.30811699,-0.22373845,-0.05434091,-0.2938
 7318,0.27922511,-0.16074726,0.67914211\\0.00000089,-0.00000011,0.00000
 202,-0.00000114,-0.00000116,-0.00000008,0.00000064,-0.00000053,0.00000
 101,-0.00000032,-0.00000269,-0.00000293,0.00000201,-0.00000076,0.00000
 121,0.00000056,-0.00000292,0.,0.00000042,0.00000105,-0.00000038,0.0000
 0038,0.00000070,0.00000268,0.00000033,-0.00000073,-0.00000315,-0.00000
 022,0.00000066,0.00000144,-0.00000012,0.00000041,0.00000252,-0.0000013
 7,-0.00000010,0.00000152,-0.00000094,-0.00000156,-0.00000159,-0.000000
 74,0.00000150,-0.00000064,-0.00000092,0.00000220,0.00000258,0.00000063
 ,0.00000165,-0.00000194,-0.00000030,0.00000223,-0.00000009,0.00000269,
 0.00000239,-0.00000689,-0.00000106,-0.00000044,-0.00000267,0.00000052,
 -0.00000038,-0.00000394,-0.00000073,0.00000017,-0.00000480,0.00000028,
 -0.00000008,-0.00000417,-0.00000009,-0.00000088,0.00000114,0.00000044,
 -0.00000223,0.00000099,-0.00000075,0.00000137,0.00000243,0.00000005,0.
 00000059,0.00000217,-0.00000027,0.00000061,0.00000262,0.00000055,-0.00
 000102,0.00000272,-0.00000021,0.00000004,0.00000105,0.00000012,-0.0000
 0200,0.00000037,0.00000019,0.00000070,0.00000084,0.00000053,-0.0000015
 0,-0.00000063,0.00000049,-0.00000271,-0.00000028,-0.00000143,0.0000003
 0,0.00000096,-0.00000049,0.00000204,0.00000165,-0.00000032,0.00000025,
 -0.00000016,0.00000043,-0.00000236,-0.00000086,-0.00000021,-0.00000007
 ,-0.00000118,0.00000015,-0.00000059,-0.00000122,0.00000159,0.00000484,
 0.00000032,-0.00000133,0.00000140,0.00000233,-0.00000016,0.00000247,0.
 00000264,-0.00000079,0.00000339,0.00000221,-0.00000022,0.00000217,0.00
 000211,0.00000016,-0.00000279,0.00000074,0.00000053,-0.00000403,0.0000
 0257,-0.00000060,-0.00000132,0.00000269,0.00000209,-0.00000249,-0.0000
 0542,-0.00000175,0.00000208,-0.00000139,-0.00000021,0.00000024,-0.0000
 0312\\\@


 A politician is a person who can make waves and then
 make you think he's the only one who can save the ship.
 -- Ivern Ball
 Job cpu time:       0 days  2 hours 52 minutes 43.9 seconds.
 Elapsed time:       0 days  2 hours 52 minutes 60.0 seconds.
 File lengths (MBytes):  RWF=   3729 Int=      0 D2E=      0 Chk=     61 Scr=      1
 Normal termination of Gaussian 16 at Mon Oct 21 21:29:12 2024.
