 Entering Gaussian System, Link 0=g16
 Initial command:
 /sw/cluster/pub/apps//g16/l1.exe "/data/natrosa/25091/Gau-723591.inp" -scrdir="/data/natrosa/25091/"
 Entering Link 1 = /sw/cluster/pub/apps//g16/l1.exe PID=    723592.
  
 Copyright (c) 1988,1990,1992,1993,1995,1998,2003,2009,2016,
            Gaussian, Inc.  All Rights Reserved.
  
 This is part of the Gaussian(R) 16 program.  It is based on
 the Gaussian(R) 09 system (copyright 2009, Gaussian, Inc.),
 the Gaussian(R) 03 system (copyright 2003, Gaussian, Inc.),
 the Gaussian(R) 98 system (copyright 1998, Gaussian, Inc.),
 the Gaussian(R) 94 system (copyright 1995, Gaussian, Inc.),
 the Gaussian 92(TM) system (copyright 1992, Gaussian, Inc.),
 the Gaussian 90(TM) system (copyright 1990, Gaussian, Inc.),
 the Gaussian 88(TM) system (copyright 1988, Gaussian, Inc.),
 the Gaussian 86(TM) system (copyright 1986, Carnegie Mellon
 University), and the Gaussian 82(TM) system (copyright 1983,
 Carnegie Mellon University). Gaussian is a federally registered
 trademark of Gaussian, Inc.
  
 This software contains proprietary and confidential information,
 including trade secrets, belonging to Gaussian, Inc.
  
 This software is provided under written license and may be
 used, copied, transmitted, or stored only in accord with that
 written license.
  
 The following legend is applicable only to US Government
 contracts under FAR:
  
                    RESTRICTED RIGHTS LEGEND
  
 Use, reproduction and disclosure by the US Government is
 subject to restrictions as set forth in subparagraphs (a)
 and (c) of the Commercial Computer Software - Restricted
 Rights clause in FAR 52.227-19.
  
 Gaussian, Inc.
 340 Quinnipiac St., Bldg. 40, Wallingford CT 06492
  
  
 ---------------------------------------------------------------
 Warning -- This program may not be used in any manner that
 competes with the business of Gaussian, Inc. or will provide
 assistance to any competitor of Gaussian, Inc.  The licensee
 of this program is prohibited from giving any competitor of
 Gaussian, Inc. access to this program.  By using this program,
 the user acknowledges that Gaussian, Inc. is engaged in the
 business of creating and licensing software in the field of
 computational chemistry and represents and warrants to the
 licensee that it is not a competitor of Gaussian, Inc. and that
 it will not use this program in any manner prohibited above.
 ---------------------------------------------------------------
  

 Cite this work as:
 Gaussian 16, Revision A.03,
 M. J. Frisch, G. W. Trucks, H. B. Schlegel, G. E. Scuseria, 
 M. A. Robb, J. R. Cheeseman, G. Scalmani, V. Barone, 
 G. A. Petersson, H. Nakatsuji, X. Li, M. Caricato, A. V. Marenich, 
 J. Bloino, B. G. Janesko, R. Gomperts, B. Mennucci, H. P. Hratchian, 
 J. V. Ortiz, A. F. Izmaylov, J. L. Sonnenberg, D. Williams-Young, 
 F. Ding, F. Lipparini, F. Egidi, J. Goings, B. Peng, A. Petrone, 
 T. Henderson, D. Ranasinghe, V. G. Zakrzewski, J. Gao, N. Rega, 
 G. Zheng, W. Liang, M. Hada, M. Ehara, K. Toyota, R. Fukuda, 
 J. Hasegawa, M. Ishida, T. Nakajima, Y. Honda, O. Kitao, H. Nakai, 
 T. Vreven, K. Throssell, J. A. Montgomery, Jr., J. E. Peralta, 
 F. Ogliaro, M. J. Bearpark, J. J. Heyd, E. N. Brothers, K. N. Kudin, 
 V. N. Staroverov, T. A. Keith, R. Kobayashi, J. Normand, 
 K. Raghavachari, A. P. Rendell, J. C. Burant, S. S. Iyengar, 
 J. Tomasi, M. Cossi, J. M. Millam, M. Klene, C. Adamo, R. Cammi, 
 J. W. Ochterski, R. L. Martin, K. Morokuma, O. Farkas, 
 J. B. Foresman, and D. J. Fox, Gaussian, Inc., Wallingford CT, 2016.
 
 ******************************************
 Gaussian 16:  ES64L-G16RevA.03 25-Dec-2016
                24-Oct-2024 
 ******************************************
 %chk=CURCUMIN-IRC-B3LYP-6-311G-D-298.chk
 ----------------------------------------------------------------------
 # irc=(calcfc,maxpoints=30) b3lyp/6-311g(d) scrf=(smd,solvent=generic,
 read) temperature=298.15
 ----------------------------------------------------------------------
 1/10=4,18=10,26=3,38=1,40=2,42=30,44=3,112=298150,172=1/1,23;
 2/12=2,17=6,18=5,29=1,40=1/2;
 3/5=4,6=6,7=1,11=2,25=1,30=1,70=32203,71=2,72=-2,74=-5,140=1/1,2,3;
 4//1;
 5/5=2,38=5/2;
 8/6=4,10=90,11=11/1;
 11/6=1,8=1,9=11,15=111,16=1/1,2,10;
 10/6=1,13=1/2;
 6/7=2,8=2,9=2,10=2,28=1/1;
 7/10=1,18=20,25=1/1,2,3,16;
 1/10=4,18=10,26=3,42=30,44=3/23(2);
 2/29=1/2;
 99/5=20/99;
 2/29=1/2;
 3/5=4,6=6,7=1,11=2,25=1,30=1,70=32205,71=2,72=-2,74=-5,140=1/1,2,3;
 4/5=5,16=3,69=1/1;
 5/5=2,38=5/2;
 8/6=4,10=90,11=11/1;
 11/6=1,8=1,9=11,15=111,16=1/1,2,10;
 10/6=1,13=1/2;
 7/10=1,18=20,25=1/1,2,3,16;
 1/18=10,26=3,42=30,44=3/23(-8);
 2/29=1/2;
 6/7=2,8=2,9=2,10=2,19=2,28=1/1;
 99/5=20,9=1/99;
 --------------
 IRC - reacao 1
 --------------
 Symbolic Z-matrix:
 Charge =  0 Multiplicity = 2
 C                     2.23496   0.88653   0.81462 
 H                     1.79924   1.88071   0.79374 
 C                     1.52545  -0.11143   1.37886 
 H                     1.90277  -1.12579   1.4524 
 C                     0.18308   0.03806   1.96463 
 O                    -0.4019   -0.94468   2.39679 
 C                     3.5672    0.82943   0.22962 
 C                     4.27956   2.02623   0.09483 
 C                     4.27563  -0.35383  -0.12027 
 C                     5.57993   2.06826  -0.39374 
 H                     3.79761   2.95275   0.38646 
 C                     5.55156  -0.33082  -0.70769 
 H                     4.76773  -0.80661   1.68057 
 C                     6.22509   0.90018  -0.7994 
 H                     6.09206   3.02139  -0.48721 
 O                     7.46848   0.88171  -1.33218 
 H                     7.82161   1.78171  -1.38139 
 O                     6.06646  -1.47824  -1.21216 
 C                     7.18006  -2.05692  -0.49538 
 H                     6.89728  -2.2655    0.53864 
 H                     7.40439  -2.99     -1.00894 
 H                     8.0484   -1.39841  -0.52664 
 C                    -3.1098    0.49542   0.90721 
 H                    -2.71261   0.04961   1.81473 
 C                    -2.37204   1.43483   0.27669 
 H                    -2.70904   1.89223  -0.64917 
 C                    -1.06329   1.91898   0.72094 
 O                    -0.43957   2.72704   0.04414 
 C                    -4.40334  -0.0314    0.49548 
 C                    -5.00391  -1.03512   1.2719 
 C                    -5.09562   0.42166  -0.64508 
 C                    -6.23514  -1.57347   0.92002 
 H                    -4.49554  -1.40372   2.1569 
 C                    -6.32276  -0.10494  -1.00815 
 H                    -4.67922   1.19404  -1.28169 
 C                    -6.90272  -1.12413  -0.21958 
 H                    -6.68172  -2.35811   1.52503 
 O                    -8.09375  -1.63199  -0.62512 
 H                    -8.38088  -2.3222   -0.01066 
 O                    -6.92147   0.32659  -2.16209 
 C                    -8.12661   1.0885   -1.99066 
 H                    -7.93648   1.97953  -1.38339 
 H                    -8.43552   1.39302  -2.99024 
 H                    -8.91681   0.49096  -1.53256 
 C                    -0.47258   1.42104   2.04954 
 H                    -1.24868   1.35244   2.81151 
 H                     0.25482   2.1676    2.36944 
 O                     3.83887  -2.61666   0.32216 
 O                     2.69299  -1.61956  -1.2241 
 N                     3.53736  -1.64024  -0.34335 
 
 IRC-IRC-IRC-IRC-IRC-IRC-IRC-IRC-IRC-IRC-IRC-IRC-IRC-IRC-IRC-IRC-IRC-IRC
 ------------------------------------------------------------------------
 INPUT DATA FOR L123
 ------------------------------------------------------------------------
 GENERAL PARAMETERS:
 Follow reaction path in both directions.
 Maximum points per path      =  30
 Step size                    =   0.100 bohr
 Integration scheme           = HPC                                 
    Redo corrector integration= Yes                                 
    DWI Weight Power          =  2
    DWI will use Hessian update vectors when possible.
    Max correction cycles     =  20
 Initial Hessian              = CalcFC
 Hessian evaluation           = All updating
 Hessian updating method      = Bofill                              
 ------------------------------------------------------------------------
 IRC-IRC-IRC-IRC-IRC-IRC-IRC-IRC-IRC-IRC-IRC-IRC-IRC-IRC-IRC-IRC-IRC-IRC
                          Input orientation:                          
 ---------------------------------------------------------------------
 Center     Atomic      Atomic             Coordinates (Angstroms)
 Number     Number       Type             X           Y           Z
 ---------------------------------------------------------------------
      1          6           0        2.234960    0.886534    0.814623
      2          1           0        1.799235    1.880710    0.793742
      3          6           0        1.525448   -0.111427    1.378856
      4          1           0        1.902767   -1.125791    1.452401
      5          6           0        0.183082    0.038064    1.964626
      6          8           0       -0.401902   -0.944675    2.396791
      7          6           0        3.567201    0.829429    0.229617
      8          6           0        4.279555    2.026231    0.094830
      9          6           0        4.275633   -0.353830   -0.120272
     10          6           0        5.579927    2.068256   -0.393743
     11          1           0        3.797613    2.952753    0.386460
     12          6           0        5.551555   -0.330819   -0.707692
     13          1           0        4.767728   -0.806611    1.680566
     14          6           0        6.225089    0.900181   -0.799398
     15          1           0        6.092065    3.021386   -0.487206
     16          8           0        7.468484    0.881706   -1.332176
     17          1           0        7.821611    1.781712   -1.381386
     18          8           0        6.066460   -1.478241   -1.212159
     19          6           0        7.180065   -2.056921   -0.495377
     20          1           0        6.897275   -2.265496    0.538641
     21          1           0        7.404394   -2.989997   -1.008942
     22          1           0        8.048398   -1.398413   -0.526635
     23          6           0       -3.109801    0.495423    0.907207
     24          1           0       -2.712612    0.049611    1.814730
     25          6           0       -2.372037    1.434828    0.276686
     26          1           0       -2.709035    1.892230   -0.649168
     27          6           0       -1.063294    1.918980    0.720941
     28          8           0       -0.439568    2.727043    0.044142
     29          6           0       -4.403338   -0.031397    0.495482
     30          6           0       -5.003913   -1.035124    1.271903
     31          6           0       -5.095621    0.421655   -0.645083
     32          6           0       -6.235138   -1.573474    0.920023
     33          1           0       -4.495545   -1.403717    2.156895
     34          6           0       -6.322758   -0.104936   -1.008146
     35          1           0       -4.679224    1.194035   -1.281692
     36          6           0       -6.902716   -1.124128   -0.219576
     37          1           0       -6.681716   -2.358109    1.525027
     38          8           0       -8.093755   -1.631989   -0.625122
     39          1           0       -8.380882   -2.322201   -0.010659
     40          8           0       -6.921467    0.326590   -2.162085
     41          6           0       -8.126612    1.088496   -1.990655
     42          1           0       -7.936483    1.979525   -1.383391
     43          1           0       -8.435523    1.393018   -2.990243
     44          1           0       -8.916814    0.490958   -1.532555
     45          6           0       -0.472580    1.421036    2.049538
     46          1           0       -1.248682    1.352439    2.811506
     47          1           0        0.254824    2.167596    2.369437
     48          8           0        3.838866   -2.616660    0.322155
     49          8           0        2.692985   -1.619564   -1.224102
     50          7           0        3.537363   -1.640235   -0.343349
 ---------------------------------------------------------------------
                    Distance matrix (angstroms):
                    1          2          3          4          5
     1  C    0.000000
     2  H    1.085669   0.000000
     3  C    1.348218   2.094261   0.000000
     4  H    2.136952   3.079545   1.084764   0.000000
     5  C    2.500522   2.716296   1.472216   2.138749   0.000000
     6  O    3.579053   3.923974   2.333489   2.497233   1.222599
     7  C    1.456145   2.132870   2.524820   2.844016   3.884427
     8  C    2.448955   2.581016   3.715294   4.174609   4.922401
     9  C    2.564542   3.458488   3.141602   2.949528   4.609702
    10  C    3.747722   3.967232   4.932740   5.208809   6.229729
    11  H    2.625732   2.304055   3.941673   4.621817   4.904167
    12  C    3.846972   4.607067   4.539973   4.314121   6.008150
    13  H    3.167256   4.101232   3.329668   2.891701   4.670454
    14  C    4.304228   4.804968   5.277762   5.278033   6.699920
    15  H    4.596696   4.622809   5.843860   6.205753   7.058879
    16  O    5.656725   6.136605   6.607245   6.539199   8.041002
    17  H    6.069141   6.403905   7.130539   7.177509   8.519579
    18  O    4.937651   5.789249   5.403918   4.955849   6.856040
    19  C    5.902041   6.791178   6.266769   5.701817   7.707032
    20  H    5.634593   6.576178   5.848290   5.203748   7.240180
    21  H    6.713861   7.641418   6.967765   6.308833   8.376073
    22  H    6.388741   7.179699   6.916365   6.462174   8.374547
    23  C    5.359852   5.102012   4.698537   5.296358   3.488609
    24  H    5.116554   4.975149   4.263458   4.776461   2.899594
    25  C    4.670591   4.226780   4.335444   5.119866   3.365817
    26  H    5.253303   4.733563   5.104740   5.898624   4.316734
    27  C    3.457340   2.863710   3.355144   4.313141   2.576441
    28  O    3.336797   2.508071   3.701305   4.723776   3.362523
    29  C    6.709057   6.497463   5.994769   6.471503   4.816478
    30  C    7.503543   7.417112   6.595241   6.909633   5.341958
    31  C    7.488943   7.192920   6.943995   7.468029   5.901053
    32  C    8.820732   8.746341   7.910424   8.167579   6.699388
    33  H    7.235098   7.229793   6.207070   6.442977   4.899515
    34  C    8.805682   8.553149   8.203180   8.646138   7.154284
    35  H    7.231531   6.837352   6.876096   7.495296   5.959603
    36  C    9.413259   9.261739   8.637968   8.962814   7.505329
    37  H    9.515224   9.509411   8.510375   8.672787   7.284253
    38  O   10.728382  10.593558   9.942691  10.222661   8.831869
    39  H   11.120844  11.042930  10.244689  10.455878   9.100224
    40  O    9.644402   9.338246   9.169542   9.645778   8.221168
    41  C   10.736505  10.339386  10.293478  10.832643   9.262757
    42  H   10.463467   9.976667  10.076221  10.700259   8.994767
    43  H   11.339874  10.922759  10.980589  11.530903  10.033294
    44  H   11.402973  11.053360  10.857256  11.339628   9.759277
    45  C    3.023488   2.636184   2.605834   3.533437   1.532878
    46  H    4.042322   3.693270   3.448360   4.233252   2.120079
    47  H    2.824802   2.224932   2.791000   3.795138   2.168853
    48  O    3.884251   4.960728   3.569974   2.692327   4.807289
    49  O    3.262930   4.137922   3.226920   2.834065   4.383529
    50  N    3.069481   4.087924   3.057948   2.482192   4.403934
                    6          7          8          9         10
     6  O    0.000000
     7  C    4.857764   0.000000
     8  C    6.003445   1.399268   0.000000
     9  C    5.344533   1.422814   2.389765   0.000000
    10  C    7.255833   2.444245   1.389761   2.764502   0.000000
    11  H    6.071845   2.141540   1.084324   3.379167   2.137217
    12  C    6.742276   2.482415   2.796017   1.404838   2.419696
    13  H    5.220835   2.494623   3.282966   1.920986   3.636934
    14  C    7.585257   2.851008   2.419243   2.415395   1.394700
    15  H    8.137486   3.419569   2.148090   3.850474   1.086038
    16  O    8.898530   4.202611   3.676350   3.631743   2.419753
    17  H    9.451665   4.647814   3.845148   4.327229   2.466312
    18  O    7.426232   3.694639   4.145187   2.379827   3.672078
    19  C    8.190723   4.680750   5.043157   3.387764   4.425817
    20  H    7.646913   4.556693   5.046617   3.310837   4.624516
    21  H    8.759031   5.553926   6.012111   4.186676   5.412308
    22  H    8.953204   5.061257   5.130164   3.935739   4.257793
    23  C    3.409613   6.719601   7.589856   7.504770   8.926234
    24  H    2.582011   6.523554   7.466959   7.262408   8.815809
    25  C    3.746773   5.970199   6.680307   6.895534   8.005276
    26  H    4.759071   6.425959   7.029358   7.355957   8.294765
    27  C    3.383258   4.782259   5.380479   5.863228   6.737744
    28  O    4.360950   4.437289   4.771145   5.634885   6.071249
    29  C    4.523333   8.021297   8.932356   8.706759  10.240354
    30  C    4.738360   8.833284   9.845820   9.408097  11.154506
    31  C    5.757678   8.716414   9.540234   9.417919  10.804712
    32  C    6.050031  10.116148  11.144397  10.632312  12.433179
    33  H    4.126280   8.585407   9.644638   9.122572  10.957896
    34  C    6.881518  10.010813  10.870486  10.638428  12.115039
    35  H    6.033308   8.391693   9.102037   9.161564  10.334549
    36  C    7.009862  10.660081  11.621824  11.205298  12.885574
    37  H    6.495678  10.811049  11.891903  11.260002  13.176581
    38  O    8.292705  11.948517  12.922837  12.445494  14.167390
    39  H    8.447338  12.359093  13.386809  12.809132  14.639913
    40  O    8.056314  10.769644  11.551854  11.402062  12.745403
    41  C    9.113430  11.905544  12.615133  12.625146  13.833990
    42  H    8.922479  11.673014  12.305239  12.497031  13.552882
    43  H    9.951081  12.439876  13.099307  13.147688  14.269919
    44  H    9.487072  12.612313  13.384678  13.294693  14.626697
    45  C    2.392105   4.470117   5.173967   5.513960   6.559067
    46  H    2.483094   5.489300   6.196429   6.482649   7.577329
    47  H    3.180923   4.164296   4.625179   5.359398   6.000146
    48  O    5.008369   3.458019   4.669295   2.346680   5.048984
    49  O    4.810890   2.979114   4.189106   2.307661   4.756464
    50  N    4.848709   2.535433   3.766407   1.499881   4.234089
                   11         12         13         14         15
    11  H    0.000000
    12  C    3.880119   0.000000
    13  H    4.092512   2.558230   0.000000
    14  C    3.392927   1.406207   3.344736   0.000000
    15  H    2.456117   3.402652   4.594199   2.148178   0.000000
    16  O    4.551729   2.352619   4.384189   1.352858   2.680808
    17  H    4.548536   3.173296   5.039957   1.914338   2.308177
    18  O    5.228476   1.355061   3.241242   2.419179   4.557725
    19  C    6.108637   2.382551   3.481002   3.122316   5.193555
    20  H    6.071341   2.665949   2.822642   3.501956   5.445351
    21  H    7.090296   3.254995   4.353462   4.070400   6.175042
    22  H    6.151062   2.721537   3.998095   2.946590   4.833572
    23  C    7.349967   8.849275   8.021773   9.498237   9.643610
    24  H    7.269884   8.648919   7.530379   9.350916   9.573541
    25  C    6.354583   8.177397   7.613880   8.680690   8.645329
    26  H    6.673358   8.554690   8.283320   8.990289   8.874716
    27  C    4.980861   7.131537   6.507730   7.514646   7.339896
    28  O    4.256974   6.768259   6.502348   6.961798   6.559817
    29  C    8.727694  10.031808   9.279754  10.747465  10.974454
    30  C    9.703300  10.762562   9.782852  11.581286  11.944474
    31  C    9.303771  10.673917  10.207984  11.331870  11.486855
    32  C   11.019415  11.963268  11.055748  12.819229  13.230758
    33  H    9.533611  10.502437   9.294711  11.356919  11.775835
    34  C   10.663784  11.880261  11.433302  12.589770  12.813005
    35  H    8.816609  10.359705  10.100617  10.918929  10.954044
    36  C   11.466703  12.489054  11.828382  13.295611  13.642626
    37  H   11.803301  12.599518  11.555133  13.513143  14.005625
    38  O   12.784670  13.707456  13.092562  14.542061  14.930184
    39  H   13.277748  14.091283  13.343283  14.977992  15.435259
    40  O   11.326539  12.574726  12.356674  13.229431  13.394744
    41  C   12.300946  13.811325  13.540063  14.402287  14.428000
    42  H   11.906660  13.701147  13.362162  14.214646  14.095701
    43  H   12.786106  14.276554  14.176765  14.831596  14.831304
    44  H   13.091971  14.515144  14.116463  15.165164  15.256548
    45  C    4.831825   6.852847   5.706083   7.297020   7.217392
    46  H    5.822967   7.839728   6.491357   8.312666   8.219091
    47  H    4.135217   6.615600   5.448555   6.876912   6.554598
    48  O    5.569937   3.036274   2.446292   4.395465   6.125319
    49  O    4.971941   3.177887   3.660949   4.359501   5.799584
    50  N    4.657885   2.429874   2.510968   3.726334   5.317698
                   16         17         18         19         20
    16  O    0.000000
    17  H    0.968055   0.000000
    18  O    2.747622   3.706277   0.000000
    19  C    3.069030   3.991453   1.445255   0.000000
    20  H    3.705552   4.573925   2.091728   1.092093   0.000000
    21  H    3.885701   4.804372   2.028983   1.088441   1.782438
    22  H    2.486793   3.300792   2.098665   1.090235   1.792130
    23  C   10.819619  11.242240   9.622413  10.694066  10.387497
    24  H   10.688785  11.143841   9.411084  10.374928   9.966848
    25  C    9.986503  10.333440   9.050462  10.199561   9.984045
    26  H   10.250344  10.556650   9.417343  10.649589  10.534646
    27  C    8.836428   9.131274   8.130890   9.232561   8.995206
    28  O    8.236310   8.436401   7.848000   9.013113   8.888152
    29  C   12.046338  12.500375  10.706356  11.800838  11.519415
    30  C   12.884726  13.396588  11.354298  12.353812  11.987067
    31  C   12.591286  13.009488  11.336809  12.524305  12.347127
    32  C   14.102821  14.633726  12.485375  13.498324  13.156163
    33  H   12.670231  13.205254  11.086570  11.990875  11.539400
    34  C   13.830286  14.274520  12.466768  13.652817  13.484430
    35  H   12.151827  12.515038  11.073194  12.321921  12.218727
    36  C   14.553097  15.053223  13.011923  14.116334  13.867854
    37  H   14.794870  15.360073  13.068372  14.011485  13.615085
    38  O   15.779793  16.294912  14.173212  15.280281  15.049474
    39  H   16.223866  16.770265  14.521762  15.570755  15.288134
    40  O   14.424548  14.835269  13.147092  14.398342  14.316789
    41  C   15.610361  15.974905  14.444289  15.697894  15.600121
    42  H   15.444120  15.759336  14.424558  15.671359  15.548466
    43  H   15.998377  16.341172  14.890038  16.185581  16.153403
    44  H   16.391181  16.788799  15.115518  16.330246  16.185589
    45  C    8.647969   8.983036   7.861521   8.782696   8.377833
    46  H    9.663368  10.001742   8.815551   9.674864   9.198477
    47  H    8.209284   8.454221   7.739191   8.603061   8.193063
    48  O    5.305610   6.173329   2.934671   3.485007   3.086106
    49  O    5.391978   6.155991   3.376455   4.566860   4.604405
    50  N    4.774063   5.580504   2.679068   3.669607   3.529570
                   21         22         23         24         25
    21  H    0.000000
    22  H    1.783396   0.000000
    23  C   11.241356  11.408239   0.000000
    24  H   10.934631  11.107569   1.086327   0.000000
    25  C   10.807892  10.828575   1.350679   2.097712   0.000000
    26  H   11.235970  11.250143   2.129316   3.076695   1.086273
    27  C    9.939431   9.776731   2.499880   2.722345   1.464436
    28  O    9.763261   9.454668   3.585408   3.933237   2.336308
    29  C   12.265363  12.568181   1.456123   2.146050   2.514731
    30  C   12.766748  13.180650   2.462364   2.592561   3.744047
    31  C   12.962335  13.269963   2.521612   3.444971   3.048621
    32  C   13.847898  14.357676   3.748097   3.980339   4.938351
    33  H   12.415609  12.827777   2.662469   2.325530   4.012706
    34  C   14.027055  14.437280   3.788417   4.585375   4.430560
    35  H   12.790400  13.010890   2.782522   3.842538   2.794572
    36  C   14.449843  14.956782   4.275370   4.803440   5.227005
    37  H   14.326157  14.903241   4.613342   4.651326   5.875207
    38  O   15.562266  16.144143   5.631493   6.143074   6.554135
    39  H   15.830902  16.463319   6.046964   6.409900   7.092535
    40  O   14.749908  15.157414   4.896719   5.797089   5.279499
    41  C   16.087573  16.430430   5.823893   6.698629   6.194830
    42  H   16.130061  16.360346   5.544931   6.421945   5.832290
    43  H   16.554134  16.899145   6.660263   7.592379   6.887702
    44  H   16.696498  17.099708   6.298719   7.063372   6.855534
    45  C    9.531958   9.337721   3.019373   2.636984   2.598294
    46  H   10.408088  10.254076   2.797248   2.198639   2.773811
    47  H    9.440898   9.046737   4.031747   3.687714   3.437580
    48  O    3.824159   4.463713   7.636185   7.229014   7.415655
    49  O    4.911390   5.405166   6.533603   6.421925   6.102141
    50  N    4.149554   4.521229   7.092934   6.824593   6.690401
                   26         27         28         29         30
    26  H    0.000000
    27  C    2.141583   0.000000
    28  O    2.515566   1.224768   0.000000
    29  C    2.807352   3.874364   4.850172   0.000000
    30  C    4.186452   4.955680   6.041071   1.403919   0.000000
    31  C    2.803284   4.513055   5.241057   1.409042   2.409450
    32  C    5.187183   6.243784   7.269817   2.431816   1.389084
    33  H    4.682828   4.988249   6.162617   2.156863   1.085131
    34  C    4.144458   5.894738   6.613572   2.439360   2.793425
    35  H    2.183852   4.196550   4.699216   2.176268   3.405205
    36  C    5.183621   6.651611   7.528170   2.819975   2.416171
    37  H    6.210853   7.106807   8.186342   3.415342   2.151600
    38  O    6.435519   7.990535   8.833779   4.175743   3.674517
    39  H    7.094996   8.489402   9.410756   4.617880   3.834769
    40  O    4.741807   6.720546   7.255662   3.678558   4.162157
    41  C    5.638769   7.611368   8.118860   4.614955   4.990521
    42  H    5.279481   7.188366   7.668140   4.478514   4.973798
    43  H    6.206650   8.270386   8.655773   5.517042   5.986460
    44  H    6.424987   8.294291   8.907848   4.975666   5.050218
    45  C    3.536491   1.536900   2.393399   4.469397   5.212525
    46  H    3.794769   2.173890   3.194136   4.151003   4.708778
    47  H    4.239371   2.125273   2.490413   5.481400   6.254303
    48  O    8.009280   6.690458   6.851091   8.639882   9.033162
    49  O    6.468776   5.514900   5.505844   7.472419   8.112574
    50  N    7.182571   5.913271   5.919396   8.145350   8.713702
                   31         32         33         34         35
    31  C    0.000000
    32  C    2.780035   0.000000
    33  H    3.397522   2.141227   0.000000
    34  C    1.383827   2.425308   3.878534   0.000000
    35  H    1.084079   3.863615   4.313460   2.112666   0.000000
    36  C    2.415801   1.395084   3.394150   1.413133   3.383177
    37  H    3.866803   1.086791   2.467684   3.409194   4.950290
    38  O    3.634097   2.417717   4.553992   2.369605   4.480683
    39  H    4.327144   2.455805   4.542879   3.185454   5.261341
    40  O    2.375720   3.685197   5.247156   1.369760   2.560314
    41  C    3.382624   4.374449   6.049623   2.375604   3.521115
    42  H    3.323034   4.563342   5.984982   2.662686   3.352174
    43  H    4.195029   5.378843   7.059616   3.261342   4.131407
    44  H    3.923509   4.179522   6.062133   2.712788   4.302838
    45  C    5.443551   6.591659   4.916808   6.775146   5.370705
    46  H    5.254836   6.083044   4.308948   6.516128   5.343031
    47  H    6.384583   7.629942   5.946886   7.735441   6.214772
    48  O    9.486410  10.145503   8.619739  10.551638   9.468452
    49  O    8.072436   9.182090   7.946867   9.144635   7.891079
    50  N    8.880926   9.854052   8.416340  10.001054   8.742189
                   36         37         38         39         40
    36  C    0.000000
    37  H    2.148299   0.000000
    38  O    1.356821   2.672872   0.000000
    39  H    1.914158   2.290586   0.967677   0.000000
    40  O    2.424516   4.567262   2.751826   3.711417   0.000000
    41  C    3.087126   5.130968   3.044142   3.951948   1.436058
    42  H    3.472147   5.371071   3.693608   4.537260   2.090171
    43  H    4.045011   6.126537   3.855032   4.762747   2.028665
    44  H    2.896378   4.739373   2.451074   3.243032   2.098746
    45  C    7.278282   7.287690   8.634644   8.988742   7.779699
    46  H    6.876696   6.703809   8.220234   8.505050   7.613768
    47  H    8.292696   8.325300   9.648990  10.019908   8.684650
    48  O   10.858301  10.592280  12.010593  12.227825  11.428864
    49  O    9.660849   9.797356  10.803365  11.162288   9.854188
    50  N   10.453561  10.413249  11.634534  11.942375  10.796450
                   41         42         43         44         45
    41  C    0.000000
    42  H    1.094921   0.000000
    43  H    1.089649   1.781854   0.000000
    44  H    1.091479   1.788611   1.780508   0.000000
    45  C    8.661290   8.234486   9.423834   9.219627   0.000000
    46  H    8.392636   7.919412   9.236483   8.855126   1.089787
    47  H    9.509118   9.012025  10.239545  10.107205   1.090323
    48  O   12.737737  12.755103  13.330796  13.259133   6.154300
    49  O   11.179663  11.223387  11.663558  11.804104   5.475652
    50  N   12.091646  12.076154  12.631574  12.691049   5.583631
                   46         47         48         49         50
    46  H    0.000000
    47  H    1.766476   0.000000
    48  O    6.916195   6.318689   0.000000
    49  O    6.376180   5.762008   2.167523   0.000000
    50  N    6.466485   5.712604   1.219510   1.220298   0.000000
 Symmetry turned off by external request.
 Stoichiometry    C21H20NO8(2)
 Framework group  C1[X(C21H20NO8)]
 Deg. of freedom   144
 Full point group                 C1      NOp   1
 Rotational constants (GHZ):           0.3603824           0.0461367           0.0449961
 Standard basis: 6-311G(d) (5D, 7F)
   600 basis functions,  1060 primitive gaussians,   630 cartesian basis functions
   109 alpha electrons      108 beta electrons
       nuclear repulsion energy      2685.3849718787 Hartrees.
 NAtoms=   50 NActive=   50 NUniq=   50 SFac= 1.00D+00 NAtFMM=   60 NAOKFM=F Big=F
 Integral buffers will be    131072 words long.
 Raffenetti 2 integral format.
 Two-electron integral symmetry is turned off.
 Force inversion solution in PCM.
 Using the following non-standard input for PCM:
 Eps=7
 EpsInf=1.85341
 HbondAcidity=0
 HbondBasicity=0.48
 SurfaceTensionAtInterface=60.62
 CarbonAromaticity=0
 ElectronegativeHalogenicity=0
 --- end of non-standard input.
 Force inversion solution in PCM.
 ------------------------------------------------------------------------------
 Polarizable Continuum Model (PCM)
 =================================
 Model                : PCM.
 Atomic radii         : SMD-Coulomb.
 Polarization charges : Total charges.
 Charge compensation  : None.
 Solution method      : Matrix inversion.
 Cavity type          : VdW (van der Waals Surface) (Alpha=1.000).
 Cavity algorithm     : GePol (No added spheres)
                        Default sphere list used, NSphG=   50.
                        Lebedev-Laikov grids with approx.  5.0 points / Ang**2.
                        Smoothing algorithm: York/Karplus (Gamma=1.0000).
                        Polarization charges: spherical gaussians, with
                                              point-specific exponents (IZeta= 3).
                        Self-potential: point-specific (ISelfS= 7).
                        Self-field    : sphere-specific E.n sum rule (ISelfD= 2).
 1st derivatives      : Analytical E(r).r(x)/FMM algorithm (CHGder, D1EAlg=3).
                        Cavity 1st derivative terms included.
 2nd derivatives      : Analytical E(r).r(xy)/FMM algorithm (CHGder, D2EAlg=3).
                        Cavity 2nd derivative terms included.
 Solvent              : Generic,
                        Eps                           =   7.000000
                        Eps(infinity)                 =   1.853410
                        RSolv                         =   0.000000 Ang.
                        Molar volume                  =   0.000000 cm**3/mol
                        Thermal expansion coefficient =   0.000000 K**-1
                        Absolute temperature          = 298.150000 K
                        Numeral density               =   0.000000 Ang**-3
                        Hydrogen bond acidity         =   0.000000
                        Hydrogen bond basicity        =   0.480000
                        Surface tension at interface  =  60.620000 (cal/mol)*Ang**-2
                        Carbon aromaticity            =   0.000000
                        Electronegative halogenicity  =   0.000000
 ------------------------------------------------------------------------------
 ------------------------------------------------------------------------------
 Atomic radii for non-electrostatic terms: SMD-CDS.
 ------------------------------------------------------------------------------
 Nuclear repulsion after PCM non-electrostatic terms =     2685.3814961814 Hartrees.
 One-electron integrals computed using PRISM.
 NBasis=   600 RedAO= T EigKep=  1.69D-04  NBF=   600
 NBsUse=   600 1.00D-06 EigRej= -1.00D+00 NBFU=   600
 ExpMin= 1.03D-01 ExpMax= 8.59D+03 ExpMxC= 1.30D+03 IAcc=3 IRadAn=         5 AccDes= 0.00D+00
 Harris functional with IExCor=  402 and IRadAn=       5 diagonalized for initial guess.
 HarFok:  IExCor=  402 AccDes= 0.00D+00 IRadAn=         5 IDoV= 1 UseB2=F ITyADJ=14
 ICtDFT=  3500011 ScaDFX=  1.000000  1.000000  1.000000  1.000000
 FoFCou: FMM=F IPFlag=           0 FMFlag=      100000 FMFlg1=           0
         NFxFlg=           0 DoJE=T BraDBF=F KetDBF=T FulRan=T
         wScrn=  0.000000 ICntrl=       500 IOpCl=  0 I1Cent=   200000004 NGrid=           0
         NMat0=    1 NMatS0=      1 NMatT0=    0 NMatD0=    1 NMtDS0=    0 NMtDT0=    0
 Symmetry not used in FoFCou.
 Initial guess <Sx>= 0.0000 <Sy>= 0.0000 <Sz>= 0.5000 <S**2>= 0.7500 S= 0.5000
 Requested convergence on RMS density matrix=1.00D-08 within 128 cycles.
 Requested convergence on MAX density matrix=1.00D-06.
 Requested convergence on             energy=1.00D-06.
 No special actions if energy rises.
 Inv3:  Mode=1 IEnd=    50750307.
 Iteration    1 A*A^-1 deviation from unit magnitude is 3.77D-15 for   1853.
 Iteration    1 A*A^-1 deviation from orthogonality  is 2.89D-15 for   2925    552.
 Iteration    1 A^-1*A deviation from unit magnitude is 3.77D-15 for   1853.
 Iteration    1 A^-1*A deviation from orthogonality  is 2.10D-14 for   2332   2179.
 EnCoef did     1 forward-backward iterations
 Restarting incremental Fock formation.
 Error on total polarization charges =  0.03714
 SCF Done:  E(UB3LYP) =  -1468.91188636     A.U. after   23 cycles
            NFock= 23  Conv=0.73D-08     -V/T= 2.0034
 <Sx>= 0.0000 <Sy>= 0.0000 <Sz>= 0.5000 <S**2>= 0.7656 S= 0.5078
 <L.S>=  0.00000000000    
 SMD-CDS (non-electrostatic) energy       (kcal/mol) =      -2.18
 (included in total energy above)
 Annihilation of the first spin contaminant:
 S**2 before annihilation     0.7656,   after     0.7501
 DoSCS=F DFT=T ScalE2(SS,OS)=  1.000000  1.000000
 Range of M.O.s used for correlation:     1   600
 NBasis=   600 NAE=   109 NBE=   108 NFC=     0 NFV=     0
 NROrb=    600 NOA=   109 NOB=   108 NVA=   491 NVB=   492

 **** Warning!!: The largest alpha MO coefficient is  0.16322802D+02


 **** Warning!!: The largest beta MO coefficient is  0.16354370D+02

 Symmetrizing basis deriv contribution to polar:
 IMax=3 JMax=2 DiffMx= 0.00D+00
 G2DrvN: will do    26 centers at a time, making    2 passes.
 Calling FoFCou, ICntrl=  3107 FMM=F I1Cent=   0 AccDes= 0.00D+00.
 Calling FoFCou, ICntrl=  3107 FMM=F I1Cent=   0 AccDes= 0.00D+00.
 NEqPCM:  Using equilibrium solvation (IEInf=0, Eps=   7.0000, EpsInf=   1.8534)
 G2PCM: DoFxE=T DoFxN=T DoGrad=T DoDP/DQ/DG/TGxP=FFFF NFrqRd=   0 IEInf=0 SqF1=F DoCFld=F IF1Alg=4.
 End of G2Drv F.D. properties file   721 does not exist.
 End of G2Drv F.D. properties file   722 does not exist.
 End of G2Drv F.D. properties file   788 does not exist.
          IDoAtm=11111111111111111111111111111111111111111111111111
 NEqPCM:  Using equilibrium solvation (IEInf=0, Eps=   7.0000, EpsInf=   1.8534)
          Differentiating once with respect to nuclear coordinates.
 CalDSu exits because no D1Ps are significant.
          There are   153 degrees of freedom in the 1st order CPHF.  IDoFFX=6 NUNeed=     0.
    150 vectors produced by pass  0 Test12= 1.07D-13 1.00D-09 XBig12= 3.67D-01 1.92D-01.
 AX will form    50 AO Fock derivatives at one time.
    150 vectors produced by pass  1 Test12= 1.07D-13 1.00D-09 XBig12= 4.18D-02 3.21D-02.
    148 vectors produced by pass  2 Test12= 1.07D-13 1.00D-09 XBig12= 8.55D-04 4.04D-03.
    147 vectors produced by pass  3 Test12= 1.07D-13 1.00D-09 XBig12= 9.55D-06 4.04D-04.
    147 vectors produced by pass  4 Test12= 1.07D-13 1.00D-09 XBig12= 5.89D-08 2.13D-05.
    143 vectors produced by pass  5 Test12= 1.07D-13 1.00D-09 XBig12= 3.04D-10 1.24D-06.
     94 vectors produced by pass  6 Test12= 1.07D-13 1.00D-09 XBig12= 1.86D-12 8.32D-08.
     29 vectors produced by pass  7 Test12= 1.07D-13 1.00D-09 XBig12= 6.89D-15 4.96D-09.
      3 vectors produced by pass  8 Test12= 1.07D-13 1.00D-09 XBig12= 4.60D-15 3.09D-09.
      1 vectors produced by pass  9 Test12= 1.07D-13 1.00D-09 XBig12= 1.38D-15 2.61D-09.
 InvSVY:  IOpt=1 It=  1 EMax= 8.33D-16
 Solved reduced A of dimension  1012 with   153 vectors.
 End of Minotr F.D. properties file   721 does not exist.
 End of Minotr F.D. properties file   722 does not exist.
 End of Minotr F.D. properties file   788 does not exist.

 **********************************************************************

            Population analysis using the SCF density.

 **********************************************************************

 Alpha  occ. eigenvalues --  -19.17181 -19.16509 -19.16443 -19.16145 -19.15322
 Alpha  occ. eigenvalues --  -19.13450 -19.10692 -19.10213 -14.55997 -10.26373
 Alpha  occ. eigenvalues --  -10.26243 -10.26006 -10.25967 -10.25679 -10.24751
 Alpha  occ. eigenvalues --  -10.23189 -10.21421 -10.21381 -10.20650 -10.20171
 Alpha  occ. eigenvalues --  -10.19786 -10.19660 -10.19400 -10.18745 -10.18244
 Alpha  occ. eigenvalues --  -10.18223 -10.17991 -10.17919 -10.17656 -10.17211
 Alpha  occ. eigenvalues --   -1.24748  -1.09569  -1.08231  -1.07398  -1.06883
 Alpha  occ. eigenvalues --   -1.04954  -1.04391  -1.03715  -0.89749  -0.86800
 Alpha  occ. eigenvalues --   -0.82183  -0.81229  -0.80880  -0.77646  -0.76185
 Alpha  occ. eigenvalues --   -0.75612  -0.73270  -0.71913  -0.69906  -0.68924
 Alpha  occ. eigenvalues --   -0.66284  -0.65709  -0.62733  -0.62229  -0.61250
 Alpha  occ. eigenvalues --   -0.58661  -0.57816  -0.56759  -0.55875  -0.54676
 Alpha  occ. eigenvalues --   -0.53136  -0.52994  -0.52798  -0.51784  -0.51231
 Alpha  occ. eigenvalues --   -0.50715  -0.50048  -0.48797  -0.48329  -0.47837
 Alpha  occ. eigenvalues --   -0.47378  -0.46234  -0.45718  -0.44943  -0.44368
 Alpha  occ. eigenvalues --   -0.44047  -0.43967  -0.43069  -0.42903  -0.42558
 Alpha  occ. eigenvalues --   -0.41919  -0.41248  -0.40725  -0.40212  -0.39505
 Alpha  occ. eigenvalues --   -0.39101  -0.38878  -0.38523  -0.37754  -0.37536
 Alpha  occ. eigenvalues --   -0.36917  -0.36478  -0.36065  -0.35899  -0.34171
 Alpha  occ. eigenvalues --   -0.33168  -0.32948  -0.32071  -0.30030  -0.29797
 Alpha  occ. eigenvalues --   -0.29305  -0.29151  -0.28376  -0.26536  -0.25233
 Alpha  occ. eigenvalues --   -0.24860  -0.23924  -0.22465  -0.22023
 Alpha virt. eigenvalues --   -0.09037  -0.07897  -0.06825  -0.03021  -0.01311
 Alpha virt. eigenvalues --   -0.00480   0.01328   0.03266   0.03848   0.05347
 Alpha virt. eigenvalues --    0.05916   0.06474   0.07048   0.07452   0.07865
 Alpha virt. eigenvalues --    0.08022   0.08355   0.09344   0.10513   0.10853
 Alpha virt. eigenvalues --    0.11787   0.12150   0.12329   0.12399   0.12808
 Alpha virt. eigenvalues --    0.13341   0.13882   0.14563   0.14943   0.16201
 Alpha virt. eigenvalues --    0.16810   0.17130   0.17156   0.18724   0.20370
 Alpha virt. eigenvalues --    0.21126   0.22052   0.23089   0.23744   0.24656
 Alpha virt. eigenvalues --    0.25644   0.26280   0.26509   0.26773   0.27488
 Alpha virt. eigenvalues --    0.27846   0.28879   0.29331   0.30170   0.30589
 Alpha virt. eigenvalues --    0.30988   0.31082   0.31904   0.32979   0.33189
 Alpha virt. eigenvalues --    0.33833   0.34172   0.35069   0.35167   0.35839
 Alpha virt. eigenvalues --    0.36100   0.36380   0.37280   0.37678   0.37997
 Alpha virt. eigenvalues --    0.38210   0.38577   0.39255   0.39997   0.40246
 Alpha virt. eigenvalues --    0.40635   0.41182   0.41828   0.42014   0.42242
 Alpha virt. eigenvalues --    0.42897   0.43018   0.43314   0.43494   0.44489
 Alpha virt. eigenvalues --    0.44987   0.45065   0.45299   0.45937   0.46235
 Alpha virt. eigenvalues --    0.46498   0.46909   0.47699   0.48330   0.48689
 Alpha virt. eigenvalues --    0.49445   0.49999   0.50558   0.51675   0.52044
 Alpha virt. eigenvalues --    0.52087   0.52394   0.52903   0.54528   0.54737
 Alpha virt. eigenvalues --    0.55394   0.55646   0.56644   0.57270   0.57870
 Alpha virt. eigenvalues --    0.57887   0.58352   0.58806   0.59019   0.59769
 Alpha virt. eigenvalues --    0.60263   0.60421   0.61314   0.61708   0.62051
 Alpha virt. eigenvalues --    0.62286   0.62528   0.62700   0.62920   0.63794
 Alpha virt. eigenvalues --    0.64147   0.64427   0.65116   0.65614   0.66198
 Alpha virt. eigenvalues --    0.66998   0.67266   0.68256   0.68827   0.69817
 Alpha virt. eigenvalues --    0.70627   0.70869   0.71309   0.73682   0.74073
 Alpha virt. eigenvalues --    0.74971   0.75124   0.75998   0.76363   0.76903
 Alpha virt. eigenvalues --    0.77765   0.78158   0.78306   0.79157   0.79506
 Alpha virt. eigenvalues --    0.80223   0.80570   0.81166   0.81326   0.82258
 Alpha virt. eigenvalues --    0.83009   0.83542   0.84199   0.85090   0.85273
 Alpha virt. eigenvalues --    0.85911   0.86457   0.87292   0.88369   0.88633
 Alpha virt. eigenvalues --    0.88968   0.89620   0.90532   0.90887   0.91549
 Alpha virt. eigenvalues --    0.92510   0.93911   0.94282   0.94932   0.95249
 Alpha virt. eigenvalues --    0.96659   0.96918   0.97907   0.97991   0.99224
 Alpha virt. eigenvalues --    0.99633   1.00307   1.01959   1.03044   1.04581
 Alpha virt. eigenvalues --    1.05526   1.06207   1.06607   1.08010   1.08189
 Alpha virt. eigenvalues --    1.09040   1.09582   1.09942   1.11392   1.12003
 Alpha virt. eigenvalues --    1.13615   1.14131   1.15091   1.15384   1.16549
 Alpha virt. eigenvalues --    1.17338   1.19356   1.19996   1.20841   1.21848
 Alpha virt. eigenvalues --    1.23290   1.23327   1.24095   1.24629   1.25837
 Alpha virt. eigenvalues --    1.26480   1.27296   1.28515   1.30518   1.32969
 Alpha virt. eigenvalues --    1.35146   1.37285   1.37855   1.38783   1.40498
 Alpha virt. eigenvalues --    1.41897   1.43829   1.44730   1.45319   1.46399
 Alpha virt. eigenvalues --    1.47090   1.47470   1.48905   1.49974   1.50825
 Alpha virt. eigenvalues --    1.51137   1.52450   1.52710   1.53068   1.53476
 Alpha virt. eigenvalues --    1.53951   1.54972   1.55303   1.56144   1.56502
 Alpha virt. eigenvalues --    1.56899   1.57857   1.58347   1.59437   1.60604
 Alpha virt. eigenvalues --    1.61295   1.61886   1.62535   1.63896   1.66279
 Alpha virt. eigenvalues --    1.67181   1.67617   1.68155   1.69103   1.70069
 Alpha virt. eigenvalues --    1.70515   1.70685   1.71568   1.72309   1.72974
 Alpha virt. eigenvalues --    1.74135   1.75020   1.75742   1.76567   1.77901
 Alpha virt. eigenvalues --    1.78745   1.79343   1.80226   1.80902   1.82223
 Alpha virt. eigenvalues --    1.82996   1.83907   1.84199   1.85308   1.86949
 Alpha virt. eigenvalues --    1.89105   1.89486   1.90884   1.91767   1.93934
 Alpha virt. eigenvalues --    1.94856   1.96279   1.98651   2.00168   2.01073
 Alpha virt. eigenvalues --    2.02367   2.02612   2.05122   2.05304   2.07624
 Alpha virt. eigenvalues --    2.09387   2.10681   2.11306   2.13664   2.14370
 Alpha virt. eigenvalues --    2.15515   2.15904   2.17084   2.19119   2.22537
 Alpha virt. eigenvalues --    2.24158   2.24823   2.26921   2.27223   2.28297
 Alpha virt. eigenvalues --    2.28980   2.29536   2.30767   2.31296   2.31699
 Alpha virt. eigenvalues --    2.32200   2.33200   2.34370   2.35738   2.37563
 Alpha virt. eigenvalues --    2.38209   2.38653   2.38970   2.40174   2.41215
 Alpha virt. eigenvalues --    2.44170   2.45825   2.47237   2.48854   2.50415
 Alpha virt. eigenvalues --    2.51115   2.52412   2.53485   2.55510   2.57822
 Alpha virt. eigenvalues --    2.60359   2.63829   2.63911   2.65320   2.66146
 Alpha virt. eigenvalues --    2.66896   2.68131   2.69263   2.70223   2.72760
 Alpha virt. eigenvalues --    2.74199   2.75417   2.76404   2.77373   2.79169
 Alpha virt. eigenvalues --    2.79477   2.81263   2.82340   2.83103   2.83580
 Alpha virt. eigenvalues --    2.85021   2.85628   2.86251   2.88232   2.89300
 Alpha virt. eigenvalues --    2.91375   2.92744   2.93626   2.94240   2.94508
 Alpha virt. eigenvalues --    2.95003   2.95230   2.95780   2.96950   2.98672
 Alpha virt. eigenvalues --    2.99069   2.99709   3.01498   3.01980   3.03562
 Alpha virt. eigenvalues --    3.04038   3.05381   3.06908   3.08696   3.10555
 Alpha virt. eigenvalues --    3.11919   3.12618   3.13829   3.14290   3.14596
 Alpha virt. eigenvalues --    3.14790   3.14977   3.15669   3.16415   3.18283
 Alpha virt. eigenvalues --    3.19487   3.19835   3.24465   3.25430   3.25559
 Alpha virt. eigenvalues --    3.26889   3.29182   3.29505   3.29848   3.30582
 Alpha virt. eigenvalues --    3.30917   3.31657   3.31928   3.33060   3.33371
 Alpha virt. eigenvalues --    3.33868   3.34931   3.37347   3.38784   3.39687
 Alpha virt. eigenvalues --    3.41213   3.42316   3.45541   3.46682   3.47907
 Alpha virt. eigenvalues --    3.48861   3.50497   3.51455   3.52616   3.54704
 Alpha virt. eigenvalues --    3.56320   3.56948   3.59756   3.63107   3.66277
 Alpha virt. eigenvalues --    3.69454   3.71548   3.71873   3.83358   3.86693
 Alpha virt. eigenvalues --    3.87259   3.88106   3.89334   3.89873   3.92788
 Alpha virt. eigenvalues --    3.94565   3.97974   4.06771   4.07433   4.07961
 Alpha virt. eigenvalues --    4.10705   4.38832   4.42665   4.46991   4.55429
 Alpha virt. eigenvalues --    4.74562   4.78947   4.80188   4.81115   4.85476
 Alpha virt. eigenvalues --    4.86634   4.88057   4.89580   4.93913   4.95074
 Alpha virt. eigenvalues --    4.96746   4.99974   5.05010   5.06061   5.10509
 Alpha virt. eigenvalues --    5.11095   5.16437   5.18266   5.46732   5.50173
 Alpha virt. eigenvalues --    5.51519   5.58772   5.59893   5.68217   5.68255
 Alpha virt. eigenvalues --    5.99720  23.23028  23.24397  23.41828  23.42317
 Alpha virt. eigenvalues --   23.54628  23.56120  23.70969  23.77481  23.78378
 Alpha virt. eigenvalues --   23.78813  23.83684  23.86131  23.89302  23.97491
 Alpha virt. eigenvalues --   23.98347  23.99047  24.05473  24.09476  24.11991
 Alpha virt. eigenvalues --   24.14954  24.15155  35.34872  49.82988  49.86009
 Alpha virt. eigenvalues --   49.86548  49.90874  49.92961  49.94578  49.96351
 Alpha virt. eigenvalues --   49.98130
  Beta  occ. eigenvalues --  -19.17208 -19.16476 -19.16440 -19.16145 -19.15277
  Beta  occ. eigenvalues --  -19.13450 -19.10658 -19.10212 -14.55970 -10.26381
  Beta  occ. eigenvalues --  -10.26319 -10.25967 -10.25804 -10.25755 -10.24751
  Beta  occ. eigenvalues --  -10.23189 -10.21399 -10.21207 -10.20650 -10.20208
  Beta  occ. eigenvalues --  -10.19856 -10.19531 -10.19400 -10.18745 -10.18223
  Beta  occ. eigenvalues --  -10.18189 -10.17991 -10.17919 -10.17656 -10.17211
  Beta  occ. eigenvalues --   -1.24716  -1.09580  -1.08231  -1.07367  -1.06794
  Beta  occ. eigenvalues --   -1.04954  -1.04342  -1.03708  -0.89602  -0.86800
  Beta  occ. eigenvalues --   -0.82078  -0.81212  -0.80869  -0.77543  -0.76184
  Beta  occ. eigenvalues --   -0.75572  -0.73231  -0.71772  -0.69789  -0.68924
  Beta  occ. eigenvalues --   -0.66271  -0.65639  -0.62711  -0.62222  -0.61133
  Beta  occ. eigenvalues --   -0.58661  -0.57753  -0.56717  -0.55865  -0.54637
  Beta  occ. eigenvalues --   -0.53081  -0.52907  -0.52745  -0.51757  -0.51230
  Beta  occ. eigenvalues --   -0.50648  -0.50006  -0.48735  -0.48273  -0.47513
  Beta  occ. eigenvalues --   -0.47373  -0.46234  -0.45708  -0.44919  -0.44353
  Beta  occ. eigenvalues --   -0.44013  -0.43963  -0.43046  -0.42876  -0.42465
  Beta  occ. eigenvalues --   -0.41907  -0.41241  -0.40671  -0.39760  -0.39454
  Beta  occ. eigenvalues --   -0.38929  -0.38583  -0.38393  -0.37740  -0.37522
  Beta  occ. eigenvalues --   -0.36893  -0.36445  -0.35921  -0.35826  -0.34169
  Beta  occ. eigenvalues --   -0.32988  -0.32138  -0.32092  -0.29869  -0.29579
  Beta  occ. eigenvalues --   -0.29135  -0.28376  -0.27540  -0.26510  -0.25232
  Beta  occ. eigenvalues --   -0.24840  -0.23296  -0.22022
  Beta virt. eigenvalues --   -0.10441  -0.08473  -0.07623  -0.06374  -0.01958
  Beta virt. eigenvalues --   -0.01302  -0.00136   0.01386   0.03302   0.03848
  Beta virt. eigenvalues --    0.05385   0.06070   0.06479   0.07066   0.07460
  Beta virt. eigenvalues --    0.08002   0.08066   0.08370   0.09364   0.10650
  Beta virt. eigenvalues --    0.10887   0.11798   0.12223   0.12353   0.12572
  Beta virt. eigenvalues --    0.12827   0.13393   0.13996   0.14565   0.15064
  Beta virt. eigenvalues --    0.16204   0.16815   0.17131   0.17179   0.18753
  Beta virt. eigenvalues --    0.20395   0.21146   0.22082   0.23104   0.23839
  Beta virt. eigenvalues --    0.24771   0.25906   0.26313   0.26822   0.27317
  Beta virt. eigenvalues --    0.27757   0.28179   0.29010   0.30177   0.30608
  Beta virt. eigenvalues --    0.30908   0.31095   0.31668   0.31915   0.33136
  Beta virt. eigenvalues --    0.33276   0.33993   0.34222   0.35164   0.35268
  Beta virt. eigenvalues --    0.35863   0.36108   0.36569   0.37288   0.37760
  Beta virt. eigenvalues --    0.38026   0.38263   0.38595   0.39570   0.40057
  Beta virt. eigenvalues --    0.40465   0.40689   0.41251   0.41991   0.42193
  Beta virt. eigenvalues --    0.42298   0.42899   0.43131   0.43326   0.43534
  Beta virt. eigenvalues --    0.44559   0.44990   0.45186   0.45344   0.45952
  Beta virt. eigenvalues --    0.46283   0.46640   0.46958   0.47762   0.48347
  Beta virt. eigenvalues --    0.48728   0.49506   0.50341   0.50565   0.51682
  Beta virt. eigenvalues --    0.52052   0.52155   0.52570   0.53011   0.54562
  Beta virt. eigenvalues --    0.54750   0.55424   0.55690   0.56722   0.57279
  Beta virt. eigenvalues --    0.57897   0.58002   0.58359   0.58863   0.59052
  Beta virt. eigenvalues --    0.59795   0.60290   0.60445   0.61342   0.61741
  Beta virt. eigenvalues --    0.62072   0.62332   0.62608   0.62763   0.62951
  Beta virt. eigenvalues --    0.63808   0.64191   0.64452   0.65167   0.65628
  Beta virt. eigenvalues --    0.66251   0.67018   0.67406   0.68414   0.68905
  Beta virt. eigenvalues --    0.69850   0.70656   0.70984   0.71399   0.73692
  Beta virt. eigenvalues --    0.74200   0.75036   0.75140   0.76023   0.76391
  Beta virt. eigenvalues --    0.76930   0.77902   0.78191   0.78333   0.79182
  Beta virt. eigenvalues --    0.79514   0.80254   0.80585   0.81227   0.81361
  Beta virt. eigenvalues --    0.82304   0.83065   0.83560   0.84229   0.85210
  Beta virt. eigenvalues --    0.85391   0.85988   0.86496   0.87460   0.88438
  Beta virt. eigenvalues --    0.88661   0.88984   0.89649   0.90627   0.90909
  Beta virt. eigenvalues --    0.91587   0.92570   0.93936   0.94307   0.94959
  Beta virt. eigenvalues --    0.95312   0.96716   0.96974   0.97939   0.98022
  Beta virt. eigenvalues --    0.99287   0.99704   1.00382   1.01974   1.03121
  Beta virt. eigenvalues --    1.04584   1.05574   1.06276   1.06652   1.08082
  Beta virt. eigenvalues --    1.08256   1.09077   1.09608   1.09973   1.11442
  Beta virt. eigenvalues --    1.12120   1.13670   1.14174   1.15099   1.15544
  Beta virt. eigenvalues --    1.16584   1.17371   1.19426   1.20016   1.20887
  Beta virt. eigenvalues --    1.21879   1.23304   1.23338   1.24103   1.24721
  Beta virt. eigenvalues --    1.25916   1.26584   1.27317   1.28521   1.30713
  Beta virt. eigenvalues --    1.33007   1.35298   1.37320   1.37859   1.38871
  Beta virt. eigenvalues --    1.40547   1.41945   1.43882   1.44751   1.45374
  Beta virt. eigenvalues --    1.46412   1.47112   1.47519   1.48959   1.49984
  Beta virt. eigenvalues --    1.50838   1.51177   1.52451   1.52757   1.53122
  Beta virt. eigenvalues --    1.53507   1.53996   1.54979   1.55318   1.56159
  Beta virt. eigenvalues --    1.56499   1.56937   1.57898   1.58399   1.59453
  Beta virt. eigenvalues --    1.60727   1.61325   1.61926   1.62546   1.63927
  Beta virt. eigenvalues --    1.66377   1.67266   1.67683   1.68167   1.69118
  Beta virt. eigenvalues --    1.70157   1.70533   1.70785   1.71594   1.72346
  Beta virt. eigenvalues --    1.72993   1.74211   1.75131   1.75780   1.76589
  Beta virt. eigenvalues --    1.78039   1.78780   1.79407   1.80252   1.80944
  Beta virt. eigenvalues --    1.82281   1.83059   1.83989   1.84216   1.85364
  Beta virt. eigenvalues --    1.87067   1.89136   1.89544   1.90889   1.91857
  Beta virt. eigenvalues --    1.94068   1.94940   1.96280   1.98689   2.00283
  Beta virt. eigenvalues --    2.01109   2.02423   2.02629   2.05168   2.05335
  Beta virt. eigenvalues --    2.07642   2.09455   2.10930   2.11426   2.13747
  Beta virt. eigenvalues --    2.14423   2.15587   2.15946   2.17093   2.19193
  Beta virt. eigenvalues --    2.22775   2.24172   2.25034   2.27054   2.27255
  Beta virt. eigenvalues --    2.28400   2.29274   2.29721   2.30782   2.31367
  Beta virt. eigenvalues --    2.31713   2.32339   2.33207   2.34531   2.35788
  Beta virt. eigenvalues --    2.37658   2.38266   2.38951   2.40170   2.40694
  Beta virt. eigenvalues --    2.44153   2.45513   2.46144   2.48570   2.50252
  Beta virt. eigenvalues --    2.50788   2.51122   2.53252   2.54645   2.55580
  Beta virt. eigenvalues --    2.57837   2.60441   2.63843   2.63975   2.65380
  Beta virt. eigenvalues --    2.66192   2.67211   2.68402   2.69290   2.70338
  Beta virt. eigenvalues --    2.72768   2.74234   2.75596   2.76474   2.77412
  Beta virt. eigenvalues --    2.79197   2.79520   2.81268   2.82539   2.83228
  Beta virt. eigenvalues --    2.83666   2.85082   2.85672   2.86320   2.88327
  Beta virt. eigenvalues --    2.89334   2.91570   2.92835   2.93675   2.94254
  Beta virt. eigenvalues --    2.94537   2.95067   2.95293   2.95827   2.96965
  Beta virt. eigenvalues --    2.98775   2.99087   2.99717   3.01526   3.02027
  Beta virt. eigenvalues --    3.03563   3.04217   3.05426   3.07018   3.08697
  Beta virt. eigenvalues --    3.10594   3.11969   3.12653   3.13773   3.14307
  Beta virt. eigenvalues --    3.14598   3.14792   3.15037   3.15694   3.16415
  Beta virt. eigenvalues --    3.18284   3.19531   3.19839   3.24492   3.25430
  Beta virt. eigenvalues --    3.25598   3.26914   3.29231   3.29508   3.29851
  Beta virt. eigenvalues --    3.30629   3.30937   3.31689   3.32016   3.33094
  Beta virt. eigenvalues --    3.33372   3.33912   3.34932   3.37398   3.38815
  Beta virt. eigenvalues --    3.39693   3.41258   3.42328   3.45548   3.46704
  Beta virt. eigenvalues --    3.47934   3.48917   3.50512   3.51486   3.52630
  Beta virt. eigenvalues --    3.54735   3.56333   3.56961   3.59797   3.63129
  Beta virt. eigenvalues --    3.66292   3.69510   3.71551   3.71908   3.83398
  Beta virt. eigenvalues --    3.86761   3.87259   3.88248   3.89341   3.89876
  Beta virt. eigenvalues --    3.92821   3.94575   3.97989   4.06859   4.07435
  Beta virt. eigenvalues --    4.07998   4.10727   4.38856   4.42755   4.46993
  Beta virt. eigenvalues --    4.55431   4.74685   4.78947   4.80081   4.81115
  Beta virt. eigenvalues --    4.85491   4.86646   4.88124   4.89652   4.93975
  Beta virt. eigenvalues --    4.95107   4.96746   5.00063   5.05035   5.06065
  Beta virt. eigenvalues --    5.10545   5.11095   5.16437   5.18349   5.46741
  Beta virt. eigenvalues --    5.50173   5.51512   5.58792   5.59898   5.68253
  Beta virt. eigenvalues --    5.68295   5.99744  23.23039  23.24427  23.41853
  Beta virt. eigenvalues --   23.42317  23.54649  23.56122  23.70969  23.77515
  Beta virt. eigenvalues --   23.78391  23.78813  23.83708  23.86131  23.89300
  Beta virt. eigenvalues --   23.97572  23.98428  23.99047  24.05473  24.09521
  Beta virt. eigenvalues --   24.11991  24.14960  24.15157  35.34903  49.83003
  Beta virt. eigenvalues --   49.86008  49.86548  49.90891  49.92961  49.94605
  Beta virt. eigenvalues --   49.96372  49.98143
          Condensed to atoms (all electrons):
               1          2          3          4          5          6
     1  C    5.212722   0.347349   0.411586  -0.042124  -0.010995   0.007327
     2  H    0.347349   0.461209  -0.054879   0.004207  -0.007761   0.000174
     3  C    0.411586  -0.054879   5.453530   0.348044   0.389876  -0.089152
     4  H   -0.042124   0.004207   0.348044   0.487616  -0.030710   0.013920
     5  C   -0.010995  -0.007761   0.389876  -0.030710   4.539552   0.633778
     6  O    0.007327   0.000174  -0.089152   0.013920   0.633778   7.842474
     7  C    0.403489  -0.031315  -0.014614  -0.018780   0.000471  -0.000206
     8  C   -0.045479  -0.014128   0.007305  -0.000191  -0.000393   0.000001
     9  C   -0.077817   0.012104  -0.034135   0.010048   0.000161   0.000004
    10  C    0.010950  -0.000107  -0.000404   0.000014   0.000004   0.000000
    11  H   -0.004831   0.003066   0.000558  -0.000013  -0.000066  -0.000000
    12  C    0.009729  -0.000291   0.000344   0.000815   0.000013  -0.000000
    13  H   -0.000880   0.000258  -0.000516  -0.000431  -0.000018  -0.000014
    14  C   -0.001065   0.000080   0.000023   0.000030  -0.000000  -0.000000
    15  H   -0.000359  -0.000014   0.000005   0.000001   0.000000   0.000000
    16  O   -0.000001  -0.000000   0.000000  -0.000000  -0.000000   0.000000
    17  H   -0.000003   0.000000   0.000000   0.000000  -0.000000   0.000000
    18  O   -0.000037   0.000000  -0.000000   0.000041  -0.000000   0.000000
    19  C    0.000018  -0.000000  -0.000002   0.000001  -0.000000  -0.000000
    20  H    0.000001  -0.000000   0.000004  -0.000021   0.000000   0.000000
    21  H   -0.000000   0.000000  -0.000000  -0.000001  -0.000000  -0.000000
    22  H   -0.000000   0.000000   0.000000   0.000001   0.000000  -0.000000
    23  C   -0.000121  -0.000353  -0.000205   0.000028  -0.005425  -0.007968
    24  H   -0.000327  -0.000095   0.002421  -0.000157  -0.004360   0.029609
    25  C   -0.000409   0.002793   0.001907  -0.000019   0.005194  -0.001096
    26  H    0.000034  -0.000198  -0.000031  -0.000002  -0.000446  -0.000045
    27  C   -0.005140  -0.004966   0.004692  -0.000475  -0.050558   0.001996
    28  O   -0.010479   0.037197  -0.001788  -0.000048   0.002206   0.000010
    29  C   -0.000001   0.000009   0.000015  -0.000003   0.000295   0.000807
    30  C    0.000000  -0.000000  -0.000004   0.000000  -0.000058  -0.000264
    31  C   -0.000000   0.000000   0.000001  -0.000000  -0.000002   0.000008
    32  C    0.000000  -0.000000  -0.000000   0.000000  -0.000001  -0.000002
    33  H   -0.000000   0.000000   0.000000   0.000000  -0.000006   0.000080
    34  C    0.000000   0.000000   0.000000  -0.000000   0.000000  -0.000000
    35  H   -0.000000   0.000001   0.000000  -0.000000   0.000002   0.000001
    36  C   -0.000000   0.000000   0.000000   0.000000   0.000000   0.000000
    37  H   -0.000000  -0.000000  -0.000000  -0.000000  -0.000000  -0.000000
    38  O    0.000000   0.000000  -0.000000   0.000000  -0.000000   0.000000
    39  H   -0.000000  -0.000000  -0.000000   0.000000  -0.000000   0.000000
    40  O   -0.000000  -0.000000  -0.000000   0.000000  -0.000000  -0.000000
    41  C   -0.000000  -0.000000   0.000000  -0.000000   0.000000  -0.000000
    42  H    0.000000  -0.000000   0.000000  -0.000000   0.000000   0.000000
    43  H    0.000000   0.000000  -0.000000   0.000000  -0.000000  -0.000000
    44  H   -0.000000  -0.000000   0.000000  -0.000000   0.000000  -0.000000
    45  C    0.008450  -0.005685  -0.128407   0.012975   0.233558  -0.097080
    46  H    0.000477   0.000692   0.005032  -0.000288  -0.034536   0.001239
    47  H   -0.004447   0.003431   0.002653  -0.000359  -0.018215   0.002399
    48  O    0.001206   0.000002  -0.004977   0.009918   0.000173  -0.000001
    49  O   -0.002411   0.000170   0.004297  -0.006406  -0.000666   0.000003
    50  N   -0.005434  -0.000074  -0.001517  -0.001614  -0.000475  -0.000009
               7          8          9         10         11         12
     1  C    0.403489  -0.045479  -0.077817   0.010950  -0.004831   0.009729
     2  H   -0.031315  -0.014128   0.012104  -0.000107   0.003066  -0.000291
     3  C   -0.014614   0.007305  -0.034135  -0.000404   0.000558   0.000344
     4  H   -0.018780  -0.000191   0.010048   0.000014  -0.000013   0.000815
     5  C    0.000471  -0.000393   0.000161   0.000004  -0.000066   0.000013
     6  O   -0.000206   0.000001   0.000004   0.000000  -0.000000  -0.000000
     7  C    5.044516   0.456964   0.125896  -0.013803  -0.045208   0.057990
     8  C    0.456964   5.113499  -0.034317   0.414904   0.392652  -0.055740
     9  C    0.125896  -0.034317   6.020439  -0.062590   0.008788   0.267225
    10  C   -0.013803   0.414904  -0.062590   5.289054  -0.035102  -0.052603
    11  H   -0.045208   0.392652   0.008788  -0.035102   0.438483  -0.001158
    12  C    0.057990  -0.055740   0.267225  -0.052603  -0.001158   5.021089
    13  H   -0.043399  -0.008263   0.034309   0.005022  -0.000223  -0.020613
    14  C   -0.075982   0.013557  -0.049344   0.367054   0.005819   0.292051
    15  H    0.005976  -0.025334  -0.000514   0.383411  -0.005999   0.005020
    16  O   -0.000046   0.006880   0.004105  -0.081567  -0.000108  -0.064313
    17  H   -0.000101   0.001390  -0.000231  -0.001180  -0.000026   0.008988
    18  O    0.007408  -0.000743  -0.089551   0.005913   0.000003   0.403749
    19  C    0.000655  -0.000052  -0.000752  -0.000457  -0.000001  -0.096217
    20  H   -0.000844   0.000048   0.009029  -0.000089   0.000001  -0.003313
    21  H    0.000026  -0.000007  -0.000171   0.000045  -0.000000   0.004633
    22  H    0.000126  -0.000057  -0.002535   0.000270   0.000002  -0.018632
    23  C   -0.000000   0.000000  -0.000000   0.000000   0.000000  -0.000000
    24  H    0.000007  -0.000000  -0.000000  -0.000000   0.000000  -0.000000
    25  C    0.000004  -0.000004   0.000001  -0.000000  -0.000002   0.000000
    26  H   -0.000004   0.000000  -0.000000   0.000000   0.000000  -0.000000
    27  C    0.000283  -0.000086   0.000007  -0.000000  -0.000024   0.000000
    28  O    0.001171  -0.000329   0.000019  -0.000003  -0.000169  -0.000000
    29  C    0.000000  -0.000000   0.000000  -0.000000  -0.000000  -0.000000
    30  C   -0.000000   0.000000  -0.000000   0.000000   0.000000  -0.000000
    31  C    0.000000  -0.000000   0.000000  -0.000000  -0.000000   0.000000
    32  C   -0.000000   0.000000  -0.000000   0.000000   0.000000  -0.000000
    33  H    0.000000  -0.000000   0.000000  -0.000000   0.000000  -0.000000
    34  C   -0.000000  -0.000000   0.000000  -0.000000  -0.000000   0.000000
    35  H    0.000000  -0.000000   0.000000  -0.000000  -0.000000   0.000000
    36  C    0.000000  -0.000000  -0.000000  -0.000000   0.000000  -0.000000
    37  H   -0.000000   0.000000  -0.000000   0.000000   0.000000  -0.000000
    38  O    0.000000   0.000000   0.000000   0.000000  -0.000000   0.000000
    39  H    0.000000   0.000000  -0.000000   0.000000   0.000000  -0.000000
    40  O   -0.000000   0.000000  -0.000000   0.000000   0.000000   0.000000
    41  C   -0.000000   0.000000   0.000000   0.000000   0.000000   0.000000
    42  H    0.000000   0.000000  -0.000000  -0.000000  -0.000000  -0.000000
    43  H    0.000000  -0.000000   0.000000  -0.000000  -0.000000  -0.000000
    44  H   -0.000000   0.000000  -0.000000   0.000000   0.000000  -0.000000
    45  C   -0.002335   0.000186  -0.000035   0.000001   0.000052   0.000000
    46  H    0.000060  -0.000003   0.000002  -0.000000  -0.000001  -0.000000
    47  H    0.000046  -0.000006  -0.000019  -0.000004   0.000017   0.000001
    48  O    0.003892  -0.000411  -0.092634   0.000064   0.000003  -0.005131
    49  O    0.009072  -0.000321  -0.126366   0.000151   0.000000   0.007824
    50  N   -0.033990   0.004233   0.175433  -0.000167  -0.000116  -0.045760
              13         14         15         16         17         18
     1  C   -0.000880  -0.001065  -0.000359  -0.000001  -0.000003  -0.000037
     2  H    0.000258   0.000080  -0.000014  -0.000000   0.000000   0.000000
     3  C   -0.000516   0.000023   0.000005   0.000000   0.000000  -0.000000
     4  H   -0.000431   0.000030   0.000001  -0.000000   0.000000   0.000041
     5  C   -0.000018  -0.000000   0.000000  -0.000000  -0.000000  -0.000000
     6  O   -0.000014  -0.000000   0.000000   0.000000   0.000000   0.000000
     7  C   -0.043399  -0.075982   0.005976  -0.000046  -0.000101   0.007408
     8  C   -0.008263   0.013557  -0.025334   0.006880   0.001390  -0.000743
     9  C    0.034309  -0.049344  -0.000514   0.004105  -0.000231  -0.089551
    10  C    0.005022   0.367054   0.383411  -0.081567  -0.001180   0.005913
    11  H   -0.000223   0.005819  -0.005999  -0.000108  -0.000026   0.000003
    12  C   -0.020613   0.292051   0.005020  -0.064313   0.008988   0.403749
    13  H    1.093267  -0.006239   0.000099  -0.000043  -0.000005   0.000193
    14  C   -0.006239   5.040942  -0.042840   0.342085  -0.061079  -0.080107
    15  H    0.000099  -0.042840   0.429291  -0.003411   0.003907  -0.000100
    16  O   -0.000043   0.342085  -0.003411   8.069965   0.276622   0.002937
    17  H   -0.000005  -0.061079   0.003907   0.276622   0.337746  -0.000671
    18  O    0.000193  -0.080107  -0.000100   0.002937  -0.000671   7.944802
    19  C    0.001262  -0.013403  -0.000001  -0.004329   0.000126   0.260342
    20  H   -0.000092  -0.001116  -0.000005  -0.000018  -0.000017  -0.035487
    21  H   -0.000027  -0.000093  -0.000000   0.000015  -0.000016  -0.022243
    22  H    0.000125   0.011459   0.000008   0.011249   0.000161  -0.032675
    23  C    0.000000  -0.000000  -0.000000   0.000000  -0.000000  -0.000000
    24  H    0.000000   0.000000  -0.000000   0.000000  -0.000000  -0.000000
    25  C   -0.000000   0.000000   0.000000  -0.000000  -0.000000  -0.000000
    26  H    0.000000  -0.000000  -0.000000  -0.000000   0.000000   0.000000
    27  C    0.000001  -0.000000   0.000000  -0.000000  -0.000000  -0.000000
    28  O    0.000000   0.000000   0.000000   0.000000  -0.000000  -0.000000
    29  C    0.000000   0.000000  -0.000000   0.000000   0.000000  -0.000000
    30  C   -0.000000  -0.000000   0.000000   0.000000   0.000000   0.000000
    31  C   -0.000000   0.000000   0.000000   0.000000  -0.000000  -0.000000
    32  C   -0.000000  -0.000000   0.000000   0.000000   0.000000   0.000000
    33  H    0.000000   0.000000  -0.000000  -0.000000   0.000000   0.000000
    34  C   -0.000000   0.000000   0.000000   0.000000  -0.000000   0.000000
    35  H    0.000000   0.000000   0.000000   0.000000  -0.000000  -0.000000
    36  C    0.000000   0.000000  -0.000000   0.000000   0.000000   0.000000
    37  H    0.000000  -0.000000  -0.000000   0.000000   0.000000   0.000000
    38  O   -0.000000   0.000000   0.000000   0.000000   0.000000   0.000000
    39  H    0.000000   0.000000  -0.000000   0.000000   0.000000   0.000000
    40  O    0.000000   0.000000  -0.000000   0.000000   0.000000   0.000000
    41  C    0.000000   0.000000  -0.000000   0.000000   0.000000   0.000000
    42  H    0.000000   0.000000   0.000000   0.000000  -0.000000   0.000000
    43  H   -0.000000   0.000000   0.000000   0.000000   0.000000   0.000000
    44  H    0.000000   0.000000  -0.000000   0.000000   0.000000   0.000000
    45  C   -0.000023   0.000000  -0.000000   0.000000   0.000000   0.000000
    46  H   -0.000001   0.000000   0.000000   0.000000   0.000000   0.000000
    47  H   -0.000010   0.000000  -0.000000  -0.000000  -0.000000   0.000000
    48  O   -0.001969  -0.000646   0.000000   0.000000  -0.000000  -0.000243
    49  O    0.000981  -0.000118   0.000000   0.000000  -0.000001  -0.000760
    50  N   -0.029109   0.002771   0.000009  -0.000014   0.000008  -0.000280
              19         20         21         22         23         24
     1  C    0.000018   0.000001  -0.000000  -0.000000  -0.000121  -0.000327
     2  H   -0.000000  -0.000000   0.000000   0.000000  -0.000353  -0.000095
     3  C   -0.000002   0.000004  -0.000000   0.000000  -0.000205   0.002421
     4  H    0.000001  -0.000021  -0.000001   0.000001   0.000028  -0.000157
     5  C   -0.000000   0.000000  -0.000000   0.000000  -0.005425  -0.004360
     6  O   -0.000000   0.000000  -0.000000  -0.000000  -0.007968   0.029609
     7  C    0.000655  -0.000844   0.000026   0.000126  -0.000000   0.000007
     8  C   -0.000052   0.000048  -0.000007  -0.000057   0.000000  -0.000000
     9  C   -0.000752   0.009029  -0.000171  -0.002535  -0.000000  -0.000000
    10  C   -0.000457  -0.000089   0.000045   0.000270   0.000000  -0.000000
    11  H   -0.000001   0.000001  -0.000000   0.000002   0.000000   0.000000
    12  C   -0.096217  -0.003313   0.004633  -0.018632  -0.000000  -0.000000
    13  H    0.001262  -0.000092  -0.000027   0.000125   0.000000   0.000000
    14  C   -0.013403  -0.001116  -0.000093   0.011459  -0.000000   0.000000
    15  H   -0.000001  -0.000005  -0.000000   0.000008  -0.000000  -0.000000
    16  O   -0.004329  -0.000018   0.000015   0.011249   0.000000   0.000000
    17  H    0.000126  -0.000017  -0.000016   0.000161  -0.000000  -0.000000
    18  O    0.260342  -0.035487  -0.022243  -0.032675  -0.000000  -0.000000
    19  C    5.190157   0.367299   0.382289   0.372414  -0.000000  -0.000000
    20  H    0.367299   0.498880  -0.026039  -0.039469   0.000000  -0.000000
    21  H    0.382289  -0.026039   0.452154  -0.026789   0.000000   0.000000
    22  H    0.372414  -0.039469  -0.026789   0.489807  -0.000000  -0.000000
    23  C   -0.000000   0.000000   0.000000  -0.000000   5.179209   0.362269
    24  H   -0.000000  -0.000000   0.000000  -0.000000   0.362269   0.467695
    25  C    0.000000  -0.000000  -0.000000   0.000000   0.452498  -0.055255
    26  H   -0.000000  -0.000000   0.000000   0.000000  -0.028381   0.004949
    27  C    0.000000  -0.000000  -0.000000   0.000000  -0.017484  -0.009422
    28  O   -0.000000   0.000000  -0.000000  -0.000000   0.006778   0.000164
    29  C   -0.000000   0.000000   0.000000  -0.000000   0.390014  -0.041994
    30  C    0.000000   0.000000  -0.000000   0.000000  -0.054700  -0.009733
    31  C    0.000000  -0.000000  -0.000000   0.000000  -0.062784   0.008954
    32  C    0.000000  -0.000000   0.000000  -0.000000   0.010766   0.000316
    33  H    0.000000   0.000000   0.000000  -0.000000  -0.004830   0.004552
    34  C    0.000000  -0.000000  -0.000000   0.000000   0.007954  -0.000197
    35  H   -0.000000   0.000000  -0.000000  -0.000000  -0.017298   0.000042
    36  C    0.000000   0.000000   0.000000  -0.000000  -0.001174   0.000016
    37  H   -0.000000  -0.000000   0.000000  -0.000000  -0.000415  -0.000039
    38  O    0.000000   0.000000   0.000000   0.000000  -0.000002  -0.000000
    39  H    0.000000  -0.000000   0.000000   0.000000  -0.000006   0.000000
    40  O    0.000000   0.000000   0.000000   0.000000  -0.000143   0.000001
    41  C    0.000000   0.000000   0.000000   0.000000   0.000013  -0.000000
    42  H    0.000000  -0.000000   0.000000   0.000000   0.000022   0.000000
    43  H    0.000000   0.000000   0.000000   0.000000  -0.000000   0.000000
    44  H    0.000000   0.000000   0.000000   0.000000  -0.000004  -0.000000
    45  C   -0.000000   0.000000   0.000000  -0.000000   0.006280  -0.004028
    46  H    0.000000  -0.000000  -0.000000   0.000000  -0.004056   0.004391
    47  H    0.000000  -0.000000  -0.000000   0.000000   0.000440   0.000667
    48  O    0.001934   0.004348   0.000048   0.000083  -0.000000  -0.000000
    49  O   -0.000087   0.000071   0.000003  -0.000004   0.000000   0.000000
    50  N   -0.000799  -0.000069  -0.000053   0.000065   0.000000   0.000000
              25         26         27         28         29         30
     1  C   -0.000409   0.000034  -0.005140  -0.010479  -0.000001   0.000000
     2  H    0.002793  -0.000198  -0.004966   0.037197   0.000009  -0.000000
     3  C    0.001907  -0.000031   0.004692  -0.001788   0.000015  -0.000004
     4  H   -0.000019  -0.000002  -0.000475  -0.000048  -0.000003   0.000000
     5  C    0.005194  -0.000446  -0.050558   0.002206   0.000295  -0.000058
     6  O   -0.001096  -0.000045   0.001996   0.000010   0.000807  -0.000264
     7  C    0.000004  -0.000004   0.000283   0.001171   0.000000  -0.000000
     8  C   -0.000004   0.000000  -0.000086  -0.000329  -0.000000   0.000000
     9  C    0.000001  -0.000000   0.000007   0.000019   0.000000  -0.000000
    10  C   -0.000000   0.000000  -0.000000  -0.000003  -0.000000   0.000000
    11  H   -0.000002   0.000000  -0.000024  -0.000169  -0.000000   0.000000
    12  C    0.000000  -0.000000   0.000000  -0.000000  -0.000000  -0.000000
    13  H   -0.000000   0.000000   0.000001   0.000000   0.000000  -0.000000
    14  C    0.000000  -0.000000  -0.000000   0.000000   0.000000  -0.000000
    15  H    0.000000  -0.000000   0.000000   0.000000  -0.000000   0.000000
    16  O   -0.000000  -0.000000  -0.000000   0.000000   0.000000   0.000000
    17  H   -0.000000   0.000000  -0.000000  -0.000000   0.000000   0.000000
    18  O   -0.000000   0.000000  -0.000000  -0.000000  -0.000000   0.000000
    19  C    0.000000  -0.000000   0.000000  -0.000000  -0.000000   0.000000
    20  H   -0.000000  -0.000000  -0.000000   0.000000   0.000000   0.000000
    21  H   -0.000000   0.000000  -0.000000  -0.000000   0.000000  -0.000000
    22  H    0.000000   0.000000   0.000000  -0.000000  -0.000000   0.000000
    23  C    0.452498  -0.028381  -0.017484   0.006778   0.390014  -0.054700
    24  H   -0.055255   0.004949  -0.009422   0.000164  -0.041994  -0.009733
    25  C    5.395822   0.353879   0.397646  -0.092612  -0.020584   0.006149
    26  H    0.353879   0.478468  -0.044011   0.015831  -0.015659   0.000030
    27  C    0.397646  -0.044011   4.555282   0.633637   0.002163  -0.000156
    28  O   -0.092612   0.015831   0.633637   7.853237  -0.000190   0.000001
    29  C   -0.020584  -0.015659   0.002163  -0.000190   4.856405   0.507889
    30  C    0.006149   0.000030  -0.000156   0.000001   0.507889   5.098171
    31  C   -0.013306   0.005044   0.000082  -0.000012   0.428683  -0.088795
    32  C   -0.000496   0.000083   0.000004   0.000000  -0.023159   0.413054
    33  H    0.000481  -0.000009  -0.000055  -0.000000  -0.044253   0.393312
    34  C    0.000434   0.000602  -0.000032  -0.000000  -0.005173  -0.033236
    35  H    0.006959  -0.002432   0.000108  -0.000177  -0.037667   0.008575
    36  C    0.000011  -0.000168   0.000000  -0.000000  -0.049110   0.004883
    37  H    0.000008   0.000001  -0.000000   0.000000   0.004452  -0.025204
    38  O    0.000000   0.000000  -0.000000   0.000000  -0.000467   0.007869
    39  H    0.000000  -0.000000   0.000000   0.000000  -0.000132   0.001473
    40  O   -0.000002  -0.000107  -0.000000   0.000000   0.005387  -0.000272
    41  C   -0.000003   0.000004  -0.000000   0.000000  -0.000394   0.000143
    42  H   -0.000002   0.000011   0.000000   0.000000  -0.001070  -0.000138
    43  H    0.000000   0.000001  -0.000000  -0.000000   0.000042  -0.000010
    44  H   -0.000000  -0.000003  -0.000000   0.000000   0.000119   0.000034
    45  C   -0.125569   0.013676   0.222956  -0.100313  -0.002466   0.000138
    46  H    0.001201  -0.000490  -0.016181   0.002506   0.000440  -0.000112
    47  H    0.004542  -0.000285  -0.034710   0.000723   0.000057  -0.000001
    48  O    0.000000   0.000000   0.000000  -0.000000  -0.000000   0.000000
    49  O   -0.000001   0.000000  -0.000001   0.000000   0.000000  -0.000000
    50  N   -0.000000   0.000000  -0.000001  -0.000000   0.000000  -0.000000
              31         32         33         34         35         36
     1  C   -0.000000   0.000000  -0.000000   0.000000  -0.000000  -0.000000
     2  H    0.000000  -0.000000   0.000000   0.000000   0.000001   0.000000
     3  C    0.000001  -0.000000   0.000000   0.000000   0.000000   0.000000
     4  H   -0.000000   0.000000   0.000000  -0.000000  -0.000000   0.000000
     5  C   -0.000002  -0.000001  -0.000006   0.000000   0.000002   0.000000
     6  O    0.000008  -0.000002   0.000080  -0.000000   0.000001   0.000000
     7  C    0.000000  -0.000000   0.000000  -0.000000   0.000000   0.000000
     8  C   -0.000000   0.000000  -0.000000  -0.000000  -0.000000  -0.000000
     9  C    0.000000  -0.000000   0.000000   0.000000   0.000000  -0.000000
    10  C   -0.000000   0.000000  -0.000000  -0.000000  -0.000000  -0.000000
    11  H   -0.000000   0.000000   0.000000  -0.000000  -0.000000   0.000000
    12  C    0.000000  -0.000000  -0.000000   0.000000   0.000000  -0.000000
    13  H   -0.000000  -0.000000   0.000000  -0.000000   0.000000   0.000000
    14  C    0.000000  -0.000000   0.000000   0.000000   0.000000   0.000000
    15  H    0.000000   0.000000  -0.000000   0.000000   0.000000  -0.000000
    16  O    0.000000   0.000000  -0.000000   0.000000   0.000000   0.000000
    17  H   -0.000000   0.000000   0.000000  -0.000000  -0.000000   0.000000
    18  O   -0.000000   0.000000   0.000000   0.000000  -0.000000   0.000000
    19  C    0.000000   0.000000   0.000000   0.000000  -0.000000   0.000000
    20  H   -0.000000  -0.000000   0.000000  -0.000000   0.000000   0.000000
    21  H   -0.000000   0.000000   0.000000  -0.000000  -0.000000   0.000000
    22  H    0.000000  -0.000000  -0.000000   0.000000  -0.000000  -0.000000
    23  C   -0.062784   0.010766  -0.004830   0.007954  -0.017298  -0.001174
    24  H    0.008954   0.000316   0.004552  -0.000197   0.000042   0.000016
    25  C   -0.013306  -0.000496   0.000481   0.000434   0.006959   0.000011
    26  H    0.005044   0.000083  -0.000009   0.000602  -0.002432  -0.000168
    27  C    0.000082   0.000004  -0.000055  -0.000032   0.000108   0.000000
    28  O   -0.000012   0.000000  -0.000000  -0.000000  -0.000177  -0.000000
    29  C    0.428683  -0.023159  -0.044253  -0.005173  -0.037667  -0.049110
    30  C   -0.088795   0.413054   0.393312  -0.033236   0.008575   0.004883
    31  C    5.216371  -0.037956   0.006985   0.518082   0.379214  -0.061268
    32  C   -0.037956   5.329458  -0.037658  -0.055153  -0.002749   0.357614
    33  H    0.006985  -0.037658   0.452954  -0.000914  -0.000188   0.005812
    34  C    0.518082  -0.055153  -0.000914   4.955321  -0.059010   0.285030
    35  H    0.379214  -0.002749  -0.000188  -0.059010   0.470399   0.016540
    36  C   -0.061268   0.357614   0.005812   0.285030   0.016540   5.041429
    37  H    0.000377   0.382950  -0.005984   0.004009   0.000058  -0.041875
[...]
    47  H(1)              -0.00000      -0.00241      -0.00086      -0.00080
    48  O(17)              0.00323      -1.95957      -0.69922      -0.65364
    49  O(17)              0.00030      -0.18397      -0.06564      -0.06137
    50  N(14)             -0.00024      -0.07907      -0.02822      -0.02638
 --------------------------------------------------------
       Center         ----  Spin Dipole Couplings  ----
                      3XX-RR        3YY-RR        3ZZ-RR
 --------------------------------------------------------
     1   Atom        0.001118     -0.001313      0.000195
     2   Atom        0.000480      0.000029     -0.000509
     3   Atom        0.003028     -0.001576     -0.001452
     4   Atom        0.004182     -0.002883     -0.001298
     5   Atom        0.001864     -0.000977     -0.000887
     6   Atom        0.001655     -0.000659     -0.000997
     7   Atom       -0.001624     -0.001380      0.003004
     8   Atom       -0.001714      0.000993      0.000721
     9   Atom       -0.003149     -0.004772      0.007921
    10   Atom       -0.001542      0.000480      0.001061
    11   Atom       -0.001021      0.001255     -0.000233
    12   Atom       -0.003255     -0.003280      0.006535
    13   Atom        0.000091      0.000053     -0.000144
    14   Atom       -0.001459     -0.000862      0.002321
    15   Atom       -0.000881      0.000659      0.000222
    16   Atom       -0.000363     -0.000671      0.001034
    17   Atom       -0.000256     -0.000252      0.000508
    18   Atom       -0.002415     -0.002117      0.004532
    19   Atom       -0.001582     -0.002531      0.004113
    20   Atom       -0.001115     -0.002358      0.003473
    21   Atom       -0.000562     -0.000475      0.001037
    22   Atom        0.000330     -0.001517      0.001187
    23   Atom        0.000398     -0.000210     -0.000188
    24   Atom        0.000541     -0.000274     -0.000267
    25   Atom        0.000365     -0.000193     -0.000173
    26   Atom        0.000240     -0.000139     -0.000102
    27   Atom        0.000483     -0.000207     -0.000276
    28   Atom        0.000289     -0.000092     -0.000197
    29   Atom        0.000270     -0.000148     -0.000122
    30   Atom        0.000259     -0.000135     -0.000124
    31   Atom        0.000182     -0.000107     -0.000075
    32   Atom        0.000180     -0.000094     -0.000086
    33   Atom        0.000319     -0.000161     -0.000158
    34   Atom        0.000136     -0.000081     -0.000055
    35   Atom        0.000162     -0.000100     -0.000061
    36   Atom        0.000137     -0.000076     -0.000061
    37   Atom        0.000163     -0.000082     -0.000081
    38   Atom        0.000102     -0.000056     -0.000045
    39   Atom        0.000100     -0.000053     -0.000047
    40   Atom        0.000098     -0.000063     -0.000035
    41   Atom        0.000079     -0.000047     -0.000032
    42   Atom        0.000083     -0.000046     -0.000037
    43   Atom        0.000063     -0.000040     -0.000023
    44   Atom        0.000077     -0.000044     -0.000033
    45   Atom        0.000918     -0.000322     -0.000596
    46   Atom        0.000777     -0.000311     -0.000466
    47   Atom        0.000823     -0.000111     -0.000712
    48   Atom       -0.001128     -0.004401      0.005529
    49   Atom        0.002009     -0.001748     -0.000261
    50   Atom       -0.001180     -0.001882      0.003062
 --------------------------------------------------------
                        XY            XZ            YZ
 --------------------------------------------------------
     1   Atom       -0.001882      0.003068     -0.001319
     2   Atom       -0.001520      0.001156     -0.000954
     3   Atom       -0.001528      0.002329     -0.000826
     4   Atom        0.000377      0.003531      0.000207
     5   Atom       -0.000585      0.000588     -0.000096
     6   Atom       -0.000050      0.000122      0.000026
     7   Atom       -0.002213      0.003609     -0.003800
     8   Atom       -0.000786      0.000776     -0.002760
     9   Atom       -0.000327      0.004610     -0.001273
    10   Atom        0.000320     -0.000283     -0.002312
    11   Atom       -0.000856      0.000564     -0.001647
    12   Atom        0.000098     -0.000676     -0.001316
    13   Atom       -0.000002     -0.000082      0.000045
    14   Atom        0.000604     -0.001072     -0.001906
    15   Atom        0.000413     -0.000340     -0.001397
    16   Atom        0.000499     -0.001066     -0.000861
    17   Atom        0.000515     -0.000801     -0.000806
    18   Atom        0.000056     -0.001293     -0.000499
    19   Atom       -0.000658     -0.002859      0.000833
    20   Atom       -0.002461     -0.004999      0.003686
    21   Atom       -0.000667     -0.001242      0.001170
    22   Atom       -0.000186     -0.002241      0.000350
    23   Atom       -0.000110      0.000158     -0.000027
    24   Atom       -0.000104      0.000124     -0.000016
    25   Atom       -0.000196      0.000223     -0.000071
    26   Atom       -0.000157      0.000201     -0.000072
    27   Atom       -0.000406      0.000318     -0.000146
    28   Atom       -0.000438      0.000348     -0.000233
    29   Atom       -0.000040      0.000110     -0.000011
    30   Atom        0.000003      0.000067      0.000001
    31   Atom       -0.000039      0.000104     -0.000014
    32   Atom        0.000015      0.000050      0.000003
    33   Atom        0.000023      0.000042      0.000002
    34   Atom       -0.000016      0.000076     -0.000006
    35   Atom       -0.000060      0.000119     -0.000026
    36   Atom        0.000003      0.000057      0.000001
    37   Atom        0.000030      0.000031      0.000004
    38   Atom        0.000008      0.000043      0.000003
    39   Atom        0.000016      0.000034      0.000003
    40   Atom       -0.000017      0.000069     -0.000007
    41   Atom       -0.000020      0.000049     -0.000007
    42   Atom       -0.000030      0.000046     -0.000010
    43   Atom       -0.000018      0.000047     -0.000008
    44   Atom       -0.000012      0.000039     -0.000004
    45   Atom       -0.000680      0.000256     -0.000097
    46   Atom       -0.000448      0.000035     -0.000014
    47   Atom       -0.000996      0.000203     -0.000127
    48   Atom        0.005842      0.010922      0.007848
    49   Atom       -0.002339      0.000095      0.001270
    50   Atom        0.000110      0.003058      0.001196
 --------------------------------------------------------


 ---------------------------------------------------------------------------------
              Anisotropic Spin Dipole Couplings in Principal Axis System
 ---------------------------------------------------------------------------------

       Atom             a.u.   MegaHertz   Gauss  10(-4) cm-1        Axes

              Baa    -0.0026    -0.345    -0.123    -0.115  0.6946  0.4634 -0.5502
     1 C(13)  Bbb    -0.0021    -0.278    -0.099    -0.093 -0.0805  0.8101  0.5807
              Bcc     0.0046     0.622     0.222     0.208  0.7148 -0.3591  0.6001
 
              Baa    -0.0013    -0.693    -0.247    -0.231  0.7311  0.5154 -0.4471
     2 H(1)   Bbb    -0.0012    -0.657    -0.234    -0.219  0.0326  0.6281  0.7774
              Bcc     0.0025     1.350     0.482     0.450  0.6815 -0.5829  0.4424
 
              Baa    -0.0025    -0.335    -0.120    -0.112 -0.2890  0.3264  0.9000
     3 C(13)  Bbb    -0.0020    -0.270    -0.096    -0.090  0.3710  0.9048 -0.2090
              Bcc     0.0045     0.605     0.216     0.202  0.8825 -0.2735  0.3826
 
              Baa    -0.0030    -1.617    -0.577    -0.539 -0.4274 -0.1591  0.8900
     4 H(1)   Bbb    -0.0029    -1.548    -0.552    -0.516 -0.1132  0.9861  0.1219
              Bcc     0.0059     3.165     1.129     1.056  0.8970  0.0487  0.4394
 
              Baa    -0.0011    -0.147    -0.053    -0.049  0.2290  0.9514 -0.2060
     5 C(13)  Bbb    -0.0010    -0.134    -0.048    -0.045 -0.1470  0.2430  0.9588
              Bcc     0.0021     0.282     0.100     0.094  0.9623 -0.1893  0.1955
 
              Baa    -0.0010     0.073     0.026     0.024 -0.0472 -0.0828  0.9955
     6 O(17)  Bbb    -0.0007     0.048     0.017     0.016  0.0172  0.9963  0.0836
              Bcc     0.0017    -0.120    -0.043    -0.040  0.9987 -0.0211  0.0456
 
              Baa    -0.0037    -0.499    -0.178    -0.166  0.7404  0.6719 -0.0177
     7 C(13)  Bbb    -0.0035    -0.470    -0.168    -0.157 -0.5154  0.5844  0.6268
              Bcc     0.0072     0.969     0.346     0.323  0.4315 -0.4550  0.7789
 
              Baa    -0.0019    -0.261    -0.093    -0.087  0.8687 -0.1954 -0.4552
     8 C(13)  Bbb    -0.0019    -0.254    -0.091    -0.085  0.4554  0.6766  0.5786
              Bcc     0.0038     0.515     0.184     0.172 -0.1950  0.7099 -0.6768
 
              Baa    -0.0050    -0.669    -0.239    -0.223 -0.5409  0.7960  0.2717
     9 C(13)  Bbb    -0.0047    -0.634    -0.226    -0.211  0.7701  0.5986 -0.2205
              Bcc     0.0097     1.303     0.465     0.435  0.3382 -0.0900  0.9368
 
              Baa    -0.0016    -0.218    -0.078    -0.073  0.7707 -0.5208 -0.3672
    10 C(13)  Bbb    -0.0015    -0.203    -0.073    -0.068  0.6308  0.5419  0.5553
              Bcc     0.0031     0.421     0.150     0.141 -0.0903 -0.6596  0.7462
 
              Baa    -0.0013    -0.702    -0.250    -0.234  0.8675 -0.0291 -0.4965
    11 H(1)   Bbb    -0.0013    -0.689    -0.246    -0.230  0.4165  0.5882  0.6932
              Bcc     0.0026     1.391     0.496     0.464 -0.2719  0.8082 -0.5224
 
              Baa    -0.0035    -0.464    -0.165    -0.155 -0.0569  0.9903  0.1266
    12 C(13)  Bbb    -0.0033    -0.443    -0.158    -0.148  0.9961  0.0476  0.0748
              Bcc     0.0068     0.906     0.323     0.302 -0.0681 -0.1303  0.9891
 
              Baa    -0.0002    -0.095    -0.034    -0.032  0.2864 -0.1824  0.9406
    13 H(1)   Bbb     0.0001     0.031     0.011     0.010  0.2888  0.9525  0.0967
              Bcc     0.0001     0.064     0.023     0.021  0.9135 -0.2440 -0.3255
 
              Baa    -0.0018    -0.248    -0.088    -0.083  0.7017 -0.6988 -0.1390
    14 C(13)  Bbb    -0.0017    -0.224    -0.080    -0.075  0.6710  0.5826  0.4587
              Bcc     0.0035     0.472     0.168     0.157 -0.2395 -0.4151  0.8777
 
              Baa    -0.0010    -0.528    -0.188    -0.176  0.8242 -0.4720 -0.3129
    15 H(1)   Bbb    -0.0010    -0.516    -0.184    -0.172  0.5351  0.4682  0.7032
              Bcc     0.0020     1.044     0.372     0.348  0.1855  0.7470 -0.6384
 
              Baa    -0.0011     0.076     0.027     0.025 -0.3763  0.9083  0.1827
    16 O(17)  Bbb    -0.0009     0.067     0.024     0.023  0.8109  0.2275  0.5392
              Bcc     0.0020    -0.144    -0.051    -0.048 -0.4482 -0.3511  0.8221
 
              Baa    -0.0008    -0.411    -0.146    -0.137 -0.6486  0.7577  0.0717
    17 H(1)   Bbb    -0.0008    -0.405    -0.144    -0.135  0.5979  0.4490  0.6641
              Bcc     0.0015     0.815     0.291     0.272 -0.4710 -0.4736  0.7442
 
              Baa    -0.0026     0.192     0.068     0.064  0.9812  0.0661  0.1812
    18 O(17)  Bbb    -0.0022     0.156     0.056     0.052 -0.0780  0.9952  0.0592
              Bcc     0.0048    -0.347    -0.124    -0.116 -0.1764 -0.0722  0.9817
 
              Baa    -0.0030    -0.403    -0.144    -0.135  0.7406  0.6338  0.2232
    19 C(13)  Bbb    -0.0024    -0.325    -0.116    -0.109 -0.5510  0.7630 -0.3380
              Bcc     0.0054     0.729     0.260     0.243 -0.3846  0.1274  0.9143
 
              Baa    -0.0044    -2.322    -0.829    -0.775  0.8555  0.3496  0.3819
    20 H(1)   Bbb    -0.0041    -2.208    -0.788    -0.736 -0.1276  0.8572 -0.4990
              Bcc     0.0085     4.530     1.616     1.511 -0.5018  0.3782  0.7779
 
              Baa    -0.0012    -0.664    -0.237    -0.221  0.8991  0.1615  0.4069
    21 H(1)   Bbb    -0.0011    -0.593    -0.212    -0.198  0.0470  0.8884 -0.4566
              Bcc     0.0024     1.256     0.448     0.419 -0.4352  0.4297  0.7912
 
              Baa    -0.0016    -0.863    -0.308    -0.288 -0.4568  0.7613 -0.4602
    22 H(1)   Bbb    -0.0015    -0.777    -0.277    -0.259  0.6241  0.6429  0.4440
              Bcc     0.0031     1.640     0.585     0.547 -0.6339  0.0844  0.7688
 
              Baa    -0.0002    -0.031    -0.011    -0.010  0.2599  0.8620 -0.4352
    23 C(13)  Bbb    -0.0002    -0.031    -0.011    -0.010 -0.1345  0.4786  0.8677
              Bcc     0.0005     0.061     0.022     0.020  0.9562 -0.1669  0.2403
 
              Baa    -0.0003    -0.153    -0.055    -0.051  0.1113  0.9900  0.0864
    24 H(1)   Bbb    -0.0003    -0.152    -0.054    -0.051 -0.1567 -0.0683  0.9853
              Bcc     0.0006     0.306     0.109     0.102  0.9814 -0.1232  0.1476
 
              Baa    -0.0003    -0.034    -0.012    -0.011  0.2951  0.9553  0.0189
    25 C(13)  Bbb    -0.0003    -0.034    -0.012    -0.011 -0.3161  0.0789  0.9454
              Bcc     0.0005     0.068     0.024     0.023  0.9017 -0.2849  0.3252
 
              Baa    -0.0002    -0.104    -0.037    -0.035  0.3781  0.9204 -0.0994
    26 H(1)   Bbb    -0.0002    -0.104    -0.037    -0.035 -0.3359  0.2364  0.9117
              Bcc     0.0004     0.208     0.074     0.069  0.8627 -0.3114  0.3985
 
              Baa    -0.0004    -0.053    -0.019    -0.018  0.4717  0.8568 -0.2083
    27 C(13)  Bbb    -0.0004    -0.053    -0.019    -0.018 -0.1851  0.3272  0.9267
              Bcc     0.0008     0.106     0.038     0.035  0.8621 -0.3986  0.3129
 
              Baa    -0.0004     0.028     0.010     0.009  0.1266  0.7291  0.6726
    28 O(17)  Bbb    -0.0004     0.027     0.010     0.009  0.6310  0.4640 -0.6217
              Bcc     0.0008    -0.055    -0.020    -0.018  0.7654 -0.5031  0.4013
 
              Baa    -0.0002    -0.020    -0.007    -0.007  0.0359  0.9753  0.2181
    29 C(13)  Bbb    -0.0002    -0.020    -0.007    -0.007 -0.2656 -0.2011  0.9429
              Bcc     0.0003     0.041     0.014     0.014  0.9634 -0.0918  0.2518
 
              Baa    -0.0001    -0.018    -0.006    -0.006  0.0724  0.8789 -0.4715
    30 C(13)  Bbb    -0.0001    -0.018    -0.006    -0.006 -0.1508  0.4769  0.8659
              Bcc     0.0003     0.036     0.013     0.012  0.9859  0.0084  0.1671
 
              Baa    -0.0001    -0.015    -0.005    -0.005  0.2699  0.8574 -0.4382
    31 C(13)  Bbb    -0.0001    -0.015    -0.005    -0.005 -0.2294  0.4992  0.8356
              Bcc     0.0002     0.030     0.011     0.010  0.9352 -0.1250  0.3314
 
              Baa    -0.0001    -0.013    -0.005    -0.004 -0.1138  0.9333  0.3406
    32 C(13)  Bbb    -0.0001    -0.013    -0.005    -0.004 -0.1488 -0.3549  0.9230
              Bcc     0.0002     0.025     0.009     0.008  0.9823  0.0543  0.1793
 
              Baa    -0.0002    -0.087    -0.031    -0.029 -0.0578  0.9907  0.1235
    33 H(1)   Bbb    -0.0002    -0.086    -0.031    -0.029 -0.0803 -0.1280  0.9885
              Bcc     0.0003     0.173     0.062     0.058  0.9951  0.0472  0.0870
 
              Baa    -0.0001    -0.011    -0.004    -0.004 -0.0811  0.9032  0.4216
    34 C(13)  Bbb    -0.0001    -0.011    -0.004    -0.004 -0.3257 -0.4237  0.8452
              Bcc     0.0002     0.022     0.008     0.007  0.9420 -0.0688  0.3285
 
              Baa    -0.0001    -0.060    -0.022    -0.020  0.2351  0.9704 -0.0550
    35 H(1)   Bbb    -0.0001    -0.060    -0.022    -0.020 -0.3683  0.1413  0.9189
              Bcc     0.0002     0.121     0.043     0.040  0.8995 -0.1958  0.3906
 
              Baa    -0.0001    -0.010    -0.004    -0.003  0.1496  0.7826 -0.6043
    36 C(13)  Bbb    -0.0001    -0.010    -0.004    -0.003 -0.2094  0.6224  0.7542
              Bcc     0.0002     0.020     0.007     0.007  0.9663  0.0137  0.2570
 
              Baa    -0.0001    -0.046    -0.016    -0.015 -0.1304  0.9862  0.1023
    37 H(1)   Bbb    -0.0001    -0.046    -0.016    -0.015 -0.1090 -0.1168  0.9872
              Bcc     0.0002     0.091     0.033     0.030  0.9855  0.1175  0.1227
 
              Baa    -0.0001     0.004     0.001     0.001  0.1455  0.7279 -0.6700
    38 O(17)  Bbb    -0.0001     0.004     0.001     0.001 -0.2239  0.6839  0.6944
              Bcc     0.0001    -0.008    -0.003    -0.003  0.9637  0.0490  0.2624
 
              Baa    -0.0001    -0.029    -0.010    -0.010 -0.1486  0.9622  0.2283
    39 H(1)   Bbb    -0.0001    -0.029    -0.010    -0.010 -0.1851 -0.2539  0.9494
              Bcc     0.0001     0.058     0.021     0.019  0.9714  0.0988  0.2158
 
              Baa    -0.0001     0.005     0.002     0.002  0.0112  0.9766  0.2150
    40 O(17)  Bbb    -0.0001     0.005     0.002     0.002 -0.4023 -0.1924  0.8951
              Bcc     0.0001    -0.009    -0.003    -0.003  0.9154 -0.0965  0.3907
 
              Baa    -0.0001    -0.007    -0.002    -0.002  0.1616  0.9865 -0.0279
    41 C(13)  Bbb    -0.0001    -0.007    -0.002    -0.002 -0.3392  0.0821  0.9371
              Bcc     0.0001     0.013     0.005     0.005  0.9267 -0.1419  0.3479
 
              Baa    -0.0001    -0.028    -0.010    -0.009  0.2339  0.9709 -0.0505
    42 H(1)   Bbb    -0.0001    -0.028    -0.010    -0.009 -0.2909  0.1195  0.9493
              Bcc     0.0001     0.056     0.020     0.019  0.9277 -0.2074  0.3104
 
              Baa    -0.0000    -0.023    -0.008    -0.008  0.1942  0.9792 -0.0584
    43 H(1)   Bbb    -0.0000    -0.023    -0.008    -0.008 -0.3808  0.1301  0.9155
              Bcc     0.0001     0.047     0.017     0.016  0.9040 -0.1556  0.3982
 
              Baa    -0.0000    -0.024    -0.009    -0.008  0.1053  0.9944 -0.0117
    44 H(1)   Bbb    -0.0000    -0.024    -0.009    -0.008 -0.3021  0.0432  0.9523
              Bcc     0.0001     0.048     0.017     0.016  0.9474 -0.0967  0.3050
 
              Baa    -0.0006    -0.087    -0.031    -0.029 -0.3269 -0.4365  0.8382
    45 C(13)  Bbb    -0.0006    -0.082    -0.029    -0.027  0.2705  0.8067  0.5255
              Bcc     0.0013     0.169     0.060     0.056  0.9055 -0.3985  0.1456
 
              Baa    -0.0005    -0.252    -0.090    -0.084  0.3191  0.9105  0.2629
    46 H(1)   Bbb    -0.0005    -0.249    -0.089    -0.083 -0.1131 -0.2388  0.9645
              Bcc     0.0009     0.501     0.179     0.167  0.9409 -0.3375  0.0267
 
              Baa    -0.0007    -0.397    -0.142    -0.132  0.5392  0.7889 -0.2947
    47 H(1)   Bbb    -0.0007    -0.394    -0.140    -0.131  0.0714  0.3058  0.9494
              Bcc     0.0015     0.791     0.282     0.264  0.8391 -0.5330  0.1086
 
              Baa    -0.0092     0.667     0.238     0.222  0.8125 -0.0377 -0.5817
    48 O(17)  Bbb    -0.0087     0.629     0.224     0.210 -0.2059  0.9150 -0.3469
              Bcc     0.0179    -1.296    -0.462    -0.432  0.5454  0.4016  0.7357
 
              Baa    -0.0033     0.241     0.086     0.080  0.3791  0.8509 -0.3636
    49 O(17)  Bbb     0.0001    -0.010    -0.004    -0.003  0.2855  0.2662  0.9207
              Bcc     0.0032    -0.231    -0.083    -0.077  0.8802 -0.4528 -0.1420
 
              Baa    -0.0030    -0.116    -0.041    -0.039  0.7689  0.4302 -0.4729
    50 N(14)  Bbb    -0.0018    -0.071    -0.025    -0.024 -0.4553  0.8878  0.0674
              Bcc     0.0048     0.187     0.067     0.062  0.4488  0.1635  0.8785
 

 ---------------------------------------------------------------------------------


 This type of calculation cannot be archived.


 THE WISE MAN HAS THE POWER TO REASON AWAY
 WHAT A FOOL BELIEVES.
                     - DOOBIE BROTHERS
 Job cpu time:       0 days 13 hours 25 minutes  4.0 seconds.
 Elapsed time:       0 days 13 hours 26 minutes 15.2 seconds.
 File lengths (MBytes):  RWF=   3730 Int=      0 D2E=      0 Chk=     56 Scr=      1
 Normal termination of Gaussian 16 at Thu Oct 24 22:41:37 2024.
