 Entering Gaussian System, Link 0=g16
 Initial command:
 /sw/cluster/pub/apps//g16/l1.exe "/data/natrosa/25413/Gau-193332.inp" -scrdir="/data/natrosa/25413/"
 Entering Link 1 = /sw/cluster/pub/apps//g16/l1.exe PID=    193333.
  
 Copyright (c) 1988,1990,1992,1993,1995,1998,2003,2009,2016,
            Gaussian, Inc.  All Rights Reserved.
  
 This is part of the Gaussian(R) 16 program.  It is based on
 the Gaussian(R) 09 system (copyright 2009, Gaussian, Inc.),
 the Gaussian(R) 03 system (copyright 2003, Gaussian, Inc.),
 the Gaussian(R) 98 system (copyright 1998, Gaussian, Inc.),
 the Gaussian(R) 94 system (copyright 1995, Gaussian, Inc.),
 the Gaussian 92(TM) system (copyright 1992, Gaussian, Inc.),
 the Gaussian 90(TM) system (copyright 1990, Gaussian, Inc.),
 the Gaussian 88(TM) system (copyright 1988, Gaussian, Inc.),
 the Gaussian 86(TM) system (copyright 1986, Carnegie Mellon
 University), and the Gaussian 82(TM) system (copyright 1983,
 Carnegie Mellon University). Gaussian is a federally registered
 trademark of Gaussian, Inc.
  
 This software contains proprietary and confidential information,
 including trade secrets, belonging to Gaussian, Inc.
  
 This software is provided under written license and may be
 used, copied, transmitted, or stored only in accord with that
 written license.
  
 The following legend is applicable only to US Government
 contracts under FAR:
  
                    RESTRICTED RIGHTS LEGEND
  
 Use, reproduction and disclosure by the US Government is
 subject to restrictions as set forth in subparagraphs (a)
 and (c) of the Commercial Computer Software - Restricted
 Rights clause in FAR 52.227-19.
  
 Gaussian, Inc.
 340 Quinnipiac St., Bldg. 40, Wallingford CT 06492
  
  
 ---------------------------------------------------------------
 Warning -- This program may not be used in any manner that
 competes with the business of Gaussian, Inc. or will provide
 assistance to any competitor of Gaussian, Inc.  The licensee
 of this program is prohibited from giving any competitor of
 Gaussian, Inc. access to this program.  By using this program,
 the user acknowledges that Gaussian, Inc. is engaged in the
 business of creating and licensing software in the field of
 computational chemistry and represents and warrants to the
 licensee that it is not a competitor of Gaussian, Inc. and that
 it will not use this program in any manner prohibited above.
 ---------------------------------------------------------------
  

 Cite this work as:
 Gaussian 16, Revision A.03,
 M. J. Frisch, G. W. Trucks, H. B. Schlegel, G. E. Scuseria, 
 M. A. Robb, J. R. Cheeseman, G. Scalmani, V. Barone, 
 G. A. Petersson, H. Nakatsuji, X. Li, M. Caricato, A. V. Marenich, 
 J. Bloino, B. G. Janesko, R. Gomperts, B. Mennucci, H. P. Hratchian, 
 J. V. Ortiz, A. F. Izmaylov, J. L. Sonnenberg, D. Williams-Young, 
 F. Ding, F. Lipparini, F. Egidi, J. Goings, B. Peng, A. Petrone, 
 T. Henderson, D. Ranasinghe, V. G. Zakrzewski, J. Gao, N. Rega, 
 G. Zheng, W. Liang, M. Hada, M. Ehara, K. Toyota, R. Fukuda, 
 J. Hasegawa, M. Ishida, T. Nakajima, Y. Honda, O. Kitao, H. Nakai, 
 T. Vreven, K. Throssell, J. A. Montgomery, Jr., J. E. Peralta, 
 F. Ogliaro, M. J. Bearpark, J. J. Heyd, E. N. Brothers, K. N. Kudin, 
 V. N. Staroverov, T. A. Keith, R. Kobayashi, J. Normand, 
 K. Raghavachari, A. P. Rendell, J. C. Burant, S. S. Iyengar, 
 J. Tomasi, M. Cossi, J. M. Millam, M. Klene, C. Adamo, R. Cammi, 
 J. W. Ochterski, R. L. Martin, K. Morokuma, O. Farkas, 
 J. B. Foresman, and D. J. Fox, Gaussian, Inc., Wallingford CT, 2016.
 
 ******************************************
 Gaussian 16:  ES64L-G16RevA.03 25-Dec-2016
                 6-Nov-2024 
 ******************************************
 %oldchk=/home/natrosa/MOSSRI/REACAO-1/B3LYP-6-311G/CURCUMIN-OPT-FREQ-TS-B3LYP-6-
 311G-D-298.chk
 %chk=CURCUMIN-TS-1-B3LYP-6-311G-D-298-NBO.chk
 Copying data from "/home/natrosa/MOSSRI/REACAO-1/B3LYP-6-311G/CURCUMIN-OPT-FREQ-TS-B3LYP-6-311G-D-298.chk" to current chk file "CURCUMIN-TS-1-B3LYP-6-311G-D-298-NBO.chk"
 IOpt=  2 FromEx=T IUOpen= 4 IOptOp= 5 NList=   0 IFRang= 0 IUIn= 4 IUOut= 2.
 ----------------------------------------------------------------------
 # pop=nbo b3lyp/6-311g(d) scrf=(smd,solvent=generic,read) temperature=
 298.15 Geom=Check Guess=Read
 ----------------------------------------------------------------------
 1/29=2,38=1,40=2,112=298150,172=1/1;
 2/12=2,40=1/2;
 3/5=4,6=6,7=1,11=2,14=-4,25=1,30=1,70=32203,72=-2,74=-5,116=-2/1,2,3;
 4/5=1/1;
 5/5=2,38=6/2;
 6/7=2,8=2,9=2,10=2,28=1,40=1/1,7;
 99/5=1,9=1/99;
 ----------
 Reagente 1
 ----------
 Structure from the checkpoint file:  "CURCUMIN-TS-1-B3LYP-6-311G-D-298-NBO.chk"
 Charge =  0 Multiplicity = 2
 Redundant internal coordinates found in file.  (old form).
 C,0,2.2534838946,1.0340014868,0.566147563
 H,0,1.8249678539,1.9946133827,0.2973051039
 C,0,1.5363967245,0.2128430187,1.3593544319
 H,0,1.9063278625,-0.7538082186,1.6840851695
 C,0,0.194747417,0.512649058,1.8861505932
 O,0,-0.3976150382,-0.327504608,2.5479643972
 C,0,3.5856752453,0.8239282364,0.0170632442
 C,0,4.3067494472,1.9445762357,-0.4097290338
 C,0,4.2857782824,-0.4139930426,-0.0254344846
 C,0,5.6077234261,1.8547389985,-0.8901802993
 H,0,3.8313149699,2.9178012492,-0.3591718962
 C,0,5.5622332169,-0.5466926918,-0.5969440066
 H,0,4.7733638383,-0.4074355026,1.8326301115
 C,0,6.244705353,0.6180682951,-0.9906222783
 H,0,6.1267967362,2.7510537594,-1.2167684112
 O,0,7.488296621,0.4590196593,-1.4989614532
 H,0,7.8479498088,1.3159898421,-1.7698537686
 O,0,6.0691783001,-1.787076329,-0.7985491169
 C,0,7.1780850124,-2.1766324099,0.0424826668
 H,0,6.893091559,-2.1192222604,1.0951694296
 H,0,7.3960166748,-3.2097099494,-0.2220193255
 H,0,8.0511744,-1.5525952176,-0.1496235096
 C,0,-3.0940246876,0.7147651553,0.7400631137
 H,0,-2.7006852081,0.5062766553,1.7309827769
 C,0,-2.3490645907,1.4625151459,-0.1026939934
 H,0,-2.6821186179,1.6772524636,-1.1141043352
 C,0,-1.0371604658,2.0330931209,0.2102312607
 O,0,-0.4071519802,2.6428952064,-0.6449219904
 C,0,-4.3910538138,0.1108605117,0.4693049031
 C,0,-4.9993923628,-0.6637889116,1.4697187939
 C,0,-5.0792688229,0.2703467638,-0.7498440424
 C,0,-6.2342356406,-1.2643832563,1.2599448003
 H,0,-4.4943034171,-0.8038620982,2.4198631444
 C,0,-6.3099314954,-0.3216729209,-0.9733676245
 H,0,-4.6568694139,0.857013762,-1.5576980248
 C,0,-6.8977733449,-1.1084149466,0.0427149857
 H,0,-6.6868821391,-1.8705837166,2.0401662514
 O,0,-8.0921740564,-1.6931197654,-0.2265279197
 H,0,-8.3846988641,-2.2066066358,0.539735527
 O,0,-6.9047215584,-0.1870034549,-2.1998790409
 C,0,-8.1044469746,0.6018004049,-2.226524947
 H,0,-7.9082985507,1.6146578203,-1.8597867016
 H,0,-8.410469,0.649925924,-3.2712113164
 H,0,-8.8992564088,0.1425659061,-1.6360115237
 C,0,-0.4509633027,1.8776454946,1.6224186824
 H,0,-1.2280592982,2.0062476359,2.3755579803
 H,0,0.2815973604,2.6753637222,1.7481360099
 O,0,3.8323737714,-2.4923412555,0.9654243201
 O,0,2.6947787412,-1.9038857086,-0.7832189262
 N,0,3.5383855359,-1.7103550147,0.0770137093
 Recover connectivity data from disk.
                           ----------------------------
                           !    Current Parameters    !
                           ! (Angstroms and Degrees)  !
 --------------------------                            --------------------------
 ! Name  Definition              Value                                          !
 --------------------------------------------------------------------------------
 ! R1    R(1,2)                  1.0857                                         !
 ! R2    R(1,3)                  1.3482                                         !
 ! R3    R(1,7)                  1.4561                                         !
 ! R4    R(3,4)                  1.0848                                         !
 ! R5    R(3,5)                  1.4722                                         !
 ! R6    R(5,6)                  1.2226                                         !
 ! R7    R(5,45)                 1.5329                                         !
 ! R8    R(7,8)                  1.3993                                         !
 ! R9    R(7,9)                  1.4228                                         !
 ! R10   R(8,10)                 1.3898                                         !
 ! R11   R(8,11)                 1.0843                                         !
 ! R12   R(9,12)                 1.4048                                         !
 ! R13   R(9,13)                 1.921                                          !
 ! R14   R(9,50)                 1.4999                                         !
 ! R15   R(10,14)                1.3947                                         !
 ! R16   R(10,15)                1.086                                          !
 ! R17   R(12,14)                1.4062                                         !
 ! R18   R(12,18)                1.3551                                         !
 ! R19   R(14,16)                1.3529                                         !
 ! R20   R(16,17)                0.9681                                         !
 ! R21   R(18,19)                1.4453                                         !
 ! R22   R(19,20)                1.0921                                         !
 ! R23   R(19,21)                1.0884                                         !
 ! R24   R(19,22)                1.0902                                         !
 ! R25   R(23,24)                1.0863                                         !
 ! R26   R(23,25)                1.3507                                         !
 ! R27   R(23,29)                1.4561                                         !
 ! R28   R(25,26)                1.0863                                         !
 ! R29   R(25,27)                1.4644                                         !
 ! R30   R(27,28)                1.2248                                         !
 ! R31   R(27,45)                1.5369                                         !
 ! R32   R(29,30)                1.4039                                         !
 ! R33   R(29,31)                1.409                                          !
 ! R34   R(30,32)                1.3891                                         !
 ! R35   R(30,33)                1.0851                                         !
 ! R36   R(31,34)                1.3838                                         !
 ! R37   R(31,35)                1.0841                                         !
 ! R38   R(32,36)                1.3951                                         !
 ! R39   R(32,37)                1.0868                                         !
 ! R40   R(34,36)                1.4131                                         !
 ! R41   R(34,40)                1.3698                                         !
 ! R42   R(36,38)                1.3568                                         !
 ! R43   R(38,39)                0.9677                                         !
 ! R44   R(40,41)                1.4361                                         !
 ! R45   R(41,42)                1.0949                                         !
 ! R46   R(41,43)                1.0896                                         !
 ! R47   R(41,44)                1.0915                                         !
 ! R48   R(45,46)                1.0898                                         !
 ! R49   R(45,47)                1.0903                                         !
 ! R50   R(48,50)                1.2195                                         !
 ! R51   R(49,50)                1.2203                                         !
 ! A1    A(2,1,3)              118.3377                                         !
 ! A2    A(2,1,7)              113.2894                                         !
 ! A3    A(3,1,7)              128.3588                                         !
 ! A4    A(1,3,4)              122.513                                          !
 ! A5    A(1,3,5)              124.8337                                         !
 ! A6    A(4,3,5)              112.6519                                         !
 ! A7    A(3,5,6)              119.6893                                         !
 ! A8    A(3,5,45)             120.2423                                         !
 ! A9    A(6,5,45)             120.0638                                         !
 ! A10   A(1,7,8)              118.0946                                         !
 ! A11   A(1,7,9)              125.941                                          !
 ! A12   A(8,7,9)              115.73                                           !
 ! A13   A(7,8,10)             122.4168                                         !
 ! A14   A(7,8,11)             118.5975                                         !
 ! A15   A(10,8,11)            118.9854                                         !
 ! A16   A(7,9,12)             122.7806                                         !
 ! A17   A(7,9,13)              95.3381                                         !
 ! A18   A(7,9,50)             120.3155                                         !
 ! A19   A(12,9,13)             99.392                                          !
 ! A20   A(12,9,50)            113.51                                           !
 ! A21   A(13,9,50)             93.6328                                         !
 ! A22   A(8,10,14)            120.6473                                         !
 ! A23   A(8,10,15)            119.8695                                         !
 ! A24   A(14,10,15)           119.4622                                         !
 ! A25   A(9,12,14)            118.4653                                         !
 ! A26   A(9,12,18)            119.138                                          !
 ! A27   A(14,12,18)           122.3427                                         !
 ! A28   A(10,14,12)           119.5135                                         !
 ! A29   A(10,14,16)           123.4448                                         !
 ! A30   A(12,14,16)           116.9971                                         !
 ! A31   A(14,16,17)           110.0346                                         !
 ! A32   A(12,18,19)           116.5641                                         !
 ! A33   A(18,19,20)           110.2753                                         !
 ! A34   A(18,19,21)           105.5479                                         !
 ! A35   A(18,19,22)           110.9549                                         !
 ! A36   A(20,19,21)           109.6569                                         !
 ! A37   A(20,19,22)           110.4104                                         !
 ! A38   A(21,19,22)           109.8835                                         !
 ! A39   A(24,23,25)           118.4047                                         !
 ! A40   A(24,23,29)           114.3645                                         !
 ! A41   A(25,23,29)           127.2191                                         !
 ! A42   A(23,25,26)           121.4184                                         !
 ! A43   A(23,25,27)           125.2025                                         !
 ! A44   A(26,25,27)           113.366                                          !
 ! A45   A(25,27,28)           120.3716                                         !
 ! A46   A(25,27,45)           119.909                                          !
 ! A47   A(28,27,45)           119.7173                                         !
 ! A48   A(23,29,30)           118.8364                                         !
 ! A49   A(23,29,31)           123.2988                                         !
 ! A50   A(30,29,31)           117.8634                                         !
 ! A51   A(29,30,32)           121.0749                                         !
 ! A52   A(29,30,33)           119.5694                                         !
 ! A53   A(32,30,33)           119.3536                                         !
 ! A54   A(29,31,34)           121.7155                                         !
 ! A55   A(29,31,35)           121.0451                                         !
 ! A56   A(34,31,35)           117.2363                                         !
 ! A57   A(30,32,36)           120.4136                                         !
 ! A58   A(30,32,37)           120.199                                          !
 ! A59   A(36,32,37)           119.3835                                         !
 ! A60   A(31,34,36)           119.4708                                         !
 ! A61   A(31,34,40)           119.2578                                         !
 ! A62   A(36,34,40)           121.1939                                         !
 ! A63   A(32,36,34)           119.4558                                         !
 ! A64   A(32,36,38)           122.9325                                         !
 ! A65   A(34,36,38)           117.6084                                         !
 ! A66   A(36,38,39)           109.7336                                         !
 ! A67   A(34,40,41)           115.6826                                         !
 ! A68   A(40,41,42)           110.6243                                         !
 ! A69   A(40,41,43)           106.0618                                         !
 ! A70   A(40,41,44)           111.5436                                         !
 ! A71   A(42,41,43)           109.304                                          !
 ! A72   A(42,41,44)           109.7825                                         !
 ! A73   A(43,41,44)           109.437                                          !
 ! A74   A(5,45,27)            114.1309                                         !
 ! A75   A(5,45,46)            106.6519                                         !
 ! A76   A(5,45,47)            110.4046                                         !
 ! A77   A(27,45,46)           110.5545                                         !
 ! A78   A(27,45,47)           106.7508                                         !
 ! A79   A(46,45,47)           108.2445                                         !
 ! A80   A(9,50,48)            118.9375                                         !
 ! A81   A(9,50,49)            115.6838                                         !
 ! A82   A(48,50,49)           125.3455                                         !
 ! D1    D(2,1,3,4)           -178.87                                           !
 ! D2    D(2,1,3,5)              0.6681                                         !
 ! D3    D(7,1,3,4)             -0.3361                                         !
 ! D4    D(7,1,3,5)            179.202                                          !
 ! D5    D(2,1,7,8)             18.8237                                         !
 ! D6    D(2,1,7,9)           -166.9964                                         !
 ! D7    D(3,1,7,8)           -159.7714                                         !
 ! D8    D(3,1,7,9)             14.4084                                         !
 ! D9    D(1,3,5,6)            176.6064                                         !
 ! D10   D(1,3,5,45)            -4.1695                                         !
 ! D11   D(4,3,5,6)             -3.8157                                         !
 ! D12   D(4,3,5,45)           175.4084                                         !
 ! D13   D(3,5,45,27)           77.8074                                         !
 ! D14   D(3,5,45,46)         -159.8118                                         !
 ! D15   D(3,5,45,47)          -42.4302                                         !
 ! D16   D(6,5,45,27)         -102.9714                                         !
 ! D17   D(6,5,45,46)           19.4094                                         !
 ! D18   D(6,5,45,47)          136.791                                          !
 ! D19   D(1,7,8,10)           176.9661                                         !
 ! D20   D(1,7,8,11)            -2.8144                                         !
 ! D21   D(9,7,8,10)             2.1951                                         !
 ! D22   D(9,7,8,11)          -177.5854                                         !
 ! D23   D(1,7,9,12)           178.678                                          !
 ! D24   D(1,7,9,13)           -76.5416                                         !
 ! D25   D(1,7,9,50)            20.8329                                         !
 ! D26   D(8,7,9,12)            -7.0211                                         !
 ! D27   D(8,7,9,13)            97.7594                                         !
 ! D28   D(8,7,9,50)          -164.8662                                         !
 ! D29   D(7,8,10,14)            1.2736                                         !
 ! D30   D(7,8,10,15)          179.601                                          !
 ! D31   D(11,8,10,14)        -178.9467                                         !
 ! D32   D(11,8,10,15)          -0.6193                                         !
 ! D33   D(7,9,12,14)            8.2012                                         !
 ! D34   D(7,9,12,18)         -169.1898                                         !
 ! D35   D(13,9,12,14)         -94.4301                                         !
 ! D36   D(13,9,12,18)          88.1789                                         !
 ! D37   D(50,9,12,14)         167.4068                                         !
 ! D38   D(50,9,12,18)          -9.9842                                         !
 ! D39   D(7,9,50,48)         -122.9158                                         !
 ! D40   D(7,9,50,49)           59.0681                                         !
 ! D41   D(12,9,50,48)          77.3123                                         !
 ! D42   D(12,9,50,49)        -100.7038                                         !
 ! D43   D(13,9,50,48)         -24.5722                                         !
 ! D44   D(13,9,50,49)         157.4118                                         !
 ! D45   D(8,10,14,12)          -0.2036                                         !
 ! D46   D(8,10,14,16)         177.2905                                         !
 ! D47   D(15,10,14,12)       -178.5378                                         !
 ! D48   D(15,10,14,16)         -1.0437                                         !
 ! D49   D(9,12,14,10)          -4.3472                                         !
 ! D50   D(9,12,14,16)         177.9994                                         !
 ! D51   D(18,12,14,10)        172.9554                                         !
 ! D52   D(18,12,14,16)         -4.698                                          !
 ! D53   D(9,12,18,19)        -110.0727                                         !
 ! D54   D(14,12,18,19)         72.6421                                         !
 ! D55   D(10,14,16,17)          0.0653                                         !
 ! D56   D(12,14,16,17)        177.6179                                         !
 ! D57   D(12,18,19,20)         58.0388                                         !
 ! D58   D(12,18,19,21)        176.3988                                         !
 ! D59   D(12,18,19,22)        -64.6164                                         !
 ! D60   D(24,23,25,26)        178.2469                                         !
 ! D61   D(24,23,25,27)         -0.3494                                         !
 ! D62   D(29,23,25,26)         -0.4312                                         !
 ! D63   D(29,23,25,27)       -179.0275                                         !
 ! D64   D(24,23,29,30)         -0.2124                                         !
 ! D65   D(24,23,29,31)        179.3445                                         !
 ! D66   D(25,23,29,30)        178.5112                                         !
 ! D67   D(25,23,29,31)         -1.9319                                         !
 ! D68   D(23,25,27,28)        176.3275                                         !
 ! D69   D(23,25,27,45)         -4.2059                                         !
 ! D70   D(26,25,27,28)         -2.3676                                         !
 ! D71   D(26,25,27,45)        177.099                                          !
 ! D72   D(25,27,45,5)          80.0513                                         !
 ! D73   D(25,27,45,46)        -40.1684                                         !
 ! D74   D(25,27,45,47)       -157.6868                                         !
 ! D75   D(28,27,45,5)        -100.4786                                         !
 ! D76   D(28,27,45,46)        139.3017                                         !
 ! D77   D(28,27,45,47)         21.7833                                         !
 ! D78   D(23,29,30,32)       -179.8144                                         !
 ! D79   D(23,29,30,33)         -0.3501                                         !
 ! D80   D(31,29,30,32)          0.6045                                         !
 ! D81   D(31,29,30,33)       -179.9313                                         !
 ! D82   D(23,29,31,34)        179.8369                                         !
 ! D83   D(23,29,31,35)          0.4943                                         !
 ! D84   D(30,29,31,34)         -0.6021                                         !
 ! D85   D(30,29,31,35)       -179.9447                                         !
 ! D86   D(29,30,32,36)          0.0156                                         !
 ! D87   D(29,30,32,37)        179.2902                                         !
 ! D88   D(33,30,32,36)       -179.4498                                         !
 ! D89   D(33,30,32,37)         -0.1751                                         !
 ! D90   D(29,31,34,36)         -0.0201                                         !
 ! D91   D(29,31,34,40)       -176.8586                                         !
 ! D92   D(35,31,34,36)        179.3465                                         !
 ! D93   D(35,31,34,40)          2.5079                                         !
 ! D94   D(30,32,36,34)         -0.6529                                         !
 ! D95   D(30,32,36,38)        178.6641                                         !
 ! D96   D(37,32,36,34)       -179.9334                                         !
 ! D97   D(37,32,36,38)         -0.6164                                         !
 ! D98   D(31,34,36,32)          0.653                                          !
 ! D99   D(31,34,36,38)       -178.7001                                         !
 ! D100  D(40,34,36,32)        177.4286                                         !
 ! D101  D(40,34,36,38)         -1.9244                                         !
 ! D102  D(31,34,40,41)       -112.3639                                         !
 ! D103  D(36,34,40,41)         70.8537                                         !
 ! D104  D(32,36,38,39)          0.2262                                         !
 ! D105  D(34,36,38,39)        179.5551                                         !
 ! D106  D(34,40,41,42)         58.6025                                         !
 ! D107  D(34,40,41,43)        177.0221                                         !
 ! D108  D(34,40,41,44)        -63.9024                                         !
 --------------------------------------------------------------------------------
                          Input orientation:                          
 ---------------------------------------------------------------------
 Center     Atomic      Atomic             Coordinates (Angstroms)
 Number     Number       Type             X           Y           Z
 ---------------------------------------------------------------------
      1          6           0        2.253484    1.034001    0.566148
      2          1           0        1.824968    1.994613    0.297305
      3          6           0        1.536397    0.212843    1.359354
      4          1           0        1.906328   -0.753808    1.684085
      5          6           0        0.194747    0.512649    1.886151
      6          8           0       -0.397615   -0.327505    2.547964
      7          6           0        3.585675    0.823928    0.017063
      8          6           0        4.306749    1.944576   -0.409729
      9          6           0        4.285778   -0.413993   -0.025434
     10          6           0        5.607723    1.854739   -0.890180
     11          1           0        3.831315    2.917801   -0.359172
     12          6           0        5.562233   -0.546693   -0.596944
     13          1           0        4.773364   -0.407436    1.832630
     14          6           0        6.244705    0.618068   -0.990622
     15          1           0        6.126797    2.751054   -1.216768
     16          8           0        7.488297    0.459020   -1.498961
     17          1           0        7.847950    1.315990   -1.769854
     18          8           0        6.069178   -1.787076   -0.798549
     19          6           0        7.178085   -2.176632    0.042483
     20          1           0        6.893092   -2.119222    1.095169
     21          1           0        7.396017   -3.209710   -0.222019
     22          1           0        8.051174   -1.552595   -0.149624
     23          6           0       -3.094025    0.714765    0.740063
     24          1           0       -2.700685    0.506277    1.730983
     25          6           0       -2.349065    1.462515   -0.102694
     26          1           0       -2.682119    1.677252   -1.114104
     27          6           0       -1.037160    2.033093    0.210231
     28          8           0       -0.407152    2.642895   -0.644922
     29          6           0       -4.391054    0.110861    0.469305
     30          6           0       -4.999392   -0.663789    1.469719
     31          6           0       -5.079269    0.270347   -0.749844
     32          6           0       -6.234236   -1.264383    1.259945
     33          1           0       -4.494303   -0.803862    2.419863
     34          6           0       -6.309931   -0.321673   -0.973368
     35          1           0       -4.656869    0.857014   -1.557698
     36          6           0       -6.897773   -1.108415    0.042715
     37          1           0       -6.686882   -1.870584    2.040166
     38          8           0       -8.092174   -1.693120   -0.226528
     39          1           0       -8.384699   -2.206607    0.539736
     40          8           0       -6.904722   -0.187003   -2.199879
     41          6           0       -8.104447    0.601800   -2.226525
     42          1           0       -7.908299    1.614658   -1.859787
     43          1           0       -8.410469    0.649926   -3.271211
     44          1           0       -8.899256    0.142566   -1.636012
     45          6           0       -0.450963    1.877645    1.622419
     46          1           0       -1.228059    2.006248    2.375558
     47          1           0        0.281597    2.675364    1.748136
     48          8           0        3.832374   -2.492341    0.965424
     49          8           0        2.694779   -1.903886   -0.783219
     50          7           0        3.538386   -1.710355    0.077014
 ---------------------------------------------------------------------
                    Distance matrix (angstroms):
                    1          2          3          4          5
     1  C    0.000000
     2  H    1.085669   0.000000
     3  C    1.348218   2.094261   0.000000
     4  H    2.136952   3.079545   1.084764   0.000000
     5  C    2.500522   2.716297   1.472216   2.138750   0.000000
     6  O    3.579053   3.923974   2.333489   2.497233   1.222599
     7  C    1.456145   2.132869   2.524819   2.844015   3.884427
     8  C    2.448955   2.581015   3.715294   4.174609   4.922402
     9  C    2.564542   3.458487   3.141602   2.949528   4.609702
    10  C    3.747722   3.967232   4.932741   5.208809   6.229729
    11  H    2.625732   2.304054   3.941672   4.621817   4.904167
    12  C    3.846973   4.607067   4.539973   4.314120   6.008150
    13  H    3.167256   4.101232   3.329668   2.891701   4.670455
    14  C    4.304228   4.804968   5.277762   5.278032   6.699920
    15  H    4.596696   4.622808   5.843860   6.205753   7.058879
    16  O    5.656726   6.136604   6.607245   6.539198   8.041002
    17  H    6.069141   6.403904   7.130538   7.177509   8.519579
    18  O    4.937651   5.789248   5.403918   4.955849   6.856040
    19  C    5.902041   6.791177   6.266769   5.701816   7.707033
    20  H    5.634593   6.576177   5.848290   5.203748   7.240180
    21  H    6.713862   7.641418   6.967766   6.308833   8.376074
    22  H    6.388742   7.179699   6.916366   6.462174   8.374548
    23  C    5.359851   5.102013   4.698537   5.296358   3.488609
    24  H    5.116554   4.975150   4.263458   4.776461   2.899594
    25  C    4.670592   4.226781   4.335444   5.119867   3.365818
    26  H    5.253303   4.733563   5.104739   5.898624   4.316734
    27  C    3.457340   2.863711   3.355144   4.313141   2.576442
    28  O    3.336797   2.508071   3.701305   4.723776   3.362523
    29  C    6.709057   6.497464   5.994769   6.471504   4.816478
    30  C    7.503542   7.417112   6.595241   6.909633   5.341957
    31  C    7.488943   7.192920   6.943994   7.468030   5.901053
    32  C    8.820732   8.746342   7.910424   8.167580   6.699388
    33  H    7.235098   7.229793   6.207070   6.442977   4.899515
    34  C    8.805682   8.553150   8.203180   8.646139   7.154284
    35  H    7.231530   6.837352   6.876096   7.495296   5.959603
    36  C    9.413259   9.261739   8.637968   8.962814   7.505328
    37  H    9.515224   9.509411   8.510375   8.672787   7.284253
    38  O   10.728381  10.593558   9.942690  10.222661   8.831868
    39  H   11.120844  11.042931  10.244689  10.455878   9.100224
    40  O    9.644402   9.338247   9.169542   9.645778   8.221169
    41  C   10.736505  10.339387  10.293478  10.832643   9.262757
    42  H   10.463467   9.976667  10.076221  10.700259   8.994766
    43  H   11.339873  10.922759  10.980588  11.530903  10.033293
    44  H   11.402972  11.053361  10.857256  11.339629   9.759277
    45  C    3.023488   2.636185   2.605834   3.533436   1.532877
    46  H    4.042323   3.693270   3.448360   4.233252   2.120079
    47  H    2.824801   2.224932   2.791000   3.795138   2.168854
    48  O    3.884251   4.960728   3.569974   2.692327   4.807289
    49  O    3.262930   4.137922   3.226920   2.834065   4.383529
    50  N    3.069482   4.087924   3.057948   2.482191   4.403935
                    6          7          8          9         10
     6  O    0.000000
     7  C    4.857763   0.000000
     8  C    6.003445   1.399268   0.000000
     9  C    5.344533   1.422814   2.389764   0.000000
    10  C    7.255833   2.444246   1.389762   2.764502   0.000000
    11  H    6.071845   2.141541   1.084325   3.379167   2.137217
    12  C    6.742276   2.482416   2.796017   1.404838   2.419696
    13  H    5.220835   2.494623   3.282966   1.920986   3.636934
    14  C    7.585257   2.851009   2.419242   2.415395   1.394700
    15  H    8.137486   3.419569   2.148090   3.850474   1.086037
    16  O    8.898530   4.202611   3.676350   3.631743   2.419753
    17  H    9.451665   4.647815   3.845148   4.327228   2.466311
    18  O    7.426232   3.694639   4.145186   2.379828   3.672078
    19  C    8.190723   4.680750   5.043156   3.387765   4.425816
    20  H    7.646912   4.556693   5.046617   3.310837   4.624517
    21  H    8.759030   5.553926   6.012111   4.186677   5.412308
    22  H    8.953204   5.061258   5.130164   3.935740   4.257793
    23  C    3.409613   6.719601   7.589856   7.504770   8.926234
    24  H    2.582011   6.523554   7.466960   7.262408   8.815810
    25  C    3.746774   5.970199   6.680308   6.895534   8.005276
    26  H    4.759071   6.425958   7.029359   7.355957   8.294765
    27  C    3.383258   4.782259   5.380479   5.863228   6.737744
    28  O    4.360951   4.437289   4.771146   5.634885   6.071249
    29  C    4.523333   8.021296   8.932357   8.706759  10.240354
    30  C    4.738360   8.833283   9.845820   9.408096  11.154506
    31  C    5.757677   8.716413   9.540234   9.417919  10.804712
    32  C    6.050031  10.116148  11.144398  10.632312  12.433180
    33  H    4.126279   8.585406   9.644638   9.122572  10.957896
    34  C    6.881519  10.010814  10.870487  10.638429  12.115040
    35  H    6.033307   8.391693   9.102038   9.161563  10.334549
    36  C    7.009861  10.660080  11.621824  11.205298  12.885574
    37  H    6.495678  10.811049  11.891903  11.260002  13.176581
    38  O    8.292705  11.948516  12.922836  12.445493  14.167390
    39  H    8.447338  12.359093  13.386809  12.809132  14.639914
    40  O    8.056314  10.769644  11.551855  11.402062  12.745403
    41  C    9.113430  11.905544  12.615133  12.625146  13.833990
    42  H    8.922479  11.673014  12.305239  12.497031  13.552883
    43  H    9.951081  12.439876  13.099307  13.147687  14.269919
    44  H    9.487072  12.612313  13.384678  13.294693  14.626697
    45  C    2.392105   4.470116   5.173967   5.513959   6.559067
    46  H    2.483095   5.489300   6.196429   6.482649   7.577330
    47  H    3.180923   4.164295   4.625179   5.359398   6.000146
    48  O    5.008369   3.458019   4.669295   2.346680   5.048984
    49  O    4.810890   2.979113   4.189105   2.307660   4.756464
    50  N    4.848708   2.535433   3.766407   1.499882   4.234090
                   11         12         13         14         15
    11  H    0.000000
    12  C    3.880120   0.000000
    13  H    4.092512   2.558229   0.000000
    14  C    3.392927   1.406207   3.344736   0.000000
    15  H    2.456117   3.402653   4.594199   2.148179   0.000000
    16  O    4.551730   2.352618   4.384188   1.352858   2.680809
    17  H    4.548536   3.173295   5.039957   1.914338   2.308177
    18  O    5.228476   1.355061   3.241242   2.419178   4.557724
    19  C    6.108637   2.382551   3.481001   3.122316   5.193555
    20  H    6.071342   2.665948   2.822642   3.501955   5.445351
    21  H    7.090296   3.254995   4.353462   4.070400   6.175042
    22  H    6.151062   2.721537   3.998095   2.946589   4.833572
    23  C    7.349967   8.849275   8.021773   9.498237   9.643610
    24  H    7.269885   8.648919   7.530379   9.350917   9.573542
    25  C    6.354583   8.177398   7.613881   8.680691   8.645329
    26  H    6.673358   8.554690   8.283320   8.990289   8.874716
    27  C    4.980862   7.131537   6.507730   7.514647   7.339896
    28  O    4.256974   6.768259   6.502348   6.961799   6.559816
    29  C    8.727694  10.031809   9.279754  10.747466  10.974454
    30  C    9.703300  10.762562   9.782852  11.581285  11.944474
    31  C    9.303770  10.673917  10.207984  11.331870  11.486855
    32  C   11.019415  11.963269  11.055748  12.819229  13.230758
    33  H    9.533611  10.502437   9.294711  11.356919  11.775835
    34  C   10.663785  11.880262  11.433303  12.589770  12.813005
    35  H    8.816608  10.359706  10.100617  10.918929  10.954044
    36  C   11.466702  12.489054  11.828382  13.295611  13.642625
    37  H   11.803301  12.599518  11.555134  13.513143  14.005625
    38  O   12.784670  13.707456  13.092562  14.542061  14.930184
    39  H   13.277748  14.091283  13.343283  14.977992  15.435259
    40  O   11.326539  12.574726  12.356674  13.229432  13.394744
    41  C   12.300946  13.811326  13.540063  14.402288  14.428000
    42  H   11.906660  13.701147  13.362162  14.214646  14.095700
    43  H   12.786106  14.276555  14.176765  14.831596  14.831304
    44  H   13.091971  14.515145  14.116463  15.165164  15.256548
    45  C    4.831825   6.852847   5.706083   7.297020   7.217392
    46  H    5.822967   7.839729   6.491357   8.312666   8.219091
    47  H    4.135217   6.615600   5.448555   6.876912   6.554597
    48  O    5.569937   3.036274   2.446291   4.395465   6.125319
    49  O    4.971941   3.177887   3.660949   4.359501   5.799584
    50  N    4.657885   2.429874   2.510968   3.726334   5.317698
                   16         17         18         19         20
    16  O    0.000000
    17  H    0.968055   0.000000
    18  O    2.747621   3.706276   0.000000
    19  C    3.069030   3.991452   1.445255   0.000000
    20  H    3.705552   4.573925   2.091727   1.092093   0.000000
    21  H    3.885701   4.804372   2.028983   1.088441   1.782437
    22  H    2.486793   3.300792   2.098665   1.090235   1.792130
    23  C   10.819619  11.242240   9.622413  10.694065  10.387496
    24  H   10.688785  11.143841   9.411084  10.374928   9.966848
    25  C    9.986503  10.333441   9.050463  10.199561   9.984046
    26  H   10.250344  10.556650   9.417343  10.649589  10.534646
    27  C    8.836428   9.131274   8.130891   9.232561   8.995206
    28  O    8.236310   8.436401   7.848000   9.013112   8.888151
    29  C   12.046338  12.500375  10.706357  11.800838  11.519415
    30  C   12.884725  13.396587  11.354297  12.353811  11.987066
    31  C   12.591286  13.009488  11.336809  12.524305  12.347126
    32  C   14.102821  14.633727  12.485375  13.498324  13.156163
    33  H   12.670231  13.205253  11.086570  11.990875  11.539400
    34  C   13.830287  14.274520  12.466769  13.652817  13.484430
    35  H   12.151827  12.515038  11.073194  12.321921  12.218727
    36  C   14.553097  15.053222  13.011923  14.116334  13.867853
    37  H   14.794870  15.360073  13.068372  14.011485  13.615084
    38  O   15.779793  16.294912  14.173212  15.280280  15.049473
    39  H   16.223866  16.770265  14.521762  15.570755  15.288133
    40  O   14.424549  14.835270  13.147092  14.398342  14.316789
    41  C   15.610362  15.974905  14.444290  15.697894  15.600121
    42  H   15.444120  15.759335  14.424558  15.671359  15.548465
    43  H   15.998377  16.341172  14.890038  16.185580  16.153403
    44  H   16.391181  16.788798  15.115519  16.330246  16.185589
    45  C    8.647969   8.983036   7.861521   8.782696   8.377833
    46  H    9.663368  10.001742   8.815551   9.674864   9.198477
    47  H    8.209284   8.454220   7.739190   8.603061   8.193063
    48  O    5.305610   6.173328   2.934671   3.485007   3.086105
    49  O    5.391978   6.155990   3.376456   4.566860   4.604405
    50  N    4.774063   5.580504   2.679069   3.669608   3.529570
                   21         22         23         24         25
    21  H    0.000000
    22  H    1.783396   0.000000
    23  C   11.241356  11.408239   0.000000
    24  H   10.934631  11.107570   1.086326   0.000000
    25  C   10.807892  10.828576   1.350680   2.097713   0.000000
    26  H   11.235970  11.250143   2.129316   3.076695   1.086273
    27  C    9.939432   9.776732   2.499880   2.722346   1.464436
    28  O    9.763261   9.454668   3.585409   3.933237   2.336308
    29  C   12.265364  12.568182   1.456123   2.146050   2.514731
    30  C   12.766748  13.180650   2.462364   2.592560   3.744047
    31  C   12.962336  13.269963   2.521612   3.444971   3.048620
    32  C   13.847898  14.357677   3.748097   3.980338   4.938351
    33  H   12.415609  12.827778   2.662468   2.325529   4.012706
    34  C   14.027056  14.437281   3.788417   4.585376   4.430560
    35  H   12.790400  13.010890   2.782521   3.842538   2.794572
    36  C   14.449843  14.956782   4.275369   4.803439   5.227005
    37  H   14.326157  14.903241   4.613342   4.651325   5.875207
    38  O   15.562266  16.144143   5.631492   6.143073   6.554134
    39  H   15.830902  16.463319   6.046964   6.409900   7.092535
    40  O   14.749908  15.157414   4.896719   5.797088   5.279499
    41  C   16.087574  16.430430   5.823894   6.698629   6.194830
    42  H   16.130061  16.360346   5.544931   6.421944   5.832290
    43  H   16.554134  16.899145   6.660263   7.592379   6.887701
    44  H   16.696498  17.099708   6.298719   7.063372   6.855534
    45  C    9.531958   9.337721   3.019373   2.636985   2.598295
    46  H   10.408089  10.254076   2.797248   2.198640   2.773812
    47  H    9.440899   9.046737   4.031747   3.687715   3.437580
    48  O    3.824159   4.463713   7.636185   7.229014   7.415655
    49  O    4.911391   5.405166   6.533603   6.421925   6.102141
    50  N    4.149555   4.521229   7.092934   6.824593   6.690401
                   26         27         28         29         30
    26  H    0.000000
    27  C    2.141582   0.000000
    28  O    2.515566   1.224768   0.000000
    29  C    2.807353   3.874364   4.850173   0.000000
    30  C    4.186451   4.955680   6.041071   1.403918   0.000000
    31  C    2.803283   4.513054   5.241056   1.409042   2.409450
    32  C    5.187183   6.243784   7.269817   2.431815   1.389085
    33  H    4.682827   4.988249   6.162617   2.156862   1.085131
    34  C    4.144458   5.894739   6.613573   2.439361   2.793426
    35  H    2.183852   4.196550   4.699216   2.176268   3.405204
    36  C    5.183620   6.651610   7.528170   2.819974   2.416171
    37  H    6.210853   7.106807   8.186342   3.415341   2.151601
    38  O    6.435519   7.990534   8.833779   4.175742   3.674517
    39  H    7.094996   8.489402   9.410756   4.617880   3.834769
    40  O    4.741807   6.720546   7.255662   3.678558   4.162157
    41  C    5.638770   7.611368   8.118860   4.614955   4.990521
    42  H    5.279481   7.188366   7.668140   4.478514   4.973797
    43  H    6.206650   8.270385   8.655773   5.517042   5.986460
    44  H    6.424987   8.294291   8.907847   4.975666   5.050219
    45  C    3.536491   1.536901   2.393399   4.469397   5.212525
    46  H    3.794769   2.173891   3.194137   4.151003   4.708778
    47  H    4.239370   2.125273   2.490413   5.481401   6.254303
    48  O    8.009280   6.690459   6.851091   8.639882   9.033162
    49  O    6.468776   5.514899   5.505844   7.472419   8.112573
    50  N    7.182570   5.913271   5.919396   8.145350   8.713701
                   31         32         33         34         35
    31  C    0.000000
    32  C    2.780035   0.000000
    33  H    3.397522   2.141227   0.000000
    34  C    1.383828   2.425308   3.878534   0.000000
    35  H    1.084079   3.863615   4.313459   2.112666   0.000000
    36  C    2.415801   1.395083   3.394150   1.413133   3.383176
    37  H    3.866802   1.086790   2.467684   3.409194   4.950290
    38  O    3.634097   2.417716   4.553991   2.369604   4.480682
    39  H    4.327145   2.455805   4.542879   3.185454   5.261341
    40  O    2.375721   3.685197   5.247156   1.369760   2.560314
    41  C    3.382625   4.374449   6.049624   2.375604   3.521115
    42  H    3.323034   4.563342   5.984982   2.662685   3.352174
    43  H    4.195029   5.378843   7.059616   3.261341   4.131407
    44  H    3.923509   4.179522   6.062133   2.712788   4.302838
    45  C    5.443551   6.591659   4.916808   6.775147   5.370706
    46  H    5.254836   6.083044   4.308948   6.516129   5.343031
    47  H    6.384583   7.629942   5.946886   7.735442   6.214772
    48  O    9.486409  10.145504   8.619739  10.551638   9.468452
    49  O    8.072436   9.182090   7.946867   9.144636   7.891078
    50  N    8.880926   9.854052   8.416339  10.001054   8.742189
                   36         37         38         39         40
    36  C    0.000000
    37  H    2.148299   0.000000
    38  O    1.356821   2.672871   0.000000
    39  H    1.914158   2.290586   0.967677   0.000000
    40  O    2.424515   4.567262   2.751826   3.711417   0.000000
    41  C    3.087126   5.130967   3.044141   3.951947   1.436058
    42  H    3.472146   5.371071   3.693608   4.537260   2.090171
    43  H    4.045012   6.126537   3.855032   4.762747   2.028664
    44  H    2.896379   4.739373   2.451075   3.243032   2.098745
    45  C    7.278281   7.287690   8.634644   8.988742   7.779700
    46  H    6.876695   6.703809   8.220234   8.505050   7.613768
    47  H    8.292696   8.325300   9.648989  10.019908   8.684650
    48  O   10.858301  10.592280  12.010593  12.227826  11.428865
    49  O    9.660849   9.797355  10.803364  11.162288   9.854188
    50  N   10.453560  10.413248  11.634533  11.942375  10.796450
                   41         42         43         44         45
    41  C    0.000000
    42  H    1.094921   0.000000
    43  H    1.089649   1.781854   0.000000
    44  H    1.091478   1.788610   1.780507   0.000000
    45  C    8.661291   8.234486   9.423834   9.219627   0.000000
    46  H    8.392636   7.919412   9.236483   8.855126   1.089787
    47  H    9.509118   9.012025  10.239544  10.107205   1.090323
    48  O   12.737737  12.755103  13.330796  13.259133   6.154299
    49  O   11.179663  11.223386  11.663558  11.804104   5.475652
    50  N   12.091646  12.076153  12.631574  12.691048   5.583630
                   46         47         48         49         50
    46  H    0.000000
    47  H    1.766476   0.000000
    48  O    6.916196   6.318689   0.000000
    49  O    6.376180   5.762007   2.167523   0.000000
    50  N    6.466486   5.712604   1.219510   1.220298   0.000000
 Stoichiometry    C21H20NO8(2)
 Framework group  C1[X(C21H20NO8)]
 Deg. of freedom   144
 Full point group                 C1      NOp   1
 Largest Abelian subgroup         C1      NOp   1
 Largest concise Abelian subgroup C1      NOp   1
                         Standard orientation:                         
 ---------------------------------------------------------------------
 Center     Atomic      Atomic             Coordinates (Angstroms)
 Number     Number       Type             X           Y           Z
 ---------------------------------------------------------------------
      1          6           0        2.234960    0.886534    0.814623
      2          1           0        1.799235    1.880710    0.793742
      3          6           0        1.525448   -0.111427    1.378856
      4          1           0        1.902767   -1.125791    1.452401
      5          6           0        0.183082    0.038064    1.964626
      6          8           0       -0.401902   -0.944675    2.396791
      7          6           0        3.567201    0.829429    0.229617
      8          6           0        4.279555    2.026231    0.094830
      9          6           0        4.275633   -0.353830   -0.120272
     10          6           0        5.579927    2.068256   -0.393743
     11          1           0        3.797613    2.952753    0.386460
     12          6           0        5.551555   -0.330819   -0.707692
     13          1           0        4.767728   -0.806611    1.680566
     14          6           0        6.225089    0.900181   -0.799398
     15          1           0        6.092065    3.021386   -0.487206
     16          8           0        7.468484    0.881706   -1.332176
     17          1           0        7.821611    1.781712   -1.381386
     18          8           0        6.066460   -1.478241   -1.212159
     19          6           0        7.180065   -2.056921   -0.495377
     20          1           0        6.897275   -2.265496    0.538641
     21          1           0        7.404394   -2.989997   -1.008942
     22          1           0        8.048398   -1.398413   -0.526635
     23          6           0       -3.109801    0.495423    0.907207
     24          1           0       -2.712612    0.049611    1.814730
     25          6           0       -2.372037    1.434828    0.276686
     26          1           0       -2.709035    1.892230   -0.649168
     27          6           0       -1.063294    1.918980    0.720941
     28          8           0       -0.439568    2.727043    0.044142
     29          6           0       -4.403338   -0.031397    0.495482
     30          6           0       -5.003913   -1.035124    1.271903
     31          6           0       -5.095621    0.421655   -0.645083
     32          6           0       -6.235138   -1.573474    0.920023
     33          1           0       -4.495545   -1.403717    2.156895
     34          6           0       -6.322758   -0.104936   -1.008146
     35          1           0       -4.679224    1.194035   -1.281692
     36          6           0       -6.902716   -1.124128   -0.219576
     37          1           0       -6.681716   -2.358109    1.525027
     38          8           0       -8.093755   -1.631989   -0.625122
     39          1           0       -8.380882   -2.322201   -0.010659
     40          8           0       -6.921467    0.326590   -2.162085
     41          6           0       -8.126612    1.088496   -1.990655
     42          1           0       -7.936483    1.979525   -1.383391
     43          1           0       -8.435523    1.393018   -2.990243
     44          1           0       -8.916814    0.490958   -1.532555
     45          6           0       -0.472580    1.421036    2.049538
     46          1           0       -1.248682    1.352439    2.811506
     47          1           0        0.254824    2.167596    2.369437
     48          8           0        3.838866   -2.616660    0.322155
     49          8           0        2.692985   -1.619564   -1.224102
     50          7           0        3.537363   -1.640235   -0.343349
 ---------------------------------------------------------------------
 Rotational constants (GHZ):           0.3603825           0.0461367           0.0449961
 Standard basis: 6-311G(d) (5D, 7F)
 There are   630 symmetry adapted cartesian basis functions of A   symmetry.
 There are   600 symmetry adapted basis functions of A   symmetry.
   600 basis functions,  1060 primitive gaussians,   630 cartesian basis functions
   109 alpha electrons      108 beta electrons
       nuclear repulsion energy      2685.3850109236 Hartrees.
 NAtoms=   50 NActive=   50 NUniq=   50 SFac= 1.00D+00 NAtFMM=   60 NAOKFM=F Big=F
 Integral buffers will be    131072 words long.
 Raffenetti 2 integral format.
 Two-electron integral symmetry is turned on.
 Using the following non-standard input for PCM:
 Eps=7
 EpsInf=1.85341
 HbondAcidity=0
 HbondBasicity=0.48
 SurfaceTensionAtInterface=60.62
 CarbonAromaticity=0
 ElectronegativeHalogenicity=0
 --- end of non-standard input.
 ------------------------------------------------------------------------------
 Polarizable Continuum Model (PCM)
 =================================
 Model                : PCM.
 Atomic radii         : SMD-Coulomb.
 Polarization charges : Total charges.
 Charge compensation  : None.
 Solution method      : On-the-fly selection.
 Cavity type          : VdW (van der Waals Surface) (Alpha=1.000).
 Cavity algorithm     : GePol (No added spheres)
                        Default sphere list used, NSphG=   50.
                        Lebedev-Laikov grids with approx.  5.0 points / Ang**2.
                        Smoothing algorithm: York/Karplus (Gamma=1.0000).
                        Polarization charges: spherical gaussians, with
                                              point-specific exponents (IZeta= 3).
                        Self-potential: point-specific (ISelfS= 7).
                        Self-field    : sphere-specific E.n sum rule (ISelfD= 2).
 Solvent              : Generic,
                        Eps                           =   7.000000
                        Eps(infinity)                 =   1.853410
                        RSolv                         =   0.000000 Ang.
                        Molar volume                  =   0.000000 cm**3/mol
                        Thermal expansion coefficient =   0.000000 K**-1
                        Absolute temperature          = 298.150000 K
                        Numeral density               =   0.000000 Ang**-3
                        Hydrogen bond acidity         =   0.000000
                        Hydrogen bond basicity        =   0.480000
                        Surface tension at interface  =  60.620000 (cal/mol)*Ang**-2
                        Carbon aromaticity            =   0.000000
                        Electronegative halogenicity  =   0.000000
 ------------------------------------------------------------------------------
 ------------------------------------------------------------------------------
 Atomic radii for non-electrostatic terms: SMD-CDS.
 ------------------------------------------------------------------------------
 Nuclear repulsion after PCM non-electrostatic terms =     2685.3815352252 Hartrees.
 One-electron integrals computed using PRISM.
 NBasis=   600 RedAO= T EigKep=  1.69D-04  NBF=   600
 NBsUse=   600 1.00D-06 EigRej= -1.00D+00 NBFU=   600
 Initial guess from the checkpoint file:  "CURCUMIN-TS-1-B3LYP-6-311G-D-298-NBO.chk"
 B after Tr=     0.000000    0.000000   -0.000000
         Rot=    1.000000   -0.000000    0.000000    0.000000 Ang=   0.00 deg.
 Initial guess <Sx>= 0.0000 <Sy>= 0.0000 <Sz>= 0.5000 <S**2>= 0.7656 S= 0.5078
 Requested convergence on RMS density matrix=1.00D-08 within 128 cycles.
 Requested convergence on MAX density matrix=1.00D-06.
 Requested convergence on             energy=1.00D-06.
 No special actions if energy rises.
 Inv3:  Mode=1 IEnd=    50750307.
 Iteration    1 A*A^-1 deviation from unit magnitude is 3.89D-15 for   3517.
 Iteration    1 A*A^-1 deviation from orthogonality  is 2.12D-15 for   1010    549.
 Iteration    1 A^-1*A deviation from unit magnitude is 4.33D-15 for   3517.
 Iteration    1 A^-1*A deviation from orthogonality  is 3.02D-14 for   2443   2179.
 Error on total polarization charges =  0.03714
 SCF Done:  E(UB3LYP) =  -1468.91188636     A.U. after    2 cycles
            NFock=  2  Conv=0.77D-08     -V/T= 2.0034
 <Sx>= 0.0000 <Sy>= 0.0000 <Sz>= 0.5000 <S**2>= 0.7656 S= 0.5078
 <L.S>=  0.00000000000    
 SMD-CDS (non-electrostatic) energy       (kcal/mol) =      -2.18
 (included in total energy above)
 Annihilation of the first spin contaminant:
 S**2 before annihilation     0.7656,   after     0.7501

 **********************************************************************

            Population analysis using the SCF density.

 **********************************************************************

 Orbital symmetries:
 Alpha Orbitals:
       Occupied  (A) (A) (A) (A) (A) (A) (A) (A) (A) (A) (A) (A)
                 (A) (A) (A) (A) (A) (A) (A) (A) (A) (A) (A) (A)
                 (A) (A) (A) (A) (A) (A) (A) (A) (A) (A) (A) (A)
                 (A) (A) (A) (A) (A) (A) (A) (A) (A) (A) (A) (A)
                 (A) (A) (A) (A) (A) (A) (A) (A) (A) (A) (A) (A)
                 (A) (A) (A) (A) (A) (A) (A) (A) (A) (A) (A) (A)
                 (A) (A) (A) (A) (A) (A) (A) (A) (A) (A) (A) (A)
                 (A) (A) (A) (A) (A) (A) (A) (A) (A) (A) (A) (A)
                 (A) (A) (A) (A) (A) (A) (A) (A) (A) (A) (A) (A)
                 (A)
       Virtual   (A) (A) (A) (A) (A) (A) (A) (A) (A) (A) (A) (A)
                 (A) (A) (A) (A) (A) (A) (A) (A) (A) (A) (A) (A)
                 (A) (A) (A) (A) (A) (A) (A) (A) (A) (A) (A) (A)
                 (A) (A) (A) (A) (A) (A) (A) (A) (A) (A) (A) (A)
                 (A) (A) (A) (A) (A) (A) (A) (A) (A) (A) (A) (A)
                 (A) (A) (A) (A) (A) (A) (A) (A) (A) (A) (A) (A)
                 (A) (A) (A) (A) (A) (A) (A) (A) (A) (A) (A) (A)
                 (A) (A) (A) (A) (A) (A) (A) (A) (A) (A) (A) (A)
                 (A) (A) (A) (A) (A) (A) (A) (A) (A) (A) (A) (A)
                 (A) (A) (A) (A) (A) (A) (A) (A) (A) (A) (A) (A)
                 (A) (A) (A) (A) (A) (A) (A) (A) (A) (A) (A) (A)
                 (A) (A) (A) (A) (A) (A) (A) (A) (A) (A) (A) (A)
                 (A) (A) (A) (A) (A) (A) (A) (A) (A) (A) (A) (A)
                 (A) (A) (A) (A) (A) (A) (A) (A) (A) (A) (A) (A)
                 (A) (A) (A) (A) (A) (A) (A) (A) (A) (A) (A) (A)
                 (A) (A) (A) (A) (A) (A) (A) (A) (A) (A) (A) (A)
                 (A) (A) (A) (A) (A) (A) (A) (A) (A) (A) (A) (A)
                 (A) (A) (A) (A) (A) (A) (A) (A) (A) (A) (A) (A)
                 (A) (A) (A) (A) (A) (A) (A) (A) (A) (A) (A) (A)
                 (A) (A) (A) (A) (A) (A) (A) (A) (A) (A) (A) (A)
                 (A) (A) (A) (A) (A) (A) (A) (A) (A) (A) (A) (A)
                 (A) (A) (A) (A) (A) (A) (A) (A) (A) (A) (A) (A)
                 (A) (A) (A) (A) (A) (A) (A) (A) (A) (A) (A) (A)
                 (A) (A) (A) (A) (A) (A) (A) (A) (A) (A) (A) (A)
                 (A) (A) (A) (A) (A) (A) (A) (A) (A) (A) (A) (A)
                 (A) (A) (A) (A) (A) (A) (A) (A) (A) (A) (A) (A)
                 (A) (A) (A) (A) (A) (A) (A) (A) (A) (A) (A) (A)
                 (A) (A) (A) (A) (A) (A) (A) (A) (A) (A) (A) (A)
                 (A) (A) (A) (A) (A) (A) (A) (A) (A) (A) (A) (A)
                 (A) (A) (A) (A) (A) (A) (A) (A) (A) (A) (A) (A)
                 (A) (A) (A) (A) (A) (A) (A) (A) (A) (A) (A) (A)
                 (A) (A) (A) (A) (A) (A) (A) (A) (A) (A) (A) (A)
                 (A) (A) (A) (A) (A) (A) (A) (A) (A) (A) (A) (A)
                 (A) (A) (A) (A) (A) (A) (A) (A) (A) (A) (A) (A)
                 (A) (A) (A) (A) (A) (A) (A) (A) (A) (A) (A) (A)
                 (A) (A) (A) (A) (A) (A) (A) (A) (A) (A) (A) (A)
                 (A) (A) (A) (A) (A) (A) (A) (A) (A) (A) (A) (A)
                 (A) (A) (A) (A) (A) (A) (A) (A) (A) (A) (A) (A)
                 (A) (A) (A) (A) (A) (A) (A) (A) (A) (A) (A) (A)
                 (A) (A) (A) (A) (A) (A) (A) (A) (A) (A) (A) (A)
                 (A) (A) (A) (A) (A) (A) (A) (A) (A) (A) (A)
 Beta  Orbitals:
       Occupied  (A) (A) (A) (A) (A) (A) (A) (A) (A) (A) (A) (A)
                 (A) (A) (A) (A) (A) (A) (A) (A) (A) (A) (A) (A)
                 (A) (A) (A) (A) (A) (A) (A) (A) (A) (A) (A) (A)
                 (A) (A) (A) (A) (A) (A) (A) (A) (A) (A) (A) (A)
                 (A) (A) (A) (A) (A) (A) (A) (A) (A) (A) (A) (A)
                 (A) (A) (A) (A) (A) (A) (A) (A) (A) (A) (A) (A)
                 (A) (A) (A) (A) (A) (A) (A) (A) (A) (A) (A) (A)
                 (A) (A) (A) (A) (A) (A) (A) (A) (A) (A) (A) (A)
                 (A) (A) (A) (A) (A) (A) (A) (A) (A) (A) (A) (A)
       Virtual   (A) (A) (A) (A) (A) (A) (A) (A) (A) (A) (A) (A)
                 (A) (A) (A) (A) (A) (A) (A) (A) (A) (A) (A) (A)
                 (A) (A) (A) (A) (A) (A) (A) (A) (A) (A) (A) (A)
                 (A) (A) (A) (A) (A) (A) (A) (A) (A) (A) (A) (A)
                 (A) (A) (A) (A) (A) (A) (A) (A) (A) (A) (A) (A)
                 (A) (A) (A) (A) (A) (A) (A) (A) (A) (A) (A) (A)
                 (A) (A) (A) (A) (A) (A) (A) (A) (A) (A) (A) (A)
                 (A) (A) (A) (A) (A) (A) (A) (A) (A) (A) (A) (A)
                 (A) (A) (A) (A) (A) (A) (A) (A) (A) (A) (A) (A)
                 (A) (A) (A) (A) (A) (A) (A) (A) (A) (A) (A) (A)
                 (A) (A) (A) (A) (A) (A) (A) (A) (A) (A) (A) (A)
                 (A) (A) (A) (A) (A) (A) (A) (A) (A) (A) (A) (A)
                 (A) (A) (A) (A) (A) (A) (A) (A) (A) (A) (A) (A)
                 (A) (A) (A) (A) (A) (A) (A) (A) (A) (A) (A) (A)
                 (A) (A) (A) (A) (A) (A) (A) (A) (A) (A) (A) (A)
                 (A) (A) (A) (A) (A) (A) (A) (A) (A) (A) (A) (A)
                 (A) (A) (A) (A) (A) (A) (A) (A) (A) (A) (A) (A)
                 (A) (A) (A) (A) (A) (A) (A) (A) (A) (A) (A) (A)
                 (A) (A) (A) (A) (A) (A) (A) (A) (A) (A) (A) (A)
                 (A) (A) (A) (A) (A) (A) (A) (A) (A) (A) (A) (A)
                 (A) (A) (A) (A) (A) (A) (A) (A) (A) (A) (A) (A)
                 (A) (A) (A) (A) (A) (A) (A) (A) (A) (A) (A) (A)
                 (A) (A) (A) (A) (A) (A) (A) (A) (A) (A) (A) (A)
                 (A) (A) (A) (A) (A) (A) (A) (A) (A) (A) (A) (A)
                 (A) (A) (A) (A) (A) (A) (A) (A) (A) (A) (A) (A)
                 (A) (A) (A) (A) (A) (A) (A) (A) (A) (A) (A) (A)
                 (A) (A) (A) (A) (A) (A) (A) (A) (A) (A) (A) (A)
                 (A) (A) (A) (A) (A) (A) (A) (A) (A) (A) (A) (A)
                 (A) (A) (A) (A) (A) (A) (A) (A) (A) (A) (A) (A)
                 (A) (A) (A) (A) (A) (A) (A) (A) (A) (A) (A) (A)
                 (A) (A) (A) (A) (A) (A) (A) (A) (A) (A) (A) (A)
                 (A) (A) (A) (A) (A) (A) (A) (A) (A) (A) (A) (A)
                 (A) (A) (A) (A) (A) (A) (A) (A) (A) (A) (A) (A)
                 (A) (A) (A) (A) (A) (A) (A) (A) (A) (A) (A) (A)
                 (A) (A) (A) (A) (A) (A) (A) (A) (A) (A) (A) (A)
                 (A) (A) (A) (A) (A) (A) (A) (A) (A) (A) (A) (A)
                 (A) (A) (A) (A) (A) (A) (A) (A) (A) (A) (A) (A)
                 (A) (A) (A) (A) (A) (A) (A) (A) (A) (A) (A) (A)
                 (A) (A) (A) (A) (A) (A) (A) (A) (A) (A) (A) (A)
                 (A) (A) (A) (A) (A) (A) (A) (A) (A) (A) (A) (A)
                 (A) (A) (A) (A) (A) (A) (A) (A) (A) (A) (A) (A)
 The electronic state is 2-A.
 Alpha  occ. eigenvalues --  -19.17181 -19.16509 -19.16443 -19.16145 -19.15322
 Alpha  occ. eigenvalues --  -19.13450 -19.10692 -19.10213 -14.55997 -10.26373
 Alpha  occ. eigenvalues --  -10.26243 -10.26006 -10.25967 -10.25679 -10.24751
 Alpha  occ. eigenvalues --  -10.23189 -10.21421 -10.21381 -10.20650 -10.20171
 Alpha  occ. eigenvalues --  -10.19786 -10.19660 -10.19400 -10.18745 -10.18244
 Alpha  occ. eigenvalues --  -10.18223 -10.17991 -10.17919 -10.17656 -10.17211
 Alpha  occ. eigenvalues --   -1.24748  -1.09569  -1.08231  -1.07398  -1.06883
 Alpha  occ. eigenvalues --   -1.04954  -1.04391  -1.03715  -0.89749  -0.86800
 Alpha  occ. eigenvalues --   -0.82183  -0.81229  -0.80880  -0.77646  -0.76185
 Alpha  occ. eigenvalues --   -0.75612  -0.73270  -0.71913  -0.69906  -0.68924
 Alpha  occ. eigenvalues --   -0.66284  -0.65709  -0.62733  -0.62229  -0.61250
 Alpha  occ. eigenvalues --   -0.58661  -0.57816  -0.56759  -0.55875  -0.54676
 Alpha  occ. eigenvalues --   -0.53136  -0.52994  -0.52798  -0.51784  -0.51231
 Alpha  occ. eigenvalues --   -0.50715  -0.50048  -0.48797  -0.48329  -0.47837
 Alpha  occ. eigenvalues --   -0.47378  -0.46234  -0.45718  -0.44943  -0.44368
 Alpha  occ. eigenvalues --   -0.44047  -0.43967  -0.43069  -0.42903  -0.42558
 Alpha  occ. eigenvalues --   -0.41919  -0.41248  -0.40725  -0.40212  -0.39505
 Alpha  occ. eigenvalues --   -0.39101  -0.38878  -0.38523  -0.37754  -0.37536
 Alpha  occ. eigenvalues --   -0.36917  -0.36478  -0.36065  -0.35899  -0.34171
 Alpha  occ. eigenvalues --   -0.33168  -0.32948  -0.32071  -0.30030  -0.29797
 Alpha  occ. eigenvalues --   -0.29305  -0.29151  -0.28376  -0.26536  -0.25233
 Alpha  occ. eigenvalues --   -0.24860  -0.23924  -0.22465  -0.22023
 Alpha virt. eigenvalues --   -0.09037  -0.07897  -0.06825  -0.03021  -0.01311
 Alpha virt. eigenvalues --   -0.00480   0.01328   0.03266   0.03848   0.05347
 Alpha virt. eigenvalues --    0.05916   0.06474   0.07048   0.07452   0.07865
 Alpha virt. eigenvalues --    0.08022   0.08355   0.09344   0.10513   0.10853
 Alpha virt. eigenvalues --    0.11787   0.12150   0.12329   0.12399   0.12808
 Alpha virt. eigenvalues --    0.13341   0.13882   0.14563   0.14943   0.16201
 Alpha virt. eigenvalues --    0.16810   0.17130   0.17156   0.18724   0.20370
 Alpha virt. eigenvalues --    0.21126   0.22052   0.23089   0.23744   0.24656
 Alpha virt. eigenvalues --    0.25644   0.26280   0.26509   0.26773   0.27488
 Alpha virt. eigenvalues --    0.27846   0.28879   0.29331   0.30170   0.30589
 Alpha virt. eigenvalues --    0.30988   0.31082   0.31904   0.32979   0.33189
 Alpha virt. eigenvalues --    0.33833   0.34172   0.35069   0.35167   0.35839
 Alpha virt. eigenvalues --    0.36100   0.36380   0.37280   0.37678   0.37997
 Alpha virt. eigenvalues --    0.38210   0.38577   0.39255   0.39997   0.40246
 Alpha virt. eigenvalues --    0.40635   0.41182   0.41828   0.42014   0.42242
 Alpha virt. eigenvalues --    0.42897   0.43018   0.43314   0.43494   0.44489
 Alpha virt. eigenvalues --    0.44987   0.45065   0.45299   0.45937   0.46235
 Alpha virt. eigenvalues --    0.46498   0.46909   0.47699   0.48330   0.48689
 Alpha virt. eigenvalues --    0.49445   0.49999   0.50558   0.51675   0.52044
 Alpha virt. eigenvalues --    0.52087   0.52394   0.52903   0.54528   0.54737
 Alpha virt. eigenvalues --    0.55394   0.55646   0.56644   0.57270   0.57870
 Alpha virt. eigenvalues --    0.57887   0.58352   0.58806   0.59019   0.59769
 Alpha virt. eigenvalues --    0.60263   0.60421   0.61314   0.61708   0.62051
 Alpha virt. eigenvalues --    0.62286   0.62528   0.62700   0.62920   0.63794
 Alpha virt. eigenvalues --    0.64147   0.64427   0.65116   0.65614   0.66198
 Alpha virt. eigenvalues --    0.66998   0.67266   0.68256   0.68827   0.69817
 Alpha virt. eigenvalues --    0.70627   0.70869   0.71309   0.73682   0.74073
 Alpha virt. eigenvalues --    0.74971   0.75124   0.75998   0.76363   0.76903
 Alpha virt. eigenvalues --    0.77765   0.78158   0.78306   0.79157   0.79506
 Alpha virt. eigenvalues --    0.80223   0.80570   0.81166   0.81326   0.82258
 Alpha virt. eigenvalues --    0.83009   0.83542   0.84199   0.85090   0.85273
 Alpha virt. eigenvalues --    0.85911   0.86457   0.87292   0.88369   0.88633
 Alpha virt. eigenvalues --    0.88968   0.89620   0.90532   0.90887   0.91549
 Alpha virt. eigenvalues --    0.92510   0.93911   0.94282   0.94932   0.95249
 Alpha virt. eigenvalues --    0.96659   0.96918   0.97907   0.97991   0.99224
 Alpha virt. eigenvalues --    0.99633   1.00307   1.01959   1.03044   1.04581
 Alpha virt. eigenvalues --    1.05526   1.06207   1.06607   1.08010   1.08189
 Alpha virt. eigenvalues --    1.09040   1.09582   1.09942   1.11392   1.12003
 Alpha virt. eigenvalues --    1.13615   1.14131   1.15091   1.15384   1.16549
 Alpha virt. eigenvalues --    1.17338   1.19356   1.19996   1.20841   1.21848
 Alpha virt. eigenvalues --    1.23290   1.23327   1.24095   1.24629   1.25837
 Alpha virt. eigenvalues --    1.26480   1.27296   1.28515   1.30518   1.32969
 Alpha virt. eigenvalues --    1.35146   1.37285   1.37855   1.38783   1.40498
 Alpha virt. eigenvalues --    1.41897   1.43829   1.44730   1.45319   1.46399
 Alpha virt. eigenvalues --    1.47090   1.47470   1.48905   1.49974   1.50825
 Alpha virt. eigenvalues --    1.51137   1.52450   1.52710   1.53068   1.53476
 Alpha virt. eigenvalues --    1.53951   1.54972   1.55303   1.56144   1.56502
 Alpha virt. eigenvalues --    1.56899   1.57857   1.58347   1.59437   1.60604
 Alpha virt. eigenvalues --    1.61295   1.61886   1.62535   1.63896   1.66279
 Alpha virt. eigenvalues --    1.67181   1.67617   1.68155   1.69103   1.70069
 Alpha virt. eigenvalues --    1.70515   1.70685   1.71568   1.72309   1.72974
 Alpha virt. eigenvalues --    1.74135   1.75020   1.75742   1.76567   1.77901
 Alpha virt. eigenvalues --    1.78745   1.79343   1.80226   1.80902   1.82223
 Alpha virt. eigenvalues --    1.82996   1.83907   1.84199   1.85308   1.86949
 Alpha virt. eigenvalues --    1.89105   1.89486   1.90884   1.91767   1.93934
 Alpha virt. eigenvalues --    1.94856   1.96279   1.98651   2.00168   2.01073
 Alpha virt. eigenvalues --    2.02367   2.02612   2.05122   2.05304   2.07624
 Alpha virt. eigenvalues --    2.09387   2.10681   2.11306   2.13664   2.14370
 Alpha virt. eigenvalues --    2.15515   2.15904   2.17084   2.19119   2.22537
 Alpha virt. eigenvalues --    2.24158   2.24823   2.26921   2.27223   2.28297
 Alpha virt. eigenvalues --    2.28980   2.29536   2.30767   2.31296   2.31699
 Alpha virt. eigenvalues --    2.32200   2.33200   2.34370   2.35738   2.37563
 Alpha virt. eigenvalues --    2.38209   2.38653   2.38970   2.40174   2.41215
 Alpha virt. eigenvalues --    2.44170   2.45825   2.47237   2.48854   2.50415
 Alpha virt. eigenvalues --    2.51115   2.52412   2.53486   2.55510   2.57822
 Alpha virt. eigenvalues --    2.60359   2.63829   2.63911   2.65320   2.66147
 Alpha virt. eigenvalues --    2.66896   2.68131   2.69263   2.70223   2.72760
 Alpha virt. eigenvalues --    2.74199   2.75417   2.76404   2.77373   2.79169
 Alpha virt. eigenvalues --    2.79477   2.81263   2.82340   2.83103   2.83580
 Alpha virt. eigenvalues --    2.85021   2.85628   2.86251   2.88232   2.89300
 Alpha virt. eigenvalues --    2.91375   2.92744   2.93626   2.94240   2.94508
 Alpha virt. eigenvalues --    2.95003   2.95230   2.95781   2.96950   2.98672
 Alpha virt. eigenvalues --    2.99069   2.99709   3.01498   3.01980   3.03562
 Alpha virt. eigenvalues --    3.04038   3.05381   3.06908   3.08696   3.10555
 Alpha virt. eigenvalues --    3.11919   3.12617   3.13829   3.14290   3.14596
 Alpha virt. eigenvalues --    3.14790   3.14977   3.15669   3.16415   3.18283
 Alpha virt. eigenvalues --    3.19487   3.19835   3.24465   3.25430   3.25559
 Alpha virt. eigenvalues --    3.26889   3.29182   3.29505   3.29848   3.30582
 Alpha virt. eigenvalues --    3.30917   3.31657   3.31928   3.33060   3.33372
 Alpha virt. eigenvalues --    3.33868   3.34931   3.37347   3.38784   3.39687
 Alpha virt. eigenvalues --    3.41213   3.42316   3.45541   3.46682   3.47907
 Alpha virt. eigenvalues --    3.48861   3.50497   3.51455   3.52616   3.54704
 Alpha virt. eigenvalues --    3.56320   3.56948   3.59756   3.63107   3.66277
 Alpha virt. eigenvalues --    3.69454   3.71548   3.71873   3.83358   3.86694
 Alpha virt. eigenvalues --    3.87259   3.88106   3.89334   3.89873   3.92788
 Alpha virt. eigenvalues --    3.94565   3.97974   4.06771   4.07433   4.07961
 Alpha virt. eigenvalues --    4.10705   4.38832   4.42665   4.46991   4.55429
 Alpha virt. eigenvalues --    4.74562   4.78947   4.80188   4.81115   4.85476
 Alpha virt. eigenvalues --    4.86634   4.88057   4.89580   4.93913   4.95074
 Alpha virt. eigenvalues --    4.96746   4.99974   5.05010   5.06061   5.10509
 Alpha virt. eigenvalues --    5.11095   5.16437   5.18266   5.46732   5.50173
 Alpha virt. eigenvalues --    5.51519   5.58771   5.59893   5.68217   5.68255
 Alpha virt. eigenvalues --    5.99720  23.23028  23.24397  23.41828  23.42317
 Alpha virt. eigenvalues --   23.54628  23.56120  23.70969  23.77481  23.78378
 Alpha virt. eigenvalues --   23.78813  23.83684  23.86131  23.89302  23.97491
 Alpha virt. eigenvalues --   23.98346  23.99047  24.05473  24.09476  24.11991
 Alpha virt. eigenvalues --   24.14953  24.15155  35.34872  49.82988  49.86009
 Alpha virt. eigenvalues --   49.86548  49.90874  49.92961  49.94578  49.96351
 Alpha virt. eigenvalues --   49.98130
  Beta  occ. eigenvalues --  -19.17208 -19.16476 -19.16440 -19.16145 -19.15277
  Beta  occ. eigenvalues --  -19.13450 -19.10658 -19.10212 -14.55970 -10.26381
  Beta  occ. eigenvalues --  -10.26319 -10.25967 -10.25804 -10.25755 -10.24751
  Beta  occ. eigenvalues --  -10.23189 -10.21399 -10.21207 -10.20650 -10.20208
  Beta  occ. eigenvalues --  -10.19856 -10.19531 -10.19400 -10.18745 -10.18223
  Beta  occ. eigenvalues --  -10.18189 -10.17991 -10.17919 -10.17656 -10.17211
  Beta  occ. eigenvalues --   -1.24716  -1.09580  -1.08231  -1.07367  -1.06794
  Beta  occ. eigenvalues --   -1.04954  -1.04342  -1.03708  -0.89602  -0.86800
  Beta  occ. eigenvalues --   -0.82078  -0.81212  -0.80869  -0.77543  -0.76184
  Beta  occ. eigenvalues --   -0.75572  -0.73231  -0.71772  -0.69789  -0.68924
  Beta  occ. eigenvalues --   -0.66271  -0.65639  -0.62711  -0.62222  -0.61133
  Beta  occ. eigenvalues --   -0.58661  -0.57753  -0.56717  -0.55865  -0.54637
  Beta  occ. eigenvalues --   -0.53081  -0.52907  -0.52745  -0.51757  -0.51230
  Beta  occ. eigenvalues --   -0.50648  -0.50006  -0.48735  -0.48273  -0.47513
  Beta  occ. eigenvalues --   -0.47373  -0.46234  -0.45708  -0.44919  -0.44353
  Beta  occ. eigenvalues --   -0.44013  -0.43963  -0.43046  -0.42876  -0.42465
  Beta  occ. eigenvalues --   -0.41907  -0.41241  -0.40671  -0.39760  -0.39454
  Beta  occ. eigenvalues --   -0.38929  -0.38583  -0.38393  -0.37740  -0.37522
  Beta  occ. eigenvalues --   -0.36893  -0.36445  -0.35921  -0.35826  -0.34169
  Beta  occ. eigenvalues --   -0.32988  -0.32138  -0.32092  -0.29869  -0.29579
  Beta  occ. eigenvalues --   -0.29135  -0.28376  -0.27540  -0.26510  -0.25232
  Beta  occ. eigenvalues --   -0.24840  -0.23296  -0.22022
  Beta virt. eigenvalues --   -0.10441  -0.08473  -0.07623  -0.06374  -0.01958
  Beta virt. eigenvalues --   -0.01302  -0.00136   0.01386   0.03302   0.03848
  Beta virt. eigenvalues --    0.05385   0.06070   0.06479   0.07066   0.07460
  Beta virt. eigenvalues --    0.08002   0.08066   0.08370   0.09364   0.10650
  Beta virt. eigenvalues --    0.10887   0.11798   0.12223   0.12353   0.12572
  Beta virt. eigenvalues --    0.12827   0.13393   0.13996   0.14565   0.15064
  Beta virt. eigenvalues --    0.16204   0.16815   0.17131   0.17179   0.18753
  Beta virt. eigenvalues --    0.20395   0.21146   0.22082   0.23104   0.23839
  Beta virt. eigenvalues --    0.24771   0.25906   0.26313   0.26822   0.27317
  Beta virt. eigenvalues --    0.27757   0.28179   0.29010   0.30177   0.30608
  Beta virt. eigenvalues --    0.30908   0.31095   0.31668   0.31915   0.33136
  Beta virt. eigenvalues --    0.33276   0.33993   0.34222   0.35164   0.35268
  Beta virt. eigenvalues --    0.35863   0.36108   0.36569   0.37288   0.37760
  Beta virt. eigenvalues --    0.38026   0.38263   0.38595   0.39570   0.40057
  Beta virt. eigenvalues --    0.40465   0.40689   0.41251   0.41991   0.42193
  Beta virt. eigenvalues --    0.42298   0.42899   0.43131   0.43326   0.43534
  Beta virt. eigenvalues --    0.44559   0.44990   0.45186   0.45344   0.45952
  Beta virt. eigenvalues --    0.46283   0.46640   0.46958   0.47762   0.48347
  Beta virt. eigenvalues --    0.48728   0.49506   0.50341   0.50565   0.51682
  Beta virt. eigenvalues --    0.52052   0.52155   0.52570   0.53011   0.54562
  Beta virt. eigenvalues --    0.54750   0.55424   0.55690   0.56722   0.57279
  Beta virt. eigenvalues --    0.57897   0.58002   0.58359   0.58863   0.59052
  Beta virt. eigenvalues --    0.59795   0.60290   0.60445   0.61342   0.61741
  Beta virt. eigenvalues --    0.62072   0.62332   0.62608   0.62763   0.62951
  Beta virt. eigenvalues --    0.63808   0.64191   0.64452   0.65167   0.65628
  Beta virt. eigenvalues --    0.66251   0.67018   0.67406   0.68414   0.68905
  Beta virt. eigenvalues --    0.69850   0.70656   0.70984   0.71399   0.73692
  Beta virt. eigenvalues --    0.74200   0.75036   0.75140   0.76023   0.76391
  Beta virt. eigenvalues --    0.76930   0.77902   0.78191   0.78333   0.79182
  Beta virt. eigenvalues --    0.79514   0.80254   0.80585   0.81227   0.81361
  Beta virt. eigenvalues --    0.82304   0.83065   0.83560   0.84229   0.85210
  Beta virt. eigenvalues --    0.85391   0.85988   0.86496   0.87460   0.88438
  Beta virt. eigenvalues --    0.88661   0.88984   0.89649   0.90627   0.90909
  Beta virt. eigenvalues --    0.91587   0.92570   0.93936   0.94307   0.94959
  Beta virt. eigenvalues --    0.95312   0.96716   0.96974   0.97939   0.98022
  Beta virt. eigenvalues --    0.99287   0.99704   1.00382   1.01974   1.03121
  Beta virt. eigenvalues --    1.04584   1.05574   1.06276   1.06652   1.08082
  Beta virt. eigenvalues --    1.08256   1.09077   1.09608   1.09973   1.11442
  Beta virt. eigenvalues --    1.12120   1.13670   1.14174   1.15099   1.15544
  Beta virt. eigenvalues --    1.16584   1.17371   1.19426   1.20016   1.20887
  Beta virt. eigenvalues --    1.21879   1.23304   1.23338   1.24103   1.24721
  Beta virt. eigenvalues --    1.25916   1.26584   1.27317   1.28521   1.30713
  Beta virt. eigenvalues --    1.33007   1.35298   1.37320   1.37859   1.38871
  Beta virt. eigenvalues --    1.40547   1.41945   1.43882   1.44751   1.45374
  Beta virt. eigenvalues --    1.46412   1.47112   1.47519   1.48959   1.49984
  Beta virt. eigenvalues --    1.50838   1.51177   1.52451   1.52757   1.53122
  Beta virt. eigenvalues --    1.53507   1.53996   1.54979   1.55318   1.56159
  Beta virt. eigenvalues --    1.56499   1.56937   1.57898   1.58399   1.59453
  Beta virt. eigenvalues --    1.60727   1.61325   1.61926   1.62546   1.63927
  Beta virt. eigenvalues --    1.66377   1.67266   1.67683   1.68167   1.69118
  Beta virt. eigenvalues --    1.70157   1.70533   1.70785   1.71594   1.72346
[...]
   360. RY*(   8) C  29                  0.00007     3.32433   
   361. RY*(   9) C  29                  0.00005     4.56134   
   362. RY*(  10) C  29                  0.00003     2.99742   
   363. RY*(  11) C  29                  0.00002     6.91436   
   364. RY*(  12) C  29                  0.00000     2.72033   
   365. RY*(  13) C  29                  0.00000    15.85702   
   366. RY*(   1) C  30                  0.00268     1.33854   
   367. RY*(   2) C  30                  0.00097     1.34204   
   368. RY*(   3) C  30                  0.00050     0.84716   
   369. RY*(   4) C  30                  0.00035     1.38573   
   370. RY*(   5) C  30                  0.00029     1.28776   
   371. RY*(   6) C  30                  0.00007     3.05100   
   372. RY*(   7) C  30                  0.00004     3.20286   
   373. RY*(   8) C  30                  0.00002     2.62138   
   374. RY*(   9) C  30                  0.00002     3.53403   
   375. RY*(  10) C  30                  0.00002     1.80380   
   376. RY*(  11) C  30                  0.00001     2.85975   
   377. RY*(  12) C  30                  0.00000     2.87448   
   378. RY*(  13) C  30                  0.00000    19.24124   
   379. RY*(   1) C  31                  0.00244     1.39337   
   380. RY*(   2) C  31                  0.00129     1.24918   
   381. RY*(   3) C  31                  0.00070     0.97543   
   382. RY*(   4) C  31                  0.00038     1.21764   
   383. RY*(   5) C  31                  0.00027     1.43952   
   384. RY*(   6) C  31                  0.00012     3.12927   
   385. RY*(   7) C  31                  0.00004     3.89192   
   386. RY*(   8) C  31                  0.00004     2.38871   
   387. RY*(   9) C  31                  0.00005     2.01496   
   388. RY*(  10) C  31                  0.00002     2.00785   
   389. RY*(  11) C  31                  0.00001     2.18181   
   390. RY*(  12) C  31                  0.00000    21.34570   
   391. RY*(  13) C  31                  0.00000     2.63816   
   392. RY*(   1) C  32                  0.00250     1.37885   
   393. RY*(   2) C  32                  0.00111     1.37576   
   394. RY*(   3) C  32                  0.00042     0.75318   
   395. RY*(   4) C  32                  0.00037     1.07219   
   396. RY*(   5) C  32                  0.00026     1.50656   
   397. RY*(   6) C  32                  0.00011     3.28022   
   398. RY*(   7) C  32                  0.00006     4.19219   
   399. RY*(   8) C  32                  0.00003     1.75382   
   400. RY*(   9) C  32                  0.00003     4.72104   
   401. RY*(  10) C  32                  0.00002     2.22853   
   402. RY*(  11) C  32                  0.00002     2.04210   
   403. RY*(  12) C  32                  0.00000     2.60888   
   404. RY*(  13) C  32                  0.00000    18.37159   
   405. RY*(   1) H  33                  0.00079     0.44903   
   406. RY*(   2) H  33                  0.00011     2.26784   
   407. RY*(   1) C  34                  0.00310     1.47920   
   408. RY*(   2) C  34                  0.00202     1.34050   
   409. RY*(   3) C  34                  0.00151     1.26055   
   410. RY*(   4) C  34                  0.00090     2.40599   
   411. RY*(   5) C  34                  0.00079     1.23948   
   412. RY*(   6) C  34                  0.00029     1.66623   
   413. RY*(   7) C  34                  0.00025     1.68666   
   414. RY*(   8) C  34                  0.00009     2.91584   
   415. RY*(   9) C  34                  0.00006     2.41104   
   416. RY*(  10) C  34                  0.00002     4.10587   
   417. RY*(  11) C  34                  0.00001     2.79000   
   418. RY*(  12) C  34                  0.00002     2.56870   
   419. RY*(  13) C  34                  0.00001    19.99910   
   420. RY*(   1) H  35                  0.00129     0.46436   
   421. RY*(   2) H  35                  0.00014     2.26107   
   422. RY*(   1) C  36                  0.00324     1.28088   
   423. RY*(   2) C  36                  0.00153     1.52638   
   424. RY*(   3) C  36                  0.00138     1.49784   
   425. RY*(   4) C  36                  0.00081     2.26038   
   426. RY*(   5) C  36                  0.00041     1.90774   
   427. RY*(   6) C  36                  0.00037     1.66691   
   428. RY*(   7) C  36                  0.00021     0.63418   
   429. RY*(   8) C  36                  0.00015     3.46707   
   430. RY*(   9) C  36                  0.00004     2.91616   
   431. RY*(  10) C  36                  0.00003     3.22949   
   432. RY*(  11) C  36                  0.00002     4.08908   
   433. RY*(  12) C  36                  0.00000     2.62516   
   434. RY*(  13) C  36                  0.00001    17.93955   
   435. RY*(   1) H  37                  0.00115     0.39405   
   436. RY*(   2) H  37                  0.00010     2.24732   
   437. RY*(   1) O  38                  0.00084     0.94172   
   438. RY*(   2) O  38                  0.00058     1.40336   
   439. RY*(   3) O  38                  0.00011     1.68492   
   440. RY*(   4) O  38                  0.00008     1.35992   
   441. RY*(   5) O  38                  0.00000    49.57986   
   442. RY*(   6) O  38                  0.00000     4.91441   
   443. RY*(   7) O  38                  0.00001     4.98212   
   444. RY*(   8) O  38                  0.00000     4.88879   
   445. RY*(   9) O  38                  0.00001     3.03815   
   446. RY*(  10) O  38                  0.00000     2.90573   
   447. RY*(  11) O  38                  0.00000     3.01876   
   448. RY*(  12) O  38                  0.00001     3.02066   
   449. RY*(  13) O  38                  0.00000     2.89648   
   450. RY*(   1) H  39                  0.00042     0.97723   
   451. RY*(   2) H  39                  0.00020     1.64796   
   452. RY*(   1) O  40                  0.00169     1.07497   
   453. RY*(   2) O  40                  0.00107     1.17593   
   454. RY*(   3) O  40                  0.00018     1.91080   
   455. RY*(   4) O  40                  0.00010     2.29929   
   456. RY*(   5) O  40                  0.00006     2.79009   
   457. RY*(   6) O  40                  0.00004     2.84144   
   458. RY*(   7) O  40                  0.00000     5.07620   
   459. RY*(   8) O  40                  0.00001     4.94389   
   460. RY*(   9) O  40                  0.00001     3.23265   
   461. RY*(  10) O  40                  0.00000    49.61762   
   462. RY*(  11) O  40                  0.00000     2.99245   
   463. RY*(  12) O  40                  0.00000     4.94729   
   464. RY*(  13) O  40                  0.00000     2.93040   
   465. RY*(   1) C  41                  0.00113     1.40675   
   466. RY*(   2) C  41                  0.00103     1.39855   
   467. RY*(   3) C  41                  0.00068     0.90877   
   468. RY*(   4) C  41                  0.00026     0.98008   
   469. RY*(   5) C  41                  0.00010     1.07645   
   470. RY*(   6) C  41                  0.00005     1.87853   
   471. RY*(   7) C  41                  0.00001     2.06862   
   472. RY*(   8) C  41                  0.00001     2.60238   
   473. RY*(   9) C  41                  0.00000     1.60475   
   474. RY*(  10) C  41                  0.00000    23.16262   
   475. RY*(  11) C  41                  0.00000     1.63997   
   476. RY*(  12) C  41                  0.00000     2.67330   
   477. RY*(  13) C  41                  0.00000     1.71899   
   478. RY*(   1) H  42                  0.00100     0.39432   
   479. RY*(   2) H  42                  0.00006     2.11745   
   480. RY*(   1) H  43                  0.00046     0.37903   
   481. RY*(   2) H  43                  0.00006     2.04752   
   482. RY*(   1) H  44                  0.00102     0.46099   
   483. RY*(   2) H  44                  0.00007     2.07559   
   484. RY*(   1) C  45                  0.00278     1.18774   
   485. RY*(   2) C  45                  0.00095     1.35570   
   486. RY*(   3) C  45                  0.00063     0.64875   
   487. RY*(   4) C  45                  0.00039     0.87880   
   488. RY*(   5) C  45                  0.00013     1.90051   
   489. RY*(   6) C  45                  0.00009     3.03496   
   490. RY*(   7) C  45                  0.00006     2.26627   
   491. RY*(   8) C  45                  0.00006     2.02711   
   492. RY*(   9) C  45                  0.00003     2.28024   
   493. RY*(  10) C  45                  0.00003     3.22630   
   494. RY*(  11) C  45                  0.00001     1.62254   
   495. RY*(  12) C  45                  0.00000    22.16893   
   496. RY*(  13) C  45                  0.00000     2.91998   
   497. RY*(   1) H  46                  0.00117     0.52623   
   498. RY*(   2) H  46                  0.00007     2.20541   
   499. RY*(   1) H  47                  0.00117     0.51759   
   500. RY*(   2) H  47                  0.00007     2.20983   
   501. RY*(   1) O  48                  0.00153     0.93172   
   502. RY*(   2) O  48                  0.00134     0.99777   
   503. RY*(   3) O  48                  0.00079     1.69743   
   504. RY*(   4) O  48                  0.00005     1.74001   
   505. RY*(   5) O  48                  0.00000    49.71812   
   506. RY*(   6) O  48                  0.00001     4.92543   
   507. RY*(   7) O  48                  0.00000     4.73420   
   508. RY*(   8) O  48                  0.00001     4.76627   
   509. RY*(   9) O  48                  0.00000     2.85426   
   510. RY*(  10) O  48                  0.00001     2.95835   
   511. RY*(  11) O  48                  0.00001     2.87737   
   512. RY*(  12) O  48                  0.00001     3.06157   
   513. RY*(  13) O  48                  0.00000     2.93998   
   514. RY*(   1) O  49                  0.00151     0.94108   
   515. RY*(   2) O  49                  0.00133     0.99482   
   516. RY*(   3) O  49                  0.00077     1.78671   
   517. RY*(   4) O  49                  0.00003     2.21384   
   518. RY*(   5) O  49                  0.00000    49.67449   
   519. RY*(   6) O  49                  0.00000     4.81004   
   520. RY*(   7) O  49                  0.00001     4.85172   
   521. RY*(   8) O  49                  0.00001     4.80507   
   522. RY*(   9) O  49                  0.00001     2.90649   
   523. RY*(  10) O  49                  0.00001     2.78207   
   524. RY*(  11) O  49                  0.00000     2.94216   
   525. RY*(  12) O  49                  0.00000     2.63010   
   526. RY*(  13) O  49                  0.00000     2.87968   
   527. RY*(   1) N  50                  0.00772     0.93837   
   528. RY*(   2) N  50                  0.00491     1.30248   
   529. RY*(   3) N  50                  0.00287     2.11837   
   530. RY*(   4) N  50                  0.00212     1.12261   
   531. RY*(   5) N  50                  0.00161     2.15484   
   532. RY*(   6) N  50                  0.00126     2.85351   
   533. RY*(   7) N  50                  0.00028     1.50309   
   534. RY*(   8) N  50                  0.00008     2.47604   
   535. RY*(   9) N  50                  0.00004     3.28512   
   536. RY*(  10) N  50                  0.00001     3.92332   
   537. RY*(  11) N  50                  0.00000    33.88298   
   538. RY*(  12) N  50                  0.00001     3.75244   
   539. RY*(  13) N  50                  0.00001     3.96138   
   540. BD*(   1) C   1 - H   2          0.00978     0.44582   
   541. BD*(   1) C   1 - C   3          0.00749     0.63985   
   542. BD*(   2) C   1 - C   3          0.05427     0.03755   
   543. BD*(   1) C   1 - C   7          0.01300     0.48391   
   544. BD*(   1) C   3 - H   4          0.00864     0.44076   
   545. BD*(   1) C   3 - C   5          0.02683     0.46083   
   546. BD*(   1) C   5 - O   6          0.00630     0.59165   
   547. BD*(   2) C   5 - O   6          0.08240     0.01601   
   548. BD*(   1) C   5 - C  45          0.03202     0.37368   
   549. BD*(   1) C   7 - C   8          0.01085     0.54878   
   550. BD*(   2) C   7 - C   8          0.16648     0.02047  558(v),542(v),555(v),181(g)
                                                    168(g),207(v),94(r)
   551. BD*(   1) C   7 - C   9          0.01670     0.51378   
   552. BD*(   1) C   8 - C  10          0.00682     0.56655   
   553. BD*(   1) C   8 - H  11          0.00646     0.44196   
   554. BD*(   1) C   9 - C  12          0.01694     0.51853   
   555. BD*(   2) C   9 - C  12          0.22155    -0.01003  558(v),550(v),94(r),222(g)
                                                    564(v),599(v),600(v),556(g)
                                                    223(g),221(g),233(r)
   556. BD*(   1) C   9 - N  50          0.05258     0.23287   
   557. BD*(   1) C  10 - C  14          0.01304     0.54034   
   558. BD*(   2) C  10 - C  14          0.17187     0.01109  550(v),555(v),209(g),241(g)
   559. BD*(   1) C  10 - H  15          0.00651     0.42861   
   560. BD*(   1) C  12 - C  14          0.02213     0.51209   
   561. BD*(   1) C  12 - O  18          0.01213     0.36056   
   562. BD*(   1) C  14 - O  16          0.01052     0.34221   
   563. BD*(   1) O  16 - H  17          0.00350     0.37548   
   564. BD*(   1) O  18 - C  19          0.00543     0.26538   
   565. BD*(   1) C  19 - H  20          0.00737     0.39865   
   566. BD*(   1) C  19 - H  21          0.00402     0.40810   
   567. BD*(   1) C  19 - H  22          0.00794     0.40438   
   568. BD*(   1) C  23 - H  24          0.00932     0.45141   
   569. BD*(   1) C  23 - C  25          0.00737     0.64515   
   570. BD*(   2) C  23 - C  25          0.06746     0.04118   
   571. BD*(   1) C  23 - C  29          0.01271     0.50310   
   572. BD*(   1) C  25 - H  26          0.00844     0.44501   
   573. BD*(   1) C  25 - C  27          0.02572     0.47700   
   574. BD*(   1) C  27 - O  28          0.00647     0.59190   
   575. BD*(   2) C  27 - O  28          0.09594     0.01752   
   576. BD*(   1) C  27 - C  45          0.03287     0.37181   
   577. BD*(   1) C  29 - C  30          0.01143     0.56449   
   578. BD*(   2) C  29 - C  30          0.19960     0.03079  583(v),586(v),570(v),368(g)
                                                    394(v),355(g),356(g),299(v)
   579. BD*(   1) C  29 - C  31          0.01314     0.56072   
   580. BD*(   1) C  30 - C  32          0.00687     0.58229   
   581. BD*(   1) C  30 - H  33          0.00677     0.45168   
   582. BD*(   1) C  31 - C  34          0.01222     0.58375   
   583. BD*(   2) C  31 - C  34          0.15961     0.03063  578(v),586(v),383(g),570(r)
                                                    592(v)
   584. BD*(   1) C  31 - H  35          0.00648     0.44898   
   585. BD*(   1) C  32 - C  36          0.01304     0.55575   
   586. BD*(   2) C  32 - C  36          0.19189     0.01957  578(v),583(v),428(g),394(g)
                                                    396(g)
   587. BD*(   1) C  32 - H  37          0.00676     0.43549   
   588. BD*(   1) C  34 - C  36          0.02299     0.52420   
   589. BD*(   1) C  34 - O  40          0.01408     0.36413   
   590. BD*(   1) C  36 - O  38          0.01096     0.35098   
   591. BD*(   1) O  38 - H  39          0.00370     0.38364   
   592. BD*(   1) O  40 - C  41          0.00519     0.28585   
   593. BD*(   1) C  41 - H  42          0.00857     0.39621   
   594. BD*(   1) C  41 - H  43          0.00446     0.41080   
   595. BD*(   1) C  41 - H  44          0.00921     0.40832   
   596. BD*(   1) C  45 - H  46          0.00466     0.41325   
   597. BD*(   1) C  45 - H  47          0.00473     0.41160   
   598. BD (   1) O  48 - O  49          0.42851    -0.26561   
   599. BD*(   1) O  48 - N  50          0.03179     0.42177   
   600. BD*(   1) O  49 - N  50          0.03775     0.40652   
       -------------------------------
              Total Lewis  104.65635  ( 96.9754%)
        Valence non-Lewis    3.04565  (  2.8221%)
        Rydberg non-Lewis    0.21857  (  0.2025%)
       -------------------------------
            Total unit  1  107.92057  (100.0000%)
           Charge unit  1    0.07943
 
 Molecular unit  2  (H)
    94. LP*(   1) H  13                  0.07899    -0.05895   
   233. RY*(   1) H  13                  0.00041     0.50194   
   234. RY*(   2) H  13                  0.00003     2.42358   
       -------------------------------
              Total Lewis    0.00000  (  0.0000%)
        Valence non-Lewis    0.07899  ( 99.4435%)
        Rydberg non-Lewis    0.00044  (  0.5565%)
       -------------------------------
            Total unit  2    0.07943  (100.0000%)
           Charge unit  2    0.42057
 1\1\GINC-N02\SP\UB3LYP\6-311G(d)\C21H20N1O8(2)\UNKNOWN\06-Nov-2024\0\\
 # pop=nbo b3lyp/6-311g(d) scrf=(smd,solvent=generic,read) temperature=
 298.15 Geom=Check Guess=Read\\Reagente 1\\0,2\C,0,2.2534838946,1.03400
 14868,0.566147563\H,0,1.8249678539,1.9946133827,0.2973051039\C,0,1.536
 3967245,0.2128430187,1.3593544319\H,0,1.9063278625,-0.7538082186,1.684
 0851695\C,0,0.194747417,0.512649058,1.8861505932\O,0,-0.3976150382,-0.
 327504608,2.5479643972\C,0,3.5856752453,0.8239282364,0.0170632442\C,0,
 4.3067494472,1.9445762357,-0.4097290338\C,0,4.2857782824,-0.4139930426
 ,-0.0254344846\C,0,5.6077234261,1.8547389985,-0.8901802993\H,0,3.83131
 49699,2.9178012492,-0.3591718962\C,0,5.5622332169,-0.5466926918,-0.596
 9440066\H,0,4.7733638383,-0.4074355026,1.8326301115\C,0,6.244705353,0.
 6180682951,-0.9906222783\H,0,6.1267967362,2.7510537594,-1.2167684112\O
 ,0,7.488296621,0.4590196593,-1.4989614532\H,0,7.8479498088,1.315989842
 1,-1.7698537686\O,0,6.0691783001,-1.787076329,-0.7985491169\C,0,7.1780
 850124,-2.1766324099,0.0424826668\H,0,6.893091559,-2.1192222604,1.0951
 694296\H,0,7.3960166748,-3.2097099494,-0.2220193255\H,0,8.0511744,-1.5
 525952176,-0.1496235096\C,0,-3.0940246876,0.7147651553,0.7400631137\H,
 0,-2.7006852081,0.5062766553,1.7309827769\C,0,-2.3490645907,1.46251514
 59,-0.1026939934\H,0,-2.6821186179,1.6772524636,-1.1141043352\C,0,-1.0
 371604658,2.0330931209,0.2102312607\O,0,-0.4071519802,2.6428952064,-0.
 6449219904\C,0,-4.3910538138,0.1108605117,0.4693049031\C,0,-4.99939236
 28,-0.6637889116,1.4697187939\C,0,-5.0792688229,0.2703467638,-0.749844
 0424\C,0,-6.2342356406,-1.2643832563,1.2599448003\H,0,-4.4943034171,-0
 .8038620982,2.4198631444\C,0,-6.3099314954,-0.3216729209,-0.9733676245
 \H,0,-4.6568694139,0.857013762,-1.5576980248\C,0,-6.8977733449,-1.1084
 149466,0.0427149857\H,0,-6.6868821391,-1.8705837166,2.0401662514\O,0,-
 8.0921740564,-1.6931197654,-0.2265279197\H,0,-8.3846988641,-2.20660663
 58,0.539735527\O,0,-6.9047215584,-0.1870034549,-2.1998790409\C,0,-8.10
 44469746,0.6018004049,-2.226524947\H,0,-7.9082985507,1.6146578203,-1.8
 597867016\H,0,-8.410469,0.649925924,-3.2712113164\H,0,-8.8992564088,0.
 1425659061,-1.6360115237\C,0,-0.4509633027,1.8776454946,1.6224186824\H
 ,0,-1.2280592982,2.0062476359,2.3755579803\H,0,0.2815973604,2.67536372
 22,1.7481360099\O,0,3.8323737714,-2.4923412555,0.9654243201\O,0,2.6947
 787412,-1.9038857086,-0.7832189262\N,0,3.5383855359,-1.7103550147,0.07
 70137093\\Version=ES64L-G16RevA.03\State=2-A\HF=-1468.9118864\S2=0.765
 634\S2-1=0.\S2A=0.750119\RMSD=7.715e-09\Dipole=0.6151448,2.0442239,0.5
 55956\Quadrupole=55.5291293,-24.4304141,-31.0987152,23.9747586,-17.720
 7655,-5.0190382\PG=C01 [X(C21H20N1O8)]\\@


 GOOD SENSE ABOUT TRIVIALITIES IS BETTER THAN NONSENSE
 ABOUT THINGS THAT MATTER

                                       -- MAX BEERBOHM
 Job cpu time:       0 days  0 hours  1 minutes 40.7 seconds.
 Elapsed time:       0 days  0 hours  1 minutes 41.2 seconds.
 File lengths (MBytes):  RWF=    625 Int=      0 D2E=      0 Chk=     49 Scr=      1
 Normal termination of Gaussian 16 at Wed Nov  6 14:07:05 2024.
