 Entering Gaussian System, Link 0=g16
 Initial command:
 /sw/cluster/pub/apps//g16/l1.exe "/data/natrosa/25414/Gau-193364.inp" -scrdir="/data/natrosa/25414/"
 Entering Link 1 = /sw/cluster/pub/apps//g16/l1.exe PID=    193365.
  
 Copyright (c) 1988,1990,1992,1993,1995,1998,2003,2009,2016,
            Gaussian, Inc.  All Rights Reserved.
  
 This is part of the Gaussian(R) 16 program.  It is based on
 the Gaussian(R) 09 system (copyright 2009, Gaussian, Inc.),
 the Gaussian(R) 03 system (copyright 2003, Gaussian, Inc.),
 the Gaussian(R) 98 system (copyright 1998, Gaussian, Inc.),
 the Gaussian(R) 94 system (copyright 1995, Gaussian, Inc.),
 the Gaussian 92(TM) system (copyright 1992, Gaussian, Inc.),
 the Gaussian 90(TM) system (copyright 1990, Gaussian, Inc.),
 the Gaussian 88(TM) system (copyright 1988, Gaussian, Inc.),
 the Gaussian 86(TM) system (copyright 1986, Carnegie Mellon
 University), and the Gaussian 82(TM) system (copyright 1983,
 Carnegie Mellon University). Gaussian is a federally registered
 trademark of Gaussian, Inc.
  
 This software contains proprietary and confidential information,
 including trade secrets, belonging to Gaussian, Inc.
  
 This software is provided under written license and may be
 used, copied, transmitted, or stored only in accord with that
 written license.
  
 The following legend is applicable only to US Government
 contracts under FAR:
  
                    RESTRICTED RIGHTS LEGEND
  
 Use, reproduction and disclosure by the US Government is
 subject to restrictions as set forth in subparagraphs (a)
 and (c) of the Commercial Computer Software - Restricted
 Rights clause in FAR 52.227-19.
  
 Gaussian, Inc.
 340 Quinnipiac St., Bldg. 40, Wallingford CT 06492
  
  
 ---------------------------------------------------------------
 Warning -- This program may not be used in any manner that
 competes with the business of Gaussian, Inc. or will provide
 assistance to any competitor of Gaussian, Inc.  The licensee
 of this program is prohibited from giving any competitor of
 Gaussian, Inc. access to this program.  By using this program,
 the user acknowledges that Gaussian, Inc. is engaged in the
 business of creating and licensing software in the field of
 computational chemistry and represents and warrants to the
 licensee that it is not a competitor of Gaussian, Inc. and that
 it will not use this program in any manner prohibited above.
 ---------------------------------------------------------------
  

 Cite this work as:
 Gaussian 16, Revision A.03,
 M. J. Frisch, G. W. Trucks, H. B. Schlegel, G. E. Scuseria, 
 M. A. Robb, J. R. Cheeseman, G. Scalmani, V. Barone, 
 G. A. Petersson, H. Nakatsuji, X. Li, M. Caricato, A. V. Marenich, 
 J. Bloino, B. G. Janesko, R. Gomperts, B. Mennucci, H. P. Hratchian, 
 J. V. Ortiz, A. F. Izmaylov, J. L. Sonnenberg, D. Williams-Young, 
 F. Ding, F. Lipparini, F. Egidi, J. Goings, B. Peng, A. Petrone, 
 T. Henderson, D. Ranasinghe, V. G. Zakrzewski, J. Gao, N. Rega, 
 G. Zheng, W. Liang, M. Hada, M. Ehara, K. Toyota, R. Fukuda, 
 J. Hasegawa, M. Ishida, T. Nakajima, Y. Honda, O. Kitao, H. Nakai, 
 T. Vreven, K. Throssell, J. A. Montgomery, Jr., J. E. Peralta, 
 F. Ogliaro, M. J. Bearpark, J. J. Heyd, E. N. Brothers, K. N. Kudin, 
 V. N. Staroverov, T. A. Keith, R. Kobayashi, J. Normand, 
 K. Raghavachari, A. P. Rendell, J. C. Burant, S. S. Iyengar, 
 J. Tomasi, M. Cossi, J. M. Millam, M. Klene, C. Adamo, R. Cammi, 
 J. W. Ochterski, R. L. Martin, K. Morokuma, O. Farkas, 
 J. B. Foresman, and D. J. Fox, Gaussian, Inc., Wallingford CT, 2016.
 
 ******************************************
 Gaussian 16:  ES64L-G16RevA.03 25-Dec-2016
                 6-Nov-2024 
 ******************************************
 %oldchk=/home/natrosa/MOSSRI/REACAO-1/B3LYP-6-311G/CURCUMIN-OPT-FREQ-Prod-1-B3LY
 P-6-311G-D-298.chk
 %chk=CURCUMIN-Prod-1-B3LYP-6-311G-D-298-NBO.chk
 Copying data from "/home/natrosa/MOSSRI/REACAO-1/B3LYP-6-311G/CURCUMIN-OPT-FREQ-Prod-1-B3LYP-6-311G-D-298.chk" to current chk file "CURCUMIN-Prod-1-B3LYP-6-311G-D-298-NBO.chk"
 IOpt=  2 FromEx=T IUOpen= 4 IOptOp= 5 NList=   0 IFRang= 0 IUIn= 4 IUOut= 2.
 ----------------------------------------------------------------------
 # pop=nbo b3lyp/6-311g(d) scrf=(smd,solvent=generic,read) temperature=
 298.15 Geom=Check Guess=Read
 ----------------------------------------------------------------------
 1/29=2,38=1,40=2,112=298150,172=1/1;
 2/12=2,40=1/2;
 3/5=4,6=6,7=1,11=2,14=-4,25=1,30=1,70=32203,72=-2,74=-5,116=-2/1,2,3;
 4/5=1/1;
 5/5=2,38=6/2;
 6/7=2,8=2,9=2,10=2,28=1,40=1/1,7;
 99/5=1,9=1/99;
 ----------
 Reagente 1
 ----------
 Structure from the checkpoint file:  "CURCUMIN-Prod-1-B3LYP-6-311G-D-298-NBO.chk"
 Charge =  0 Multiplicity = 2
 Redundant internal coordinates found in file.  (old form).
 C,0,2.2181617273,0.8320274486,0.7725790665
 H,0,1.7735181912,1.822833046,0.7668367742
 C,0,1.5086857038,-0.1724405186,1.3238953008
 H,0,1.8748146781,-1.190505174,1.3878341691
 C,0,0.1640487977,-0.0242842969,1.9069899842
 O,0,-0.4291667953,-1.0115558259,2.3165522901
 C,0,3.5480968344,0.8071953824,0.1675849433
 C,0,4.1996905706,2.0381671287,-0.0187913339
 C,0,4.2795042264,-0.3274996848,-0.2296974225
 C,0,5.4795163185,2.1287286554,-0.5461221245
 H,0,3.6817830578,2.9469594312,0.2660648834
 C,0,5.556860241,-0.279320159,-0.772127843
 H,0,5.3134994133,-1.8455552015,4.1502930163
 C,0,6.1710339082,0.9800436895,-0.9275659438
 H,0,5.9441821694,3.1016857136,-0.6772792712
 O,0,7.4078909929,0.9978491726,-1.4740408
 H,0,7.7245685155,1.9097674773,-1.547182346
 O,0,6.1311997835,-1.4310349321,-1.2123298273
 C,0,7.2788515138,-1.8925867083,-0.4677288662
 H,0,7.0193069901,-2.0289477396,0.5846378647
 H,0,7.5459883734,-2.8526273927,-0.9059555195
 H,0,8.1133900826,-1.1975391542,-0.5645985272
 C,0,-3.1542571501,0.4832718529,0.8986665002
 H,0,-2.7588525747,0.0234509515,1.8000502896
 C,0,-2.4051943619,1.4128659806,0.2667340182
 H,0,-2.7445172959,1.8815663521,-0.6526814425
 C,0,-1.0840379216,1.8740293292,0.6984507677
 O,0,-0.4561701797,2.6757583898,0.0179874361
 C,0,-4.4620172726,-0.0144279241,0.495244388
 C,0,-5.0809398606,-1.0035137965,1.2759244265
 C,0,-5.1514277559,0.4543665399,-0.6406510478
 C,0,-6.3274425637,-1.5118378911,0.9333571322
 H,0,-4.5757652506,-1.3839753447,2.1575681314
 C,0,-6.3935044356,-0.0423959643,-0.9948698798
 H,0,-4.7211210292,1.2155201277,-1.2813665789
 C,0,-6.9926620071,-1.046648828,-0.2013986102
 H,0,-6.7879421877,-2.2851073399,1.5426616138
 O,0,-8.1990058283,-1.5251644967,-0.5976374739
 H,0,-8.4981703407,-2.2078004989,0.019566559
 O,0,-6.9883004235,0.4031615804,-2.1454524736
 C,0,-8.1769177365,1.189653456,-1.9688366608
 H,0,-7.9678867225,2.0727689256,-1.3561846429
 H,0,-8.4793666463,1.5067617333,-2.9664945205
 H,0,-8.9796339168,0.6063906134,-1.5142296461
 C,0,-0.482586496,1.3608101904,2.0162423411
 H,0,-1.2494441851,1.2895126172,2.7870490601
 H,0,0.2530469659,2.0998599082,2.3335478332
 O,0,4.0715116962,-2.4102124992,0.7574508994
 O,0,2.8802997238,-1.9915187812,-1.0079064546
 N,0,3.6951564627,-1.6869455412,-0.1540514326
 Recover connectivity data from disk.
                           ----------------------------
                           !    Current Parameters    !
                           ! (Angstroms and Degrees)  !
 --------------------------                            --------------------------
 ! Name  Definition              Value                                          !
 --------------------------------------------------------------------------------
 ! R1    R(1,2)                  1.086                                          !
 ! R2    R(1,3)                  1.3477                                         !
 ! R3    R(1,7)                  1.4613                                         !
 ! R4    R(3,4)                  1.0838                                         !
 ! R5    R(3,5)                  1.4731                                         !
 ! R6    R(5,6)                  1.2224                                         !
 ! R7    R(5,45)                 1.5325                                         !
 ! R8    R(7,8)                  1.4052                                         !
 ! R9    R(7,9)                  1.4072                                         !
 ! R10   R(8,10)                 1.3872                                         !
 ! R11   R(8,11)                 1.0841                                         !
 ! R12   R(9,12)                 1.3886                                         !
 ! R13   R(9,50)                 1.4816                                         !
 ! R14   R(10,14)                1.394                                          !
 ! R15   R(10,15)                1.0862                                         !
 ! R16   R(12,14)                1.4097                                         !
 ! R17   R(12,18)                1.3602                                         !
 ! R18   R(13,20)                3.9569                                         !
 ! R19   R(13,48)                3.6569                                         !
 ! R20   R(14,16)                1.3523                                         !
 ! R21   R(16,17)                0.9681                                         !
 ! R22   R(18,19)                1.4438                                         !
 ! R23   R(19,20)                1.0924                                         !
 ! R24   R(19,21)                1.0886                                         !
 ! R25   R(19,22)                1.0904                                         !
 ! R26   R(23,24)                1.0864                                         !
 ! R27   R(23,25)                1.3508                                         !
 ! R28   R(23,29)                1.4563                                         !
 ! R29   R(25,26)                1.0863                                         !
 ! R30   R(25,27)                1.4644                                         !
 ! R31   R(27,28)                1.2248                                         !
 ! R32   R(27,45)                1.5368                                         !
 ! R33   R(29,30)                1.4039                                         !
 ! R34   R(29,31)                1.409                                          !
 ! R35   R(30,32)                1.3891                                         !
 ! R36   R(30,33)                1.085                                          !
 ! R37   R(31,34)                1.3838                                         !
 ! R38   R(31,35)                1.084                                          !
 ! R39   R(32,36)                1.3952                                         !
 ! R40   R(32,37)                1.0869                                         !
 ! R41   R(34,36)                1.4132                                         !
 ! R42   R(34,40)                1.3697                                         !
 ! R43   R(36,38)                1.3569                                         !
 ! R44   R(38,39)                0.9677                                         !
 ! R45   R(40,41)                1.4362                                         !
 ! R46   R(41,42)                1.095                                          !
 ! R47   R(41,43)                1.0897                                         !
 ! R48   R(41,44)                1.0914                                         !
 ! R49   R(45,46)                1.0896                                         !
 ! R50   R(45,47)                1.09                                           !
 ! R51   R(48,50)                1.2229                                         !
 ! R52   R(49,50)                1.2189                                         !
 ! A1    A(2,1,3)              117.8144                                         !
 ! A2    A(2,1,7)              112.7019                                         !
 ! A3    A(3,1,7)              129.4808                                         !
 ! A4    A(1,3,4)              123.1217                                         !
 ! A5    A(1,3,5)              124.5761                                         !
 ! A6    A(4,3,5)              112.302                                          !
 ! A7    A(3,5,6)              119.6268                                         !
 ! A8    A(3,5,45)             120.2831                                         !
 ! A9    A(6,5,45)             120.0859                                         !
 ! A10   A(1,7,8)              117.5191                                         !
 ! A11   A(1,7,9)              127.129                                          !
 ! A12   A(8,7,9)              115.3343                                         !
 ! A13   A(7,8,10)             122.373                                          !
 ! A14   A(7,8,11)             118.5533                                         !
 ! A15   A(10,8,11)            119.0729                                         !
 ! A16   A(7,9,12)             124.0845                                         !
 ! A17   A(7,9,50)             121.3609                                         !
 ! A18   A(12,9,50)            114.4926                                         !
 ! A19   A(8,10,14)            120.525                                          !
 ! A20   A(8,10,15)            119.9393                                         !
 ! A21   A(14,10,15)           119.5301                                         !
 ! A22   A(9,12,14)            118.3484                                         !
 ! A23   A(9,12,18)            119.0433                                         !
 ! A24   A(14,12,18)           122.4641                                         !
 ! A25   A(20,13,48)            45.8294                                         !
 ! A26   A(10,14,12)           119.3301                                         !
 ! A27   A(10,14,16)           123.6038                                         !
 ! A28   A(12,14,16)           117.0511                                         !
 ! A29   A(14,16,17)           110.0057                                         !
 ! A30   A(12,18,19)           116.0668                                         !
 ! A31   A(18,19,20)           110.3563                                         !
 ! A32   A(18,19,21)           105.6269                                         !
 ! A33   A(18,19,22)           111.0255                                         !
 ! A34   A(20,19,21)           109.6338                                         !
 ! A35   A(20,19,22)           110.3029                                         !
 ! A36   A(21,19,22)           109.7899                                         !
 ! A37   A(13,20,19)           164.7294                                         !
 ! A38   A(24,23,25)           118.5292                                         !
 ! A39   A(24,23,29)           114.3329                                         !
 ! A40   A(25,23,29)           127.1279                                         !
 ! A41   A(23,25,26)           121.3088                                         !
 ! A42   A(23,25,27)           125.3872                                         !
 ! A43   A(26,25,27)           113.293                                          !
 ! A44   A(25,27,28)           120.3215                                         !
 ! A45   A(25,27,45)           120.0471                                         !
 ! A46   A(28,27,45)           119.6298                                         !
 ! A47   A(23,29,30)           118.8588                                         !
 ! A48   A(23,29,31)           123.2993                                         !
 ! A49   A(30,29,31)           117.84                                           !
 ! A50   A(29,30,32)           121.0849                                         !
 ! A51   A(29,30,33)           119.5807                                         !
 ! A52   A(32,30,33)           119.3327                                         !
 ! A53   A(29,31,34)           121.7412                                         !
 ! A54   A(29,31,35)           121.0572                                         !
 ! A55   A(34,31,35)           117.1982                                         !
 ! A56   A(30,32,36)           120.4258                                         !
 ! A57   A(30,32,37)           120.1534                                         !
 ! A58   A(36,32,37)           119.4172                                         !
 ! A59   A(31,34,36)           119.4669                                         !
 ! A60   A(31,34,40)           119.2097                                         !
 ! A61   A(36,34,40)           121.2448                                         !
 ! A62   A(32,36,34)           119.4361                                         !
 ! A63   A(32,36,38)           122.9428                                         !
 ! A64   A(34,36,38)           117.6176                                         !
 ! A65   A(36,38,39)           109.7163                                         !
 ! A66   A(34,40,41)           115.7365                                         !
 ! A67   A(40,41,42)           110.6399                                         !
 ! A68   A(40,41,43)           106.0512                                         !
 ! A69   A(40,41,44)           111.5472                                         !
 ! A70   A(42,41,43)           109.3025                                         !
 ! A71   A(42,41,44)           109.7771                                         !
 ! A72   A(43,41,44)           109.435                                          !
 ! A73   A(5,45,27)            113.9438                                         !
 ! A74   A(5,45,46)            106.7531                                         !
 ! A75   A(5,45,47)            110.4141                                         !
 ! A76   A(27,45,46)           110.6715                                         !
 ! A77   A(27,45,47)           106.6983                                         !
 ! A78   A(46,45,47)           108.2654                                         !
 ! A79   A(13,48,50)           134.8068                                         !
 ! A80   A(9,50,48)            117.3431                                         !
 ! A81   A(9,50,49)            117.2029                                         !
 ! A82   A(48,50,49)           125.4539                                         !
 ! D1    D(2,1,3,4)           -179.1382                                         !
 ! D2    D(2,1,3,5)              0.712                                          !
 ! D3    D(7,1,3,4)              0.1898                                         !
 ! D4    D(7,1,3,5)           -179.96                                           !
 ! D5    D(2,1,7,8)             15.5036                                         !
 ! D6    D(2,1,7,9)           -166.1039                                         !
 ! D7    D(3,1,7,8)           -163.8522                                         !
 ! D8    D(3,1,7,9)             14.5403                                         !
 ! D9    D(1,3,5,6)            175.9349                                         !
 ! D10   D(1,3,5,45)            -4.8073                                         !
 ! D11   D(4,3,5,6)             -4.2008                                         !
 ! D12   D(4,3,5,45)           175.057                                          !
 ! D13   D(3,5,45,27)           78.8035                                         !
 ! D14   D(3,5,45,46)         -158.7141                                         !
 ! D15   D(3,5,45,47)          -41.2443                                         !
 ! D16   D(6,5,45,27)         -101.9421                                         !
 ! D17   D(6,5,45,46)           20.5403                                         !
 ! D18   D(6,5,45,47)          138.0101                                         !
 ! D19   D(1,7,8,10)           178.0133                                         !
 ! D20   D(1,7,8,11)            -1.657                                          !
 ! D21   D(9,7,8,10)            -0.5687                                         !
 ! D22   D(9,7,8,11)           179.761                                          !
 ! D23   D(1,7,9,12)          -178.4369                                         !
 ! D24   D(1,7,9,50)             4.5866                                         !
 ! D25   D(8,7,9,12)            -0.0142                                         !
 ! D26   D(8,7,9,50)          -176.9907                                         !
 ! D27   D(7,8,10,14)            0.5947                                         !
 ! D28   D(7,8,10,15)          179.7286                                         !
 ! D29   D(11,8,10,14)        -179.7367                                         !
 ! D30   D(11,8,10,15)          -0.6027                                         !
 ! D31   D(7,9,12,14)            0.5579                                         !
 ! D32   D(7,9,12,18)         -175.1857                                         !
 ! D33   D(50,9,12,14)         177.7209                                         !
 ! D34   D(50,9,12,18)           1.9773                                         !
 ! D35   D(7,9,50,48)         -104.3011                                         !
 ! D36   D(7,9,50,49)           75.8136                                         !
 ! D37   D(12,9,50,48)          78.4505                                         !
 ! D38   D(12,9,50,49)        -101.4348                                         !
 ! D39   D(8,10,14,12)          -0.0158                                         !
 ! D40   D(8,10,14,16)         178.538                                          !
 ! D41   D(15,10,14,12)       -179.1533                                         !
 ! D42   D(15,10,14,16)         -0.5995                                         !
 ! D43   D(9,12,14,10)          -0.5335                                         !
 ! D44   D(9,12,14,16)        -179.1809                                         !
 ! D45   D(18,12,14,10)        175.0559                                         !
 ! D46   D(18,12,14,16)         -3.5916                                         !
 ! D47   D(9,12,18,19)        -112.8795                                         !
 ! D48   D(14,12,18,19)         71.5606                                         !
 ! D49   D(48,13,20,19)         49.9322                                         !
 ! D50   D(20,13,48,50)        -87.6903                                         !
 ! D51   D(10,14,16,17)          0.4211                                         !
 ! D52   D(12,14,16,17)        179.0053                                         !
 ! D53   D(12,18,19,20)         56.9547                                         !
 ! D54   D(12,18,19,21)        175.3743                                         !
 ! D55   D(12,18,19,22)        -65.6683                                         !
 ! D56   D(18,19,20,13)        -22.3781                                         !
 ! D57   D(21,19,20,13)       -138.3172                                         !
 ! D58   D(22,19,20,13)        100.6671                                         !
 ! D59   D(24,23,25,26)        178.3086                                         !
 ! D60   D(24,23,25,27)         -0.4042                                         !
 ! D61   D(29,23,25,26)         -0.4725                                         !
 ! D62   D(29,23,25,27)       -179.1853                                         !
 ! D63   D(24,23,29,30)          0.2392                                         !
 ! D64   D(24,23,29,31)        179.7161                                         !
 ! D65   D(25,23,29,30)        179.0639                                         !
 ! D66   D(25,23,29,31)         -1.4592                                         !
 ! D67   D(23,25,27,28)        176.4024                                         !
 ! D68   D(23,25,27,45)         -4.0662                                         !
 ! D69   D(26,25,27,28)         -2.4003                                         !
 ! D70   D(26,25,27,45)        177.1311                                         !
 ! D71   D(25,27,45,5)          80.6758                                         !
 ! D72   D(25,27,45,46)        -39.6312                                         !
 ! D73   D(25,27,45,47)       -157.2068                                         !
 ! D74   D(28,27,45,5)         -99.7895                                         !
 ! D75   D(28,27,45,46)        139.9035                                         !
 ! D76   D(28,27,45,47)         22.328                                          !
 ! D77   D(23,29,30,32)       -179.9523                                         !
 ! D78   D(23,29,30,33)         -0.4228                                         !
 ! D79   D(31,29,30,32)          0.5422                                         !
 ! D80   D(31,29,30,33)       -179.9284                                         !
 ! D81   D(23,29,31,34)        179.9609                                         !
 ! D82   D(23,29,31,35)          0.6588                                         !
 ! D83   D(30,29,31,34)         -0.5572                                         !
 ! D84   D(30,29,31,35)       -179.8593                                         !
 ! D85   D(29,30,32,36)          0.038                                          !
 ! D86   D(29,30,32,37)        179.3376                                         !
 ! D87   D(33,30,32,36)       -179.4926                                         !
 ! D88   D(33,30,32,37)         -0.193                                          !
 ! D89   D(29,31,34,36)         -0.008                                          !
 ! D90   D(29,31,34,40)       -176.8253                                         !
 ! D91   D(35,31,34,36)        179.3199                                         !
 ! D92   D(35,31,34,40)          2.5026                                         !
 ! D93   D(30,32,36,34)         -0.6167                                         !
 ! D94   D(30,32,36,38)        178.6913                                         !
 ! D95   D(37,32,36,34)       -179.9214                                         !
 ! D96   D(37,32,36,38)         -0.6134                                         !
 ! D97   D(31,34,36,32)          0.5999                                         !
 ! D98   D(31,34,36,38)       -178.7447                                         !
 ! D99   D(40,34,36,32)        177.3506                                         !
 ! D100  D(40,34,36,38)         -1.994                                          !
 ! D101  D(31,34,40,41)       -112.6571                                         !
 ! D102  D(36,34,40,41)         70.5841                                         !
 ! D103  D(32,36,38,39)          0.2331                                         !
 ! D104  D(34,36,38,39)        179.5529                                         !
 ! D105  D(34,40,41,42)         58.2483                                         !
 ! D106  D(34,40,41,43)        176.6682                                         !
 ! D107  D(34,40,41,44)        -64.2632                                         !
 ! D108  D(13,48,50,9)          28.8606                                         !
 ! D109  D(13,48,50,49)       -151.2647                                         !
 --------------------------------------------------------------------------------
                          Input orientation:                          
 ---------------------------------------------------------------------
 Center     Atomic      Atomic             Coordinates (Angstroms)
 Number     Number       Type             X           Y           Z
 ---------------------------------------------------------------------
      1          6           0        2.218162    0.832027    0.772579
      2          1           0        1.773518    1.822833    0.766837
      3          6           0        1.508686   -0.172441    1.323895
      4          1           0        1.874815   -1.190505    1.387834
      5          6           0        0.164049   -0.024284    1.906990
      6          8           0       -0.429167   -1.011556    2.316552
      7          6           0        3.548097    0.807195    0.167585
      8          6           0        4.199691    2.038167   -0.018791
      9          6           0        4.279504   -0.327500   -0.229697
     10          6           0        5.479516    2.128729   -0.546122
     11          1           0        3.681783    2.946959    0.266065
     12          6           0        5.556860   -0.279320   -0.772128
     13          1           0        5.313499   -1.845555    4.150293
     14          6           0        6.171034    0.980044   -0.927566
     15          1           0        5.944182    3.101686   -0.677279
     16          8           0        7.407891    0.997849   -1.474041
     17          1           0        7.724569    1.909767   -1.547182
     18          8           0        6.131200   -1.431035   -1.212330
     19          6           0        7.278852   -1.892587   -0.467729
     20          1           0        7.019307   -2.028948    0.584638
     21          1           0        7.545988   -2.852627   -0.905956
     22          1           0        8.113390   -1.197539   -0.564599
     23          6           0       -3.154257    0.483272    0.898667
     24          1           0       -2.758853    0.023451    1.800050
     25          6           0       -2.405194    1.412866    0.266734
     26          1           0       -2.744517    1.881566   -0.652681
     27          6           0       -1.084038    1.874029    0.698451
     28          8           0       -0.456170    2.675758    0.017987
     29          6           0       -4.462017   -0.014428    0.495244
     30          6           0       -5.080940   -1.003514    1.275924
     31          6           0       -5.151428    0.454367   -0.640651
     32          6           0       -6.327443   -1.511838    0.933357
     33          1           0       -4.575765   -1.383975    2.157568
     34          6           0       -6.393504   -0.042396   -0.994870
     35          1           0       -4.721121    1.215520   -1.281367
     36          6           0       -6.992662   -1.046649   -0.201399
     37          1           0       -6.787942   -2.285107    1.542662
     38          8           0       -8.199006   -1.525164   -0.597637
     39          1           0       -8.498170   -2.207800    0.019567
     40          8           0       -6.988300    0.403162   -2.145452
     41          6           0       -8.176918    1.189653   -1.968837
     42          1           0       -7.967887    2.072769   -1.356185
     43          1           0       -8.479367    1.506762   -2.966495
     44          1           0       -8.979634    0.606391   -1.514230
     45          6           0       -0.482586    1.360810    2.016242
     46          1           0       -1.249444    1.289513    2.787049
     47          1           0        0.253047    2.099860    2.333548
     48          8           0        4.071512   -2.410212    0.757451
     49          8           0        2.880300   -1.991519   -1.007906
     50          7           0        3.695156   -1.686946   -0.154051
 ---------------------------------------------------------------------
                    Distance matrix (angstroms):
                    1          2          3          4          5
     1  C    0.000000
     2  H    1.086019   0.000000
     3  C    1.347688   2.088437   0.000000
     4  H    2.141743   3.078328   1.083787   0.000000
     5  C    2.497907   2.702255   1.473091   2.134552   0.000000
     6  O    3.576451   3.909885   2.333400   2.490556   1.222437
     7  C    1.461288   2.130669   2.540854   2.877445   3.894698
     8  C    2.451020   2.559276   3.732439   4.219949   4.924301
     9  C    2.568695   3.449200   3.180429   3.023858   4.646972
    10  C    3.749245   3.943584   4.955789   5.267957   6.237581
    11  H    2.621389   2.270662   3.946139   4.652109   4.888290
    12  C    3.842931   4.593597   4.559874   4.364992   6.027033
    13  H    5.306554   6.118522   5.026375   4.459240   5.904767
    14  C    4.305531   4.787425   5.304224   5.341335   6.717682
    15  H    4.597463   4.595147   5.865001   6.264770   7.061167
    16  O    5.657569   6.119501   6.633148   6.602587   8.059118
    17  H    6.071518   6.385706   7.156527   7.241936   8.534244
    18  O    4.936920   5.787413   5.420713   4.993548   6.878662
    19  C    5.879836   6.755530   6.282009   5.756705   7.729829
    20  H    5.592092   6.510585   5.861746   5.273890   7.263736
    21  H    6.691778   7.614432   6.971704   6.339269   8.390782
    22  H    6.376590   7.147681   6.945456   6.536962   8.406979
    23  C    5.385203   5.108304   4.727982   5.322817   3.505065
    24  H    5.145888   4.984746   4.298486   4.807752   2.925247
    25  C    4.687075   4.228453   4.353073   5.133506   3.369993
    26  H    5.268879   4.736151   5.120111   5.910969   4.317863
    27  C    3.463493   2.858833   3.361761   4.315255   2.573302
    28  O    3.334787   2.501953   3.698417   4.717835   3.353093
    29  C    6.739302   6.506243   6.030002   6.506559   4.836694
    30  C    7.543173   7.431756   6.641999   6.959167   5.372806
    31  C    7.513368   7.197819   6.972047   7.495895   5.913871
    32  C    8.862669   8.762039   7.959360   8.221121   6.730545
    33  H    7.279169   7.247838   6.259662   6.499223   4.937346
    34  C    8.834551   8.560546   8.236394   8.681045   7.170957
    35  H    7.247027   6.836981   6.893788   7.511322   5.963859
    36  C    9.450785   9.274552   8.681225   9.009911   7.530541
    37  H    9.561353   9.527627   8.564184   8.733011   7.319442
    38  O   10.768065  10.607644   9.988064  10.273069   8.858131
    39  H   11.164558  11.059476  10.294714  10.512177   9.130397
    40  O    9.667356   9.341647   9.196003   9.673608   8.231713
    41  C   10.756437  10.339052  10.320286  10.861387   9.277252
    42  H   10.479821   9.973197  10.100951  10.726480   9.009679
    43  H   11.352227  10.916012  10.999471  11.551818  10.040099
    44  H   11.431143  11.059533  10.893410  11.378482   9.783120
    45  C    3.019992   2.620017   2.606792   3.530078   1.532501
    46  H    4.036294   3.674778   3.447522   4.227208   2.120974
    47  H    2.811707   2.200718   2.785566   3.788272   2.168377
    48  O    3.734602   4.816590   3.449139   2.590472   4.720419
    49  O    3.403082   4.350168   3.260011   2.718859   4.443495
    50  N    3.063557   4.106005   3.042812   2.436700   4.413735
                    6          7          8          9         10
     6  O    0.000000
     7  C    4.872837   0.000000
     8  C    6.015061   1.405205   0.000000
     9  C    5.396564   1.407239   2.376390   0.000000
    10  C    7.277969   2.446673   1.387167   2.751947   0.000000
    11  H    6.064178   2.146197   1.084101   3.365284   2.135648
    12  C    6.775591   2.469556   2.789296   1.388593   2.419868
    13  H    6.085752   5.100558   5.805612   4.749522   6.154576
    14  C    7.619280   2.847636   2.414889   2.403034   1.393977
    15  H    8.154837   3.423406   2.146609   3.838072   1.086168
    16  O    8.934527   4.198725   3.673222   3.618251   2.420444
    17  H    9.483985   4.647473   3.844116   4.313884   2.467858
    18  O    7.461058   3.685954   4.146158   2.368994   3.679734
    19  C    8.242693   4.648761   5.013342   3.391495   4.406215
    20  H    7.714556   4.501882   4.985558   3.326347   4.575571
    21  H    8.796431   5.525389   5.992048   4.183720   5.404969
    22  H    9.017256   5.039539   5.107323   3.945606   4.242840
    23  C    3.416289   6.749886   7.572316   7.562497   8.907131
    24  H    2.601048   6.561769   7.469176   7.333588   8.820853
    25  C    3.739554   5.984843   6.640560   6.925353   7.958760
    26  H    4.748405   6.436156   6.974838   7.375349   8.228437
    27  C    3.372493   4.782952   5.334713   5.871607   6.685363
    28  O    4.345160   4.421319   4.699459   5.613156   5.987473
    29  C    4.536001   8.058806   8.916421   8.777115  10.223094
    30  C    4.766756   8.886358   9.851813   9.504831  11.164857
    31  C    5.761400   8.744110   9.504659   9.472205  10.762407
    32  C    6.078912  10.173033  11.150321  10.736046  12.443748
    33  H    4.166323   8.646294   9.667276   9.232062  10.988982
    34  C    6.890436  10.045324  10.839615  10.704199  12.078236
    35  H    6.027085   8.405127   9.047194   9.192289  10.267791
    36  C    7.029991  10.708897  11.611124  11.295119  12.874668
    37  H    6.531069  10.875977  11.910370  11.378131  13.203617
    38  O    8.314246  12.000829  12.913561  12.541252  14.158233
    39  H    8.474430  12.418722  13.389002  12.917687  14.645860
    40  O    8.058111  10.794862  11.505089  11.452834  12.687864
    41  C    9.123460  11.924200  12.557989  12.668418  13.762419
    42  H    8.935007  11.685094  12.240905  12.531115  13.471896
    43  H    9.952800  12.448764  13.028040  13.177381  14.180813
    44  H    9.508056  12.641711  13.340949  13.353910  14.571265
    45  C    2.391895   4.468829   5.150135   5.529208   6.534683
    46  H    2.487798   5.487315   6.174649   6.502673   7.556006
    47  H    3.185375   4.149666   4.594921   5.354872   5.967354
    48  O    4.964186   3.312645   4.517418   2.314177   4.927856
    49  O    4.792173   3.108140   4.354022   2.309186   4.893425
    50  N    4.854902   2.519090   3.761557   1.481647   4.230488
                   11         12         13         14         15
    11  H    0.000000
    12  C    3.873324   0.000000
    13  H    6.381060   5.171319   0.000000
    14  C    3.389673   1.409740   5.874013   0.000000
    15  H    2.456072   3.404441   6.941067   2.148364   0.000000
    16  O    4.550921   2.355877   6.641126   1.352319   2.683915
    17  H    4.550577   3.176755   7.237191   1.913578   2.312396
    18  O    5.229926   1.360180   5.440421   2.428163   4.568020
    19  C    6.074419   2.379189   5.019058   3.112991   5.173781
    20  H    6.000017   2.653443   3.956932   3.472802   5.391820
    21  H    7.066889   3.255219   5.618171   4.071896   6.170245
    22  H    6.124215   2.724342   5.521731   2.940469   4.816793
    23  C    7.293928   8.902621   9.364796   9.515406   9.597984
    24  H    7.237527   8.709699   8.612763   9.386045   9.558007
    25  C    6.277319   8.205915   9.234586   8.669797   8.570610
    26  H    6.578487   8.578844  10.094138   8.965230   8.773984
    27  C    4.904201   7.134497   8.165722   7.488605   7.266062
    28  O    4.154245   6.746355   8.414708   6.905748   6.452079
    29  C    8.668554  10.102193  10.595902  10.773817  10.925839
    30  C    9.664956  10.857337  10.817365  11.636012  11.925644
    31  C    9.222839  10.734198  11.737013  11.338289  11.407112
    32  C   10.977739  12.069152  12.081870  12.879613  13.208767
    33  H    9.514299  10.605352  10.098592  11.428050  11.782479
    34  C   10.584782  11.954788  12.914257  12.606250  12.735958
    35  H    8.717868  10.398595  11.813836  10.900443  10.847637
    36  C   11.406630  12.585906  13.077350  13.338579  13.594009
    37  H   11.773673  12.719103  12.387003  13.590375  14.001881
    38  O   12.723955  13.813270  14.325966  14.590509  14.880990
    39  H   13.228136  14.208790  14.420692  15.041442  15.403174
    40  O   11.231073  12.638547  14.000979  13.228156  13.292354
    41  C   12.194740  13.863861  15.121098  14.387213  14.308370
    42  H   11.794520  13.740168  14.902006  14.187559  13.966576
    43  H   12.665590  14.318554  15.878597  14.800976  14.690917
    44  H   12.998430  14.582348  15.568960  15.166625  15.154117
    45  C    4.787584   6.851274   6.959135   7.285716   7.182553
    46  H    5.780960   7.839308   7.399954   8.304073   8.187417
    47  H    4.092468   6.590611   6.668961   6.849191   6.515962
    48  O    5.393759   3.014394   3.656877   4.329101   5.995529
    49  O    5.162746   3.186094   5.705155   4.434588   5.952934
    50  N    4.652929   2.414409   4.601258   3.720366   5.316284
                   16         17         18         19         20
    16  O    0.000000
    17  H    0.968106   0.000000
    18  O    2.756431   3.716438   0.000000
    19  C    3.063321   3.977660   1.443802   0.000000
    20  H    3.681121   4.533821   2.091728   1.092444   0.000000
    21  H    3.894607   4.808687   2.028896   1.088615   1.782613
    22  H    2.478819   3.282074   2.098369   1.090380   1.791369
    23  C   10.837597  11.241259   9.712908  10.787099  10.483858
    24  H   10.725288  11.165316   9.498579  10.467546  10.064888
    25  C    9.974928  10.302878   9.118411  10.258957  10.038345
    26  H   10.223844  10.507268   9.490252  10.711973  10.590342
    27  C    8.809101   9.090418   8.162977   9.245826   8.995020
    28  O    8.178324   8.364268   7.859572   8.996458   8.850882
    29  C   12.074664  12.505475  10.823069  11.929074  11.657062
    30  C   12.943673  13.432728  11.492879  12.513801  12.163279
    31  C   12.598667  12.989660  11.453351  12.651084  12.481785
    32  C   14.168750  14.673768  12.642321  13.683539  13.361315
    33  H   12.746360  13.261679  11.224862  12.152482  11.719036
    34  C   13.848835  14.263098  12.603326  13.807042  13.650815
    35  H   12.132495  12.467872  11.170581  12.422628  12.322589
    36  C   14.600531  15.071443  13.168352  14.299043  14.068335
    37  H   14.879515  15.419373  13.237207  14.215148  13.842816
    38  O   15.833790  16.317494  14.343692  15.482763  15.272479
    39  H   16.294473  16.810304  14.701680  15.787693  15.528793
    40  O   14.424104  14.801902  13.279920  14.547744  14.476934
    41  C   15.593841  15.923367  14.565800  15.831435  15.741819
    42  H   15.413756  15.694464  14.528647  15.778987  15.659082
    43  H   15.965318  16.270967  15.005879  16.313211  16.288667
    44  H   16.392249  16.755007  15.250559  16.482670  16.349812
    45  C    8.635592   8.964192   7.871483   8.774658   8.355738
    46  H    9.653570   9.985148   8.824416   9.667014   9.177965
    47  H    8.179484   8.421392   7.719660   8.552702   8.117143
    48  O    5.265536   6.108878   3.013493   3.472180   2.977369
    49  O    5.445428   6.243220   3.305190   4.432701   4.434972
    50  N    4.768112   5.577931   2.668286   3.603270   3.422368
                   21         22         23         24         25
    21  H    0.000000
    22  H    1.782635   0.000000
    23  C   11.352539  11.485911   0.000000
    24  H   11.035581  11.193214   1.086404   0.000000
    25  C   10.890164  10.869496   1.350770   2.099192   0.000000
    26  H   11.330103  11.286399   2.128331   3.077124   1.086345
    27  C    9.969592   9.778676   2.502019   2.728217   1.464413
    28  O    9.769916   9.422272   3.586400   3.938633   2.335694
    29  C   12.418170  12.675326   1.456259   2.145862   2.513942
    30  C   12.946781  13.323495   2.462714   2.592577   3.743924
    31  C   13.123680  13.367497   2.521711   3.444870   3.046944
    32  C   14.058907  14.521718   3.748436   3.980340   4.937845
    33  H   12.588845  12.979199   2.663105   2.325906   4.013596
    34  C   14.220224  14.559172   3.788737   4.585478   4.429001
    35  H   12.929529  13.079040   2.782767   3.842741   2.792683
    36  C   14.667321  15.111171   4.275997   4.803754   5.226205
    37  H   14.552641  15.088839   4.613276   4.650726   5.874647
    38  O   15.803862  16.315719   5.632249   6.143483   6.553428
    39  H   16.083763  16.652502   6.047487   6.410021   7.091874
    40  O   14.945972  15.268346   4.896220   5.796499   5.276647
    41  C   16.268974  16.524064   5.826549   6.702236   6.193577
    42  H   16.283199  16.429516   5.548142   6.426162   5.832057
    43  H   16.735056  16.982400   6.659113   7.592394   6.881726
    44  H   16.894703  17.214164   6.306524   7.072651   6.858971
    45  C    9.526296   9.332562   3.026033   2.648897   2.599983
    46  H   10.399771  10.250933   2.800772   2.203495   2.775421
    47  H    9.391938   9.003171   4.035091   3.696976   3.436557
    48  O    3.877453   4.422123   7.784853   7.325545   7.536873
    49  O    4.745582   5.311512   6.795255   6.613982   6.414904
    50  N    4.093053   4.464175   7.261716   6.956882   6.855667
                   26         27         28         29         30
    26  H    0.000000
    27  C    2.140749   0.000000
    28  O    2.513378   1.224752   0.000000
    29  C    2.803985   3.875346   4.848885   0.000000
    30  C    4.183549   4.958725   6.042180   1.403858   0.000000
    31  C    2.798261   4.511352   5.235822   1.409012   2.409076
    32  C    5.183441   6.246004   7.269505   2.431870   1.389070
    33  H    4.681318   4.993574   6.166872   2.156831   1.085011
    34  C    4.139303   5.893255   6.608039   2.439645   2.793399
    35  H    2.178491   4.193052   4.691527   2.176294   3.404896
    36  C    5.179270   6.652212   7.525302   2.820453   2.416408
    37  H    6.207253   7.109545   8.186950   3.415113   2.151160
    38  O    6.431197   7.991066   8.830529   4.176338   3.674873
    39  H    7.090794   8.490676   9.408662   4.618191   3.834867
    40  O    4.735371   6.716513   7.246647   3.678283   4.162040
    41  C    5.632227   7.608662   8.109619   4.617574   4.992348
    42  H    5.273999   7.186682   7.660146   4.480547   4.972522
    43  H    6.195378   8.261816   8.639755   5.516951   5.987396
    44  H    6.422228   8.297186   8.903898   4.983198   5.057328
    45  C    3.537043   1.536786   2.392239   4.476671   5.223309
    46  H    3.797041   2.175146   3.196664   4.156111   4.714003
    47  H    4.236816   2.124226   2.489271   5.484652   6.261063
    48  O    8.177169   6.703574   6.849366   8.867336   9.274426
    49  O    6.838533   5.793970   5.828204   7.750998   8.341065
    50  N    7.379181   6.020631   6.024641   8.352148   8.918059
                   31         32         33         34         35
    31  C    0.000000
    32  C    2.779653   0.000000
    33  H    3.397193   2.140891   0.000000
    34  C    1.383835   2.425218   3.878386   0.000000
    35  H    1.083990   3.863127   4.313326   2.112179   0.000000
    36  C    2.415809   1.395202   3.394098   1.413192   3.382845
    37  H    3.866491   1.086857   2.466551   3.409458   4.949877
    38  O    3.634298   2.418030   4.554005   2.369859   4.480460
    39  H    4.327090   2.455898   4.542576   3.185542   5.260955
    40  O    2.375111   3.685516   5.246920   1.369724   2.558647
    41  C    3.385013   4.375082   6.051370   2.376367   3.523608
    42  H    3.326207   4.558779   5.983480   2.661419   3.358863
    43  H    4.194313   5.380666   7.060487   3.261597   4.129030
    44  H    3.929556   4.184697   6.069408   2.716381   4.308155
    45  C    5.447825   6.602052   4.930308   6.780467   5.372198
    46  H    5.260425   6.088498   4.313722   6.522135   5.348834
    47  H    6.384501   7.635950   5.956971   7.735908   6.212247
    48  O    9.758233  10.439170   8.819801  10.871695   9.726927
    49  O    8.403920   9.422373   8.122945   9.476428   8.254785
    50  N    9.115045  10.082937   8.593225  10.256344   8.973788
                   36         37         38         39         40
    36  C    0.000000
    37  H    2.148822   0.000000
    38  O    1.356926   2.673854   0.000000
    39  H    1.914067   2.291435   0.967694   0.000000
    40  O    2.425142   4.568273   2.753176   3.712699   0.000000
    41  C    3.086640   5.131650   3.041531   3.949638   1.436166
    42  H    3.466318   5.365321   3.684282   4.527380   2.090484
    43  H    4.046721   6.129574   3.857805   4.766014   2.028626
    44  H    2.898986   4.744350   2.448070   3.240989   2.098846
    45  C    7.286623   7.298939   8.643168   8.998404   7.782102
    46  H    6.882806   6.708306   8.226477   8.510828   7.619033
    47  H    8.296190   8.332405   9.652453  10.024682   8.682012
    48  O   11.189041  10.888524  12.376800  12.592948  11.775456
    49  O    9.950809  10.003324  11.096703  11.426813  10.218502
    50  N   10.707086  10.636352  11.903530  12.205681  11.066638
                   41         42         43         44         45
    41  C    0.000000
    42  H    1.094956   0.000000
    43  H    1.089658   1.781874   0.000000
    44  H    1.091429   1.788540   1.780452   0.000000
    45  C    8.666769   8.240744   9.423240   9.232183   0.000000
    46  H    8.403470   7.932046   9.242415   8.872626   1.089632
    47  H    9.508065   9.011027  10.232168  10.113270   1.089970
    48  O   13.054337  13.019666  13.665102  13.586494   6.045244
    49  O   11.545792  11.589775  12.046412  12.151688   5.629617
    50  N   12.349673  12.312886  12.896845  12.952212   5.608255
                   46         47         48         49         50
    46  H    0.000000
    47  H    1.766297   0.000000
    48  O    6.791156   6.116004   0.000000
    49  O    6.497818   5.899759   2.170432   0.000000
    50  N    6.477534   5.690006   1.222945   1.218944   0.000000
 Stoichiometry    C21H20NO8(2)
 Framework group  C1[X(C21H20NO8)]
 Deg. of freedom   144
 Full point group                 C1      NOp   1
 Largest Abelian subgroup         C1      NOp   1
 Largest concise Abelian subgroup C1      NOp   1
                         Standard orientation:                         
 ---------------------------------------------------------------------
 Center     Atomic      Atomic             Coordinates (Angstroms)
 Number     Number       Type             X           Y           Z
 ---------------------------------------------------------------------
      1          6           0        2.224401    0.623017    0.937426
      2          1           0        1.775076    1.584215    1.169033
      3          6           0        1.519863   -0.487635    1.231263
      4          1           0        1.890822   -1.489616    1.049555
      5          6           0        0.174732   -0.489876    1.831775
      6          8           0       -0.413675   -1.549305    1.992211
      7          6           0        3.554241    0.750166    0.345207
      8          6           0        4.199946    1.992948    0.459923
      9          6           0        4.290875   -0.252759   -0.311934
     10          6           0        5.479157    2.213270   -0.029272
     11          1           0        3.677841    2.804512    0.953931
     12          6           0        5.567811   -0.069974   -0.825952
     13          1           0        5.333471   -2.771801    3.577202
     14          6           0        6.175972    1.192780   -0.674424
     15          1           0        5.939174    3.191454    0.077041
     16          8           0        7.412552    1.346858   -1.199683
     17          1           0        7.724891    2.251184   -1.051801
     18          8           0        6.147445   -1.079865   -1.528969
     19          6           0        7.297510   -1.701111   -0.915806
     20          1           0        7.038958   -2.087011    0.072964
     21          1           0        7.569039   -2.526828   -1.571203
     22          1           0        8.128721   -0.999222   -0.842533
     23          6           0       -3.146267    0.229125    0.971841
     24          1           0       -2.748397   -0.431541    1.737016
     25          6           0       -2.401815    1.286600    0.581819
     26          1           0       -2.743651    1.960472   -0.198687
     27          6           0       -1.082712    1.636972    1.112586
     28          8           0       -0.458865    2.581382    0.644695
     29          6           0       -4.451791   -0.163438    0.459795
     30          6           0       -5.065775   -1.313724    0.980069
     31          6           0       -5.143783    0.560791   -0.531140
     32          6           0       -6.309972   -1.730906    0.524606
     33          1           0       -4.558518   -1.892101    1.745195
     34          6           0       -6.383613    0.157648   -0.995140
     35          1           0       -4.717290    1.455358   -0.970332
     36          6           0       -6.977756   -1.010336   -0.466068
     37          1           0       -6.766611   -2.629845    0.930373
     38          8           0       -8.181953   -1.385524   -0.966458
     39          1           0       -8.477685   -2.197615   -0.531161
     40          8           0       -6.980886    0.863282   -2.005828
     41          6           0       -8.173150    1.578933   -1.646771
     42          1           0       -7.968096    2.290375   -0.840091
     43          1           0       -8.477422    2.124566   -2.539552
     44          1           0       -8.972951    0.899948   -1.345915
     45          6           0       -0.478409    0.825593    2.269390
     46          1           0       -1.244668    0.567994    2.999997
     47          1           0        0.253826    1.470440    2.755228
     48          8           0        4.093055   -2.512346    0.146925
     49          8           0        2.899298   -1.688184   -1.467535
     50          7           0        3.712986   -1.593405   -0.564897
 ---------------------------------------------------------------------
 Rotational constants (GHZ):           0.3606700           0.0453969           0.0442823
 Standard basis: 6-311G(d) (5D, 7F)
 There are   630 symmetry adapted cartesian basis functions of A   symmetry.
 There are   600 symmetry adapted basis functions of A   symmetry.
   600 basis functions,  1060 primitive gaussians,   630 cartesian basis functions
   109 alpha electrons      108 beta electrons
       nuclear repulsion energy      2673.3032711788 Hartrees.
 NAtoms=   50 NActive=   50 NUniq=   50 SFac= 1.00D+00 NAtFMM=   60 NAOKFM=F Big=F
 Integral buffers will be    131072 words long.
 Raffenetti 2 integral format.
 Two-electron integral symmetry is turned on.
 Using the following non-standard input for PCM:
 Eps=7
 EpsInf=1.85341
 HbondAcidity=0
 HbondBasicity=0.48
 SurfaceTensionAtInterface=60.62
 CarbonAromaticity=0
 ElectronegativeHalogenicity=0
 --- end of non-standard input.
 ------------------------------------------------------------------------------
 Polarizable Continuum Model (PCM)
 =================================
 Model                : PCM.
 Atomic radii         : SMD-Coulomb.
 Polarization charges : Total charges.
 Charge compensation  : None.
 Solution method      : On-the-fly selection.
 Cavity type          : VdW (van der Waals Surface) (Alpha=1.000).
 Cavity algorithm     : GePol (No added spheres)
                        Default sphere list used, NSphG=   50.
                        Lebedev-Laikov grids with approx.  5.0 points / Ang**2.
                        Smoothing algorithm: York/Karplus (Gamma=1.0000).
                        Polarization charges: spherical gaussians, with
                                              point-specific exponents (IZeta= 3).
                        Self-potential: point-specific (ISelfS= 7).
                        Self-field    : sphere-specific E.n sum rule (ISelfD= 2).
 Solvent              : Generic,
                        Eps                           =   7.000000
                        Eps(infinity)                 =   1.853410
                        RSolv                         =   0.000000 Ang.
                        Molar volume                  =   0.000000 cm**3/mol
                        Thermal expansion coefficient =   0.000000 K**-1
                        Absolute temperature          = 298.150000 K
                        Numeral density               =   0.000000 Ang**-3
                        Hydrogen bond acidity         =   0.000000
                        Hydrogen bond basicity        =   0.480000
                        Surface tension at interface  =  60.620000 (cal/mol)*Ang**-2
                        Carbon aromaticity            =   0.000000
                        Electronegative halogenicity  =   0.000000
 ------------------------------------------------------------------------------
 Separa: There are  2 disjoint cavities,
 ------------------------------------------------------------------------------
 Atomic radii for non-electrostatic terms: SMD-CDS.
 ------------------------------------------------------------------------------
 Separa: There are  2 disjoint cavities,
 Nuclear repulsion after PCM non-electrostatic terms =     2673.3000120278 Hartrees.
 One-electron integrals computed using PRISM.
 NBasis=   600 RedAO= T EigKep=  1.32D-04  NBF=   600
 NBsUse=   600 1.00D-06 EigRej= -1.00D+00 NBFU=   600
 Initial guess from the checkpoint file:  "CURCUMIN-Prod-1-B3LYP-6-311G-D-298-NBO.chk"
 B after Tr=     0.000000    0.000000    0.000000
         Rot=    1.000000    0.000000   -0.000000    0.000000 Ang=   0.00 deg.
 Initial guess <Sx>= 0.0000 <Sy>= 0.0000 <Sz>= 0.5000 <S**2>= 0.7500 S= 0.5000
 Requested convergence on RMS density matrix=1.00D-08 within 128 cycles.
 Requested convergence on MAX density matrix=1.00D-06.
 Requested convergence on             energy=1.00D-06.
 No special actions if energy rises.
 Inv3:  Mode=1 IEnd=    52768908.
 Iteration    1 A*A^-1 deviation from unit magnitude is 3.55D-15 for    213.
 Iteration    1 A*A^-1 deviation from orthogonality  is 1.87D-15 for   1474   1202.
 Iteration    1 A^-1*A deviation from unit magnitude is 3.77D-15 for   3036.
 Iteration    1 A^-1*A deviation from orthogonality  is 1.83D-15 for   2498    500.
 Error on total polarization charges =  0.04265
 SCF Done:  E(UB3LYP) =  -1468.91905236     A.U. after    1 cycles
            NFock=  1  Conv=0.71D-08     -V/T= 2.0034
 <Sx>= 0.0000 <Sy>= 0.0000 <Sz>= 0.5000 <S**2>= 0.7500 S= 0.5000
 <L.S>=  0.00000000000    
 SMD-CDS (non-electrostatic) energy       (kcal/mol) =      -2.05
 (included in total energy above)
 Annihilation of the first spin contaminant:
 S**2 before annihilation     0.7500,   after     0.7500

 **********************************************************************

            Population analysis using the SCF density.

 **********************************************************************

 Orbital symmetries:
 Alpha Orbitals:
       Occupied  (A) (A) (A) (A) (A) (A) (A) (A) (A) (A) (A) (A)
                 (A) (A) (A) (A) (A) (A) (A) (A) (A) (A) (A) (A)
                 (A) (A) (A) (A) (A) (A) (A) (A) (A) (A) (A) (A)
                 (A) (A) (A) (A) (A) (A) (A) (A) (A) (A) (A) (A)
                 (A) (A) (A) (A) (A) (A) (A) (A) (A) (A) (A) (A)
                 (A) (A) (A) (A) (A) (A) (A) (A) (A) (A) (A) (A)
                 (A) (A) (A) (A) (A) (A) (A) (A) (A) (A) (A) (A)
                 (A) (A) (A) (A) (A) (A) (A) (A) (A) (A) (A) (A)
                 (A) (A) (A) (A) (A) (A) (A) (A) (A) (A) (A) (A)
                 (A)
       Virtual   (A) (A) (A) (A) (A) (A) (A) (A) (A) (A) (A) (A)
                 (A) (A) (A) (A) (A) (A) (A) (A) (A) (A) (A) (A)
                 (A) (A) (A) (A) (A) (A) (A) (A) (A) (A) (A) (A)
                 (A) (A) (A) (A) (A) (A) (A) (A) (A) (A) (A) (A)
                 (A) (A) (A) (A) (A) (A) (A) (A) (A) (A) (A) (A)
                 (A) (A) (A) (A) (A) (A) (A) (A) (A) (A) (A) (A)
                 (A) (A) (A) (A) (A) (A) (A) (A) (A) (A) (A) (A)
                 (A) (A) (A) (A) (A) (A) (A) (A) (A) (A) (A) (A)
                 (A) (A) (A) (A) (A) (A) (A) (A) (A) (A) (A) (A)
                 (A) (A) (A) (A) (A) (A) (A) (A) (A) (A) (A) (A)
                 (A) (A) (A) (A) (A) (A) (A) (A) (A) (A) (A) (A)
                 (A) (A) (A) (A) (A) (A) (A) (A) (A) (A) (A) (A)
                 (A) (A) (A) (A) (A) (A) (A) (A) (A) (A) (A) (A)
                 (A) (A) (A) (A) (A) (A) (A) (A) (A) (A) (A) (A)
                 (A) (A) (A) (A) (A) (A) (A) (A) (A) (A) (A) (A)
                 (A) (A) (A) (A) (A) (A) (A) (A) (A) (A) (A) (A)
                 (A) (A) (A) (A) (A) (A) (A) (A) (A) (A) (A) (A)
                 (A) (A) (A) (A) (A) (A) (A) (A) (A) (A) (A) (A)
                 (A) (A) (A) (A) (A) (A) (A) (A) (A) (A) (A) (A)
                 (A) (A) (A) (A) (A) (A) (A) (A) (A) (A) (A) (A)
                 (A) (A) (A) (A) (A) (A) (A) (A) (A) (A) (A) (A)
                 (A) (A) (A) (A) (A) (A) (A) (A) (A) (A) (A) (A)
                 (A) (A) (A) (A) (A) (A) (A) (A) (A) (A) (A) (A)
                 (A) (A) (A) (A) (A) (A) (A) (A) (A) (A) (A) (A)
                 (A) (A) (A) (A) (A) (A) (A) (A) (A) (A) (A) (A)
                 (A) (A) (A) (A) (A) (A) (A) (A) (A) (A) (A) (A)
                 (A) (A) (A) (A) (A) (A) (A) (A) (A) (A) (A) (A)
                 (A) (A) (A) (A) (A) (A) (A) (A) (A) (A) (A) (A)
                 (A) (A) (A) (A) (A) (A) (A) (A) (A) (A) (A) (A)
                 (A) (A) (A) (A) (A) (A) (A) (A) (A) (A) (A) (A)
                 (A) (A) (A) (A) (A) (A) (A) (A) (A) (A) (A) (A)
                 (A) (A) (A) (A) (A) (A) (A) (A) (A) (A) (A) (A)
                 (A) (A) (A) (A) (A) (A) (A) (A) (A) (A) (A) (A)
                 (A) (A) (A) (A) (A) (A) (A) (A) (A) (A) (A) (A)
                 (A) (A) (A) (A) (A) (A) (A) (A) (A) (A) (A) (A)
                 (A) (A) (A) (A) (A) (A) (A) (A) (A) (A) (A) (A)
                 (A) (A) (A) (A) (A) (A) (A) (A) (A) (A) (A) (A)
                 (A) (A) (A) (A) (A) (A) (A) (A) (A) (A) (A) (A)
                 (A) (A) (A) (A) (A) (A) (A) (A) (A) (A) (A) (A)
                 (A) (A) (A) (A) (A) (A) (A) (A) (A) (A) (A) (A)
                 (A) (A) (A) (A) (A) (A) (A) (A) (A) (A) (A)
 Beta  Orbitals:
       Occupied  (A) (A) (A) (A) (A) (A) (A) (A) (A) (A) (A) (A)
                 (A) (A) (A) (A) (A) (A) (A) (A) (A) (A) (A) (A)
                 (A) (A) (A) (A) (A) (A) (A) (A) (A) (A) (A) (A)
                 (A) (A) (A) (A) (A) (A) (A) (A) (A) (A) (A) (A)
                 (A) (A) (A) (A) (A) (A) (A) (A) (A) (A) (A) (A)
                 (A) (A) (A) (A) (A) (A) (A) (A) (A) (A) (A) (A)
                 (A) (A) (A) (A) (A) (A) (A) (A) (A) (A) (A) (A)
                 (A) (A) (A) (A) (A) (A) (A) (A) (A) (A) (A) (A)
                 (A) (A) (A) (A) (A) (A) (A) (A) (A) (A) (A) (A)
       Virtual   (A) (A) (A) (A) (A) (A) (A) (A) (A) (A) (A) (A)
                 (A) (A) (A) (A) (A) (A) (A) (A) (A) (A) (A) (A)
                 (A) (A) (A) (A) (A) (A) (A) (A) (A) (A) (A) (A)
                 (A) (A) (A) (A) (A) (A) (A) (A) (A) (A) (A) (A)
                 (A) (A) (A) (A) (A) (A) (A) (A) (A) (A) (A) (A)
                 (A) (A) (A) (A) (A) (A) (A) (A) (A) (A) (A) (A)
                 (A) (A) (A) (A) (A) (A) (A) (A) (A) (A) (A) (A)
                 (A) (A) (A) (A) (A) (A) (A) (A) (A) (A) (A) (A)
                 (A) (A) (A) (A) (A) (A) (A) (A) (A) (A) (A) (A)
                 (A) (A) (A) (A) (A) (A) (A) (A) (A) (A) (A) (A)
                 (A) (A) (A) (A) (A) (A) (A) (A) (A) (A) (A) (A)
                 (A) (A) (A) (A) (A) (A) (A) (A) (A) (A) (A) (A)
                 (A) (A) (A) (A) (A) (A) (A) (A) (A) (A) (A) (A)
                 (A) (A) (A) (A) (A) (A) (A) (A) (A) (A) (A) (A)
                 (A) (A) (A) (A) (A) (A) (A) (A) (A) (A) (A) (A)
                 (A) (A) (A) (A) (A) (A) (A) (A) (A) (A) (A) (A)
                 (A) (A) (A) (A) (A) (A) (A) (A) (A) (A) (A) (A)
                 (A) (A) (A) (A) (A) (A) (A) (A) (A) (A) (A) (A)
                 (A) (A) (A) (A) (A) (A) (A) (A) (A) (A) (A) (A)
                 (A) (A) (A) (A) (A) (A) (A) (A) (A) (A) (A) (A)
                 (A) (A) (A) (A) (A) (A) (A) (A) (A) (A) (A) (A)
                 (A) (A) (A) (A) (A) (A) (A) (A) (A) (A) (A) (A)
                 (A) (A) (A) (A) (A) (A) (A) (A) (A) (A) (A) (A)
                 (A) (A) (A) (A) (A) (A) (A) (A) (A) (A) (A) (A)
                 (A) (A) (A) (A) (A) (A) (A) (A) (A) (A) (A) (A)
                 (A) (A) (A) (A) (A) (A) (A) (A) (A) (A) (A) (A)
                 (A) (A) (A) (A) (A) (A) (A) (A) (A) (A) (A) (A)
                 (A) (A) (A) (A) (A) (A) (A) (A) (A) (A) (A) (A)
                 (A) (A) (A) (A) (A) (A) (A) (A) (A) (A) (A) (A)
                 (A) (A) (A) (A) (A) (A) (A) (A) (A) (A) (A) (A)
                 (A) (A) (A) (A) (A) (A) (A) (A) (A) (A) (A) (A)
                 (A) (A) (A) (A) (A) (A) (A) (A) (A) (A) (A) (A)
                 (A) (A) (A) (A) (A) (A) (A) (A) (A) (A) (A) (A)
                 (A) (A) (A) (A) (A) (A) (A) (A) (A) (A) (A) (A)
                 (A) (A) (A) (A) (A) (A) (A) (A) (A) (A) (A) (A)
                 (A) (A) (A) (A) (A) (A) (A) (A) (A) (A) (A) (A)
                 (A) (A) (A) (A) (A) (A) (A) (A) (A) (A) (A) (A)
                 (A) (A) (A) (A) (A) (A) (A) (A) (A) (A) (A) (A)
                 (A) (A) (A) (A) (A) (A) (A) (A) (A) (A) (A) (A)
                 (A) (A) (A) (A) (A) (A) (A) (A) (A) (A) (A) (A)
                 (A) (A) (A) (A) (A) (A) (A) (A) (A) (A) (A) (A)
 The electronic state is 2-A.
 Alpha  occ. eigenvalues --  -19.17168 -19.16659 -19.16604 -19.16152 -19.15105
 Alpha  occ. eigenvalues --  -19.13459 -19.10683 -19.10232 -14.56081 -10.26384
 Alpha  occ. eigenvalues --  -10.26190 -10.25991 -10.25551 -10.24761 -10.24394
 Alpha  occ. eigenvalues --  -10.23198 -10.21302 -10.21183 -10.20650 -10.20310
 Alpha  occ. eigenvalues --  -10.19645 -10.19433 -10.19274 -10.18753 -10.18225
 Alpha  occ. eigenvalues --  -10.18215 -10.17995 -10.17920 -10.17668 -10.17234
 Alpha  occ. eigenvalues --   -1.24840  -1.09481  -1.08233  -1.07449  -1.06643
 Alpha  occ. eigenvalues --   -1.04958  -1.04385  -1.03737  -0.89611  -0.86807
 Alpha  occ. eigenvalues --   -0.82071  -0.81288  -0.80875  -0.77545  -0.76190
 Alpha  occ. eigenvalues --   -0.75573  -0.73251  -0.71820  -0.69744  -0.68928
 Alpha  occ. eigenvalues --   -0.66285  -0.65677  -0.62599  -0.62189  -0.61376
 Alpha  occ. eigenvalues --   -0.58672  -0.57846  -0.56770  -0.55879  -0.54639
 Alpha  occ. eigenvalues --   -0.53000  -0.52861  -0.52817  -0.51736  -0.51228
 Alpha  occ. eigenvalues --   -0.50499  -0.49995  -0.48699  -0.48168  -0.47522
 Alpha  occ. eigenvalues --   -0.47387  -0.46236  -0.45751  -0.44829  -0.44342
 Alpha  occ. eigenvalues --   -0.44001  -0.43970  -0.43049  -0.42876  -0.42382
 Alpha  occ. eigenvalues --   -0.41922  -0.41239  -0.40557  -0.39624  -0.39394
 Alpha  occ. eigenvalues --   -0.38872  -0.38562  -0.37966  -0.37687  -0.37529
 Alpha  occ. eigenvalues --   -0.36885  -0.36468  -0.35909  -0.35839  -0.34178
 Alpha  occ. eigenvalues --   -0.33020  -0.32217  -0.31961  -0.30593  -0.30113
 Alpha  occ. eigenvalues --   -0.29645  -0.29159  -0.28393  -0.26529  -0.26412
 Alpha  occ. eigenvalues --   -0.25227  -0.24876  -0.23345  -0.22031
 Alpha virt. eigenvalues --   -0.08865  -0.08161  -0.06967  -0.02864  -0.01309
 Alpha virt. eigenvalues --   -0.00286   0.01380   0.03265   0.03849   0.05381
 Alpha virt. eigenvalues --    0.06043   0.06463   0.07039   0.07453   0.07624
 Alpha virt. eigenvalues --    0.08251   0.08331   0.09461   0.10325   0.10888
 Alpha virt. eigenvalues --    0.11775   0.12099   0.12333   0.12793   0.13081
 Alpha virt. eigenvalues --    0.13652   0.14053   0.14567   0.15356   0.16219
 Alpha virt. eigenvalues --    0.16784   0.17075   0.17113   0.18666   0.20410
 Alpha virt. eigenvalues --    0.21111   0.22050   0.22983   0.23884   0.24736
 Alpha virt. eigenvalues --    0.25244   0.26253   0.26520   0.27391   0.27491
 Alpha virt. eigenvalues --    0.28003   0.28687   0.29114   0.30364   0.30768
 Alpha virt. eigenvalues --    0.30888   0.31328   0.31946   0.32790   0.33248
 Alpha virt. eigenvalues --    0.33856   0.34258   0.35078   0.35158   0.35839
 Alpha virt. eigenvalues --    0.36094   0.36633   0.37190   0.37559   0.37882
 Alpha virt. eigenvalues --    0.38009   0.38487   0.38755   0.39328   0.40034
 Alpha virt. eigenvalues --    0.40247   0.40912   0.41292   0.42052   0.42470
 Alpha virt. eigenvalues --    0.42876   0.43001   0.43164   0.43353   0.44421
 Alpha virt. eigenvalues --    0.44723   0.45011   0.45198   0.45809   0.46028
 Alpha virt. eigenvalues --    0.46495   0.46811   0.47147   0.47797   0.48496
 Alpha virt. eigenvalues --    0.48750   0.49746   0.50675   0.51669   0.51983
 Alpha virt. eigenvalues --    0.52133   0.52294   0.53855   0.54518   0.55055
 Alpha virt. eigenvalues --    0.55146   0.56296   0.56779   0.57233   0.57702
 Alpha virt. eigenvalues --    0.57990   0.58421   0.58824   0.58945   0.59514
 Alpha virt. eigenvalues --    0.60165   0.60306   0.60858   0.61639   0.61803
 Alpha virt. eigenvalues --    0.62069   0.62444   0.62770   0.63165   0.63770
 Alpha virt. eigenvalues --    0.64370   0.64899   0.65467   0.65696   0.66288
 Alpha virt. eigenvalues --    0.66833   0.67222   0.68239   0.68855   0.69780
 Alpha virt. eigenvalues --    0.70273   0.70929   0.71338   0.72734   0.74134
 Alpha virt. eigenvalues --    0.74767   0.75105   0.75978   0.76513   0.76711
 Alpha virt. eigenvalues --    0.77112   0.78336   0.78544   0.79394   0.79580
 Alpha virt. eigenvalues --    0.79921   0.80559   0.80988   0.81208   0.82591
 Alpha virt. eigenvalues --    0.82818   0.83634   0.84331   0.84768   0.85125
 Alpha virt. eigenvalues --    0.85866   0.86363   0.87821   0.88390   0.88684
 Alpha virt. eigenvalues --    0.88795   0.89772   0.90269   0.91679   0.92102
 Alpha virt. eigenvalues --    0.93503   0.93620   0.94704   0.94996   0.95522
 Alpha virt. eigenvalues --    0.96281   0.97285   0.97736   0.98123   0.98760
 Alpha virt. eigenvalues --    0.99380   1.00341   1.01839   1.03605   1.04229
 Alpha virt. eigenvalues --    1.04524   1.05399   1.06215   1.07634   1.08297
 Alpha virt. eigenvalues --    1.08849   1.09343   1.10144   1.10413   1.12569
 Alpha virt. eigenvalues --    1.13337   1.14053   1.14864   1.15221   1.16406
 Alpha virt. eigenvalues --    1.17331   1.19854   1.20666   1.21233   1.21693
 Alpha virt. eigenvalues --    1.23241   1.23342   1.24137   1.25421   1.25721
 Alpha virt. eigenvalues --    1.26704   1.27267   1.28568   1.30119   1.33489
 Alpha virt. eigenvalues --    1.34265   1.37209   1.37893   1.39741   1.40537
 Alpha virt. eigenvalues --    1.42241   1.43827   1.44824   1.46092   1.46374
 Alpha virt. eigenvalues --    1.47311   1.47923   1.48976   1.50023   1.50582
 Alpha virt. eigenvalues --    1.50871   1.52414   1.52859   1.53337   1.53647
 Alpha virt. eigenvalues --    1.54954   1.55220   1.55481   1.56126   1.56339
 Alpha virt. eigenvalues --    1.56789   1.58035   1.58609   1.59366   1.61286
 Alpha virt. eigenvalues --    1.61847   1.62535   1.62845   1.64335   1.66704
 Alpha virt. eigenvalues --    1.67383   1.67977   1.68534   1.68958   1.70064
 Alpha virt. eigenvalues --    1.70357   1.70775   1.71572   1.72342   1.73353
 Alpha virt. eigenvalues --    1.74023   1.74994   1.75949   1.76573   1.78620
 Alpha virt. eigenvalues --    1.79155   1.79868   1.80336   1.80816   1.82192
 Alpha virt. eigenvalues --    1.83191   1.84093   1.84912   1.86126   1.87300
 Alpha virt. eigenvalues --    1.89321   1.90895   1.91119   1.92297   1.93862
 Alpha virt. eigenvalues --    1.96139   1.96636   1.99084   2.00227   2.00981
 Alpha virt. eigenvalues --    2.02493   2.03570   2.05414   2.06437   2.07520
 Alpha virt. eigenvalues --    2.09459   2.10966   2.12659   2.13958   2.14493
 Alpha virt. eigenvalues --    2.15525   2.16624   2.17061   2.17622   2.19427
 Alpha virt. eigenvalues --    2.23180   2.24199   2.24798   2.26350   2.27419
 Alpha virt. eigenvalues --    2.28549   2.29575   2.30376   2.30686   2.31508
 Alpha virt. eigenvalues --    2.31650   2.32869   2.33346   2.35628   2.35815
 Alpha virt. eigenvalues --    2.38029   2.38956   2.39355   2.40336   2.40941
 Alpha virt. eigenvalues --    2.44210   2.45974   2.46880   2.48816   2.50259
 Alpha virt. eigenvalues --    2.50803   2.51184   2.53571   2.56582   2.57680
 Alpha virt. eigenvalues --    2.59353   2.63439   2.63806   2.64063   2.65676
 Alpha virt. eigenvalues --    2.66696   2.68543   2.69204   2.70695   2.72408
 Alpha virt. eigenvalues --    2.73894   2.74808   2.76008   2.76890   2.78659
 Alpha virt. eigenvalues --    2.79341   2.80486   2.81266   2.83334   2.84521
 Alpha virt. eigenvalues --    2.85514   2.85934   2.86587   2.87221   2.89342
 Alpha virt. eigenvalues --    2.90833   2.92766   2.93727   2.94048   2.94390
 Alpha virt. eigenvalues --    2.94587   2.94928   2.95953   2.96923   2.98864
 Alpha virt. eigenvalues --    2.99174   2.99805   3.01678   3.01869   3.03555
 Alpha virt. eigenvalues --    3.04134   3.05180   3.07353   3.08654   3.10864
 Alpha virt. eigenvalues --    3.12190   3.12836   3.14054   3.14586   3.14794
 Alpha virt. eigenvalues --    3.14910   3.15647   3.15762   3.16362   3.18226
 Alpha virt. eigenvalues --    3.19526   3.19787   3.24991   3.25409   3.27147
 Alpha virt. eigenvalues --    3.27989   3.29276   3.29630   3.29806   3.30689
 Alpha virt. eigenvalues --    3.31182   3.31887   3.32043   3.33044   3.33377
 Alpha virt. eigenvalues --    3.34902   3.35255   3.37230   3.38480   3.39688
 Alpha virt. eigenvalues --    3.41806   3.42316   3.45521   3.46613   3.47667
 Alpha virt. eigenvalues --    3.48514   3.50549   3.51920   3.52801   3.53500
 Alpha virt. eigenvalues --    3.55306   3.57032   3.59901   3.62860   3.66112
 Alpha virt. eigenvalues --    3.69601   3.71562   3.72269   3.85015   3.86984
 Alpha virt. eigenvalues --    3.87231   3.88373   3.89502   3.89884   3.92907
 Alpha virt. eigenvalues --    3.94642   3.97982   4.07184   4.07438   4.08008
 Alpha virt. eigenvalues --    4.10588   4.36549   4.42866   4.46977   4.57934
 Alpha virt. eigenvalues --    4.77607   4.78939   4.80074   4.81104   4.84447
 Alpha virt. eigenvalues --    4.84946   4.87568   4.89582   4.93928   4.95999
 Alpha virt. eigenvalues --    4.96743   4.99585   5.05026   5.06207   5.10601
 Alpha virt. eigenvalues --    5.11074   5.16417   5.18459   5.47418   5.50163
 Alpha virt. eigenvalues --    5.51980   5.58721   5.59948   5.68256   5.68488
 Alpha virt. eigenvalues --    5.99050  23.22703  23.23933  23.41870  23.42303
 Alpha virt. eigenvalues --   23.54455  23.56063  23.71064  23.77887  23.78373
 Alpha virt. eigenvalues --   23.78800  23.85023  23.86118  23.89267  23.97909
 Alpha virt. eigenvalues --   23.99030  24.02625  24.05463  24.10559  24.11984
 Alpha virt. eigenvalues --   24.15013  24.15250  35.37365  49.84164  49.86535
 Alpha virt. eigenvalues --   49.87068  49.91031  49.92943  49.93552  49.96340
 Alpha virt. eigenvalues --   49.98114
  Beta  occ. eigenvalues --  -19.17168 -19.16658 -19.16601 -19.16152 -19.15104
  Beta  occ. eigenvalues --  -19.13459 -19.10683 -19.10232 -14.56081 -10.26384
  Beta  occ. eigenvalues --  -10.26190 -10.25991 -10.25551 -10.24761 -10.24394
  Beta  occ. eigenvalues --  -10.23198 -10.21301 -10.21183 -10.20650 -10.20310
  Beta  occ. eigenvalues --  -10.19645 -10.19433 -10.19274 -10.18753 -10.18225
  Beta  occ. eigenvalues --  -10.18215 -10.17995 -10.17920 -10.17668 -10.17234
  Beta  occ. eigenvalues --   -1.24838  -1.09481  -1.08233  -1.07446  -1.06642
  Beta  occ. eigenvalues --   -1.04958  -1.04384  -1.03737  -0.89610  -0.86807
  Beta  occ. eigenvalues --   -0.82070  -0.81288  -0.80875  -0.77545  -0.76190
  Beta  occ. eigenvalues --   -0.75572  -0.73251  -0.71820  -0.69743  -0.68928
  Beta  occ. eigenvalues --   -0.66285  -0.65677  -0.62599  -0.62189  -0.61376
  Beta  occ. eigenvalues --   -0.58672  -0.57843  -0.56770  -0.55879  -0.54639
  Beta  occ. eigenvalues --   -0.53000  -0.52860  -0.52816  -0.51736  -0.51228
  Beta  occ. eigenvalues --   -0.50498  -0.49995  -0.48698  -0.48167  -0.47521
  Beta  occ. eigenvalues --   -0.47387  -0.46236  -0.45751  -0.44828  -0.44342
  Beta  occ. eigenvalues --   -0.44001  -0.43970  -0.43048  -0.42876  -0.42382
  Beta  occ. eigenvalues --   -0.41922  -0.41239  -0.40557  -0.39624  -0.39394
  Beta  occ. eigenvalues --   -0.38872  -0.38562  -0.37966  -0.37687  -0.37529
  Beta  occ. eigenvalues --   -0.36885  -0.36468  -0.35909  -0.35838  -0.34178
  Beta  occ. eigenvalues --   -0.33017  -0.32185  -0.31956  -0.30120  -0.29649
  Beta  occ. eigenvalues --   -0.29159  -0.28393  -0.26529  -0.26411  -0.25227
  Beta  occ. eigenvalues --   -0.24876  -0.23345  -0.22031
  Beta virt. eigenvalues --   -0.08867  -0.08168  -0.06969  -0.03837  -0.02862
  Beta virt. eigenvalues --   -0.01309  -0.00282   0.01381   0.03270   0.03849
  Beta virt. eigenvalues --    0.05389   0.06040   0.06464   0.07043   0.07453
  Beta virt. eigenvalues --    0.07710   0.08284   0.08332   0.09458   0.10400
  Beta virt. eigenvalues --    0.10912   0.11870   0.12161   0.12327   0.12799
  Beta virt. eigenvalues --    0.13061   0.13652   0.14153   0.14567   0.15369
  Beta virt. eigenvalues --    0.16219   0.16784   0.17075   0.17113   0.18668
  Beta virt. eigenvalues --    0.20418   0.21111   0.22055   0.22980   0.23891
  Beta virt. eigenvalues --    0.24785   0.25705   0.26354   0.26934   0.27415
  Beta virt. eigenvalues --    0.27718   0.28519   0.29105   0.30289   0.30749
  Beta virt. eigenvalues --    0.30800   0.31324   0.31916   0.32769   0.33223
  Beta virt. eigenvalues --    0.33849   0.34245   0.35065   0.35158   0.35763
  Beta virt. eigenvalues --    0.36066   0.36160   0.37186   0.37482   0.37616
  Beta virt. eigenvalues --    0.38007   0.38477   0.38744   0.39130   0.39764
  Beta virt. eigenvalues --    0.40162   0.40279   0.40912   0.41628   0.42162
  Beta virt. eigenvalues --    0.42534   0.42878   0.43008   0.43169   0.43378
  Beta virt. eigenvalues --    0.44487   0.44720   0.45010   0.45202   0.45822
  Beta virt. eigenvalues --    0.46034   0.46515   0.46811   0.47153   0.47797
  Beta virt. eigenvalues --    0.48495   0.48756   0.49746   0.50672   0.51670
  Beta virt. eigenvalues --    0.51997   0.52156   0.52293   0.53863   0.54514
  Beta virt. eigenvalues --    0.55054   0.55145   0.56296   0.56776   0.57225
  Beta virt. eigenvalues --    0.57701   0.57990   0.58431   0.58935   0.58966
  Beta virt. eigenvalues --    0.59530   0.60170   0.60305   0.60852   0.61639
  Beta virt. eigenvalues --    0.61798   0.62064   0.62446   0.62771   0.63163
  Beta virt. eigenvalues --    0.63772   0.64367   0.64916   0.65477   0.65696
  Beta virt. eigenvalues --    0.66316   0.66840   0.67227   0.68233   0.68855
  Beta virt. eigenvalues --    0.69780   0.70272   0.70931   0.71335   0.72736
  Beta virt. eigenvalues --    0.74134   0.74777   0.75106   0.75989   0.76512
  Beta virt. eigenvalues --    0.76710   0.77111   0.78335   0.78541   0.79396
  Beta virt. eigenvalues --    0.79576   0.79919   0.80558   0.80987   0.81207
  Beta virt. eigenvalues --    0.82589   0.82805   0.83634   0.84334   0.84770
  Beta virt. eigenvalues --    0.85122   0.85870   0.86361   0.87821   0.88390
  Beta virt. eigenvalues --    0.88687   0.88796   0.89777   0.90268   0.91677
  Beta virt. eigenvalues --    0.92107   0.93500   0.93619   0.94704   0.94996
  Beta virt. eigenvalues --    0.95514   0.96279   0.97283   0.97735   0.98122
  Beta virt. eigenvalues --    0.98758   0.99377   1.00333   1.01838   1.03604
  Beta virt. eigenvalues --    1.04229   1.04524   1.05398   1.06215   1.07634
  Beta virt. eigenvalues --    1.08296   1.08849   1.09342   1.10143   1.10412
  Beta virt. eigenvalues --    1.12568   1.13336   1.14053   1.14863   1.15221
  Beta virt. eigenvalues --    1.16406   1.17330   1.19854   1.20666   1.21231
  Beta virt. eigenvalues --    1.21693   1.23241   1.23342   1.24137   1.25421
  Beta virt. eigenvalues --    1.25720   1.26704   1.27266   1.28568   1.30117
  Beta virt. eigenvalues --    1.33489   1.34263   1.37208   1.37893   1.39743
  Beta virt. eigenvalues --    1.40536   1.42240   1.43827   1.44824   1.46091
  Beta virt. eigenvalues --    1.46374   1.47311   1.47921   1.48975   1.50023
  Beta virt. eigenvalues --    1.50581   1.50871   1.52414   1.52859   1.53335
  Beta virt. eigenvalues --    1.53642   1.54953   1.55218   1.55481   1.56125
  Beta virt. eigenvalues --    1.56339   1.56788   1.58034   1.58609   1.59366
[...]
   358. RY*(   6) C  29                  0.00023     1.50250   
   359. RY*(   7) C  29                  0.00011     2.63777   
   360. RY*(   8) C  29                  0.00007     3.32869   
   361. RY*(   9) C  29                  0.00005     4.54892   
   362. RY*(  10) C  29                  0.00003     5.51768   
   363. RY*(  11) C  29                  0.00002     4.40480   
   364. RY*(  12) C  29                  0.00000     2.72013   
   365. RY*(  13) C  29                  0.00000    15.85507   
   366. RY*(   1) C  30                  0.00269     1.33816   
   367. RY*(   2) C  30                  0.00097     1.34243   
   368. RY*(   3) C  30                  0.00050     0.84760   
   369. RY*(   4) C  30                  0.00035     1.38459   
   370. RY*(   5) C  30                  0.00029     1.28874   
   371. RY*(   6) C  30                  0.00007     3.04639   
   372. RY*(   7) C  30                  0.00004     3.18142   
   373. RY*(   8) C  30                  0.00002     2.56713   
   374. RY*(   9) C  30                  0.00002     1.61008   
   375. RY*(  10) C  30                  0.00001     2.89034   
   376. RY*(  11) C  30                  0.00000    20.70457   
   377. RY*(  12) C  30                  0.00001     2.57569   
   378. RY*(  13) C  30                  0.00001     2.61055   
   379. RY*(   1) C  31                  0.00244     1.39351   
   380. RY*(   2) C  31                  0.00129     1.25007   
   381. RY*(   3) C  31                  0.00070     0.97370   
   382. RY*(   4) C  31                  0.00038     1.21757   
   383. RY*(   5) C  31                  0.00027     1.43908   
   384. RY*(   6) C  31                  0.00012     3.13141   
   385. RY*(   7) C  31                  0.00006     2.58875   
   386. RY*(   8) C  31                  0.00004     3.80619   
   387. RY*(   9) C  31                  0.00004     1.87799   
   388. RY*(  10) C  31                  0.00002     2.18069   
   389. RY*(  11) C  31                  0.00001     2.23077   
   390. RY*(  12) C  31                  0.00000    21.15461   
   391. RY*(  13) C  31                  0.00000     2.63068   
   392. RY*(   1) C  32                  0.00250     1.37803   
   393. RY*(   2) C  32                  0.00111     1.37637   
   394. RY*(   3) C  32                  0.00042     0.75265   
   395. RY*(   4) C  32                  0.00037     1.07317   
   396. RY*(   5) C  32                  0.00026     1.50636   
   397. RY*(   6) C  32                  0.00011     3.27971   
   398. RY*(   7) C  32                  0.00006     4.18567   
   399. RY*(   8) C  32                  0.00003     4.22501   
   400. RY*(   9) C  32                  0.00002     2.06140   
   401. RY*(  10) C  32                  0.00002     2.46473   
   402. RY*(  11) C  32                  0.00002     1.99744   
   403. RY*(  12) C  32                  0.00000     2.60638   
   404. RY*(  13) C  32                  0.00000    18.37783   
   405. RY*(   1) H  33                  0.00079     0.44903   
   406. RY*(   2) H  33                  0.00011     2.26780   
   407. RY*(   1) C  34                  0.00310     1.47838   
   408. RY*(   2) C  34                  0.00203     1.34042   
   409. RY*(   3) C  34                  0.00150     1.26584   
   410. RY*(   4) C  34                  0.00090     2.40431   
   411. RY*(   5) C  34                  0.00079     1.23440   
   412. RY*(   6) C  34                  0.00029     1.66600   
   413. RY*(   7) C  34                  0.00025     1.68796   
   414. RY*(   8) C  34                  0.00009     2.91301   
   415. RY*(   9) C  34                  0.00006     2.40937   
   416. RY*(  10) C  34                  0.00002     3.24557   
   417. RY*(  11) C  34                  0.00001    20.91126   
   418. RY*(  12) C  34                  0.00001     2.58951   
   419. RY*(  13) C  34                  0.00001     2.71841   
   420. RY*(   1) H  35                  0.00129     0.46478   
   421. RY*(   2) H  35                  0.00014     2.26059   
   422. RY*(   1) C  36                  0.00324     1.28027   
   423. RY*(   2) C  36                  0.00153     1.52657   
   424. RY*(   3) C  36                  0.00138     1.49850   
   425. RY*(   4) C  36                  0.00081     2.25895   
   426. RY*(   5) C  36                  0.00041     1.90662   
   427. RY*(   6) C  36                  0.00037     1.66676   
   428. RY*(   7) C  36                  0.00021     0.62653   
   429. RY*(   8) C  36                  0.00015     3.47502   
   430. RY*(   9) C  36                  0.00004     2.92435   
   431. RY*(  10) C  36                  0.00003     3.23007   
   432. RY*(  11) C  36                  0.00002     4.06819   
   433. RY*(  12) C  36                  0.00000     2.64565   
   434. RY*(  13) C  36                  0.00001    17.93189   
   435. RY*(   1) H  37                  0.00115     0.39397   
   436. RY*(   2) H  37                  0.00010     2.24746   
   437. RY*(   1) O  38                  0.00084     0.94128   
   438. RY*(   2) O  38                  0.00057     1.40490   
   439. RY*(   3) O  38                  0.00011     1.67904   
   440. RY*(   4) O  38                  0.00008     1.36388   
   441. RY*(   5) O  38                  0.00000    49.57982   
   442. RY*(   6) O  38                  0.00000     4.93920   
   443. RY*(   7) O  38                  0.00001     4.98637   
   444. RY*(   8) O  38                  0.00000     4.86000   
   445. RY*(   9) O  38                  0.00001     2.92329   
   446. RY*(  10) O  38                  0.00001     3.00205   
   447. RY*(  11) O  38                  0.00000     2.99178   
   448. RY*(  12) O  38                  0.00001     3.08056   
   449. RY*(  13) O  38                  0.00000     2.88214   
   450. RY*(   1) H  39                  0.00042     0.97628   
   451. RY*(   2) H  39                  0.00020     1.64883   
   452. RY*(   1) O  40                  0.00169     1.07458   
   453. RY*(   2) O  40                  0.00107     1.17578   
   454. RY*(   3) O  40                  0.00018     1.91019   
   455. RY*(   4) O  40                  0.00010     2.30026   
   456. RY*(   5) O  40                  0.00006     2.78920   
   457. RY*(   6) O  40                  0.00004     2.84193   
   458. RY*(   7) O  40                  0.00000     5.07288   
   459. RY*(   8) O  40                  0.00000     4.93133   
   460. RY*(   9) O  40                  0.00001     3.20936   
   461. RY*(  10) O  40                  0.00000    49.61737   
   462. RY*(  11) O  40                  0.00000     3.03305   
   463. RY*(  12) O  40                  0.00000     4.96172   
   464. RY*(  13) O  40                  0.00000     2.91358   
   465. RY*(   1) C  41                  0.00113     1.40531   
   466. RY*(   2) C  41                  0.00103     1.39918   
   467. RY*(   3) C  41                  0.00068     0.90843   
   468. RY*(   4) C  41                  0.00026     0.98397   
   469. RY*(   5) C  41                  0.00010     1.07477   
   470. RY*(   6) C  41                  0.00004     1.88013   
   471. RY*(   7) C  41                  0.00000     2.12773   
   472. RY*(   8) C  41                  0.00001     2.70715   
   473. RY*(   9) C  41                  0.00001     1.33640   
   474. RY*(  10) C  41                  0.00000    23.16480   
   475. RY*(  11) C  41                  0.00000     1.70159   
   476. RY*(  12) C  41                  0.00000     2.70221   
   477. RY*(  13) C  41                  0.00000     1.72803   
   478. RY*(   1) H  42                  0.00100     0.39386   
   479. RY*(   2) H  42                  0.00006     2.11784   
   480. RY*(   1) H  43                  0.00046     0.37906   
   481. RY*(   2) H  43                  0.00006     2.04767   
   482. RY*(   1) H  44                  0.00102     0.46082   
   483. RY*(   2) H  44                  0.00007     2.07568   
   484. RY*(   1) C  45                  0.00279     1.18736   
   485. RY*(   2) C  45                  0.00095     1.35795   
   486. RY*(   3) C  45                  0.00063     0.64701   
   487. RY*(   4) C  45                  0.00038     0.87866   
   488. RY*(   5) C  45                  0.00013     1.90846   
   489. RY*(   6) C  45                  0.00009     3.01745   
   490. RY*(   7) C  45                  0.00006     1.99715   
   491. RY*(   8) C  45                  0.00006     2.26615   
   492. RY*(   9) C  45                  0.00003     2.14398   
   493. RY*(  10) C  45                  0.00003     3.39300   
   494. RY*(  11) C  45                  0.00000    22.30556   
   495. RY*(  12) C  45                  0.00000     2.85834   
   496. RY*(  13) C  45                  0.00001     1.56500   
   497. RY*(   1) H  46                  0.00116     0.52684   
   498. RY*(   2) H  46                  0.00007     2.20580   
   499. RY*(   1) H  47                  0.00115     0.52256   
   500. RY*(   2) H  47                  0.00007     2.20591   
   501. RY*(   1) O  48                  0.00145     0.93594   
   502. RY*(   2) O  48                  0.00128     1.00478   
   503. RY*(   3) O  48                  0.00080     1.71482   
   504. RY*(   4) O  48                  0.00004     1.53398   
   505. RY*(   5) O  48                  0.00000    49.73147   
   506. RY*(   6) O  48                  0.00001     4.91591   
   507. RY*(   7) O  48                  0.00000     4.65901   
   508. RY*(   8) O  48                  0.00000     4.79257   
   509. RY*(   9) O  48                  0.00001     2.93578   
   510. RY*(  10) O  48                  0.00001     2.98895   
   511. RY*(  11) O  48                  0.00001     3.03595   
   512. RY*(  12) O  48                  0.00001     2.99911   
   513. RY*(  13) O  48                  0.00000     2.94314   
   514. RY*(   1) O  49                  0.00144     0.93577   
   515. RY*(   2) O  49                  0.00129     0.97887   
   516. RY*(   3) O  49                  0.00077     1.75573   
   517. RY*(   4) O  49                  0.00003     2.46379   
   518. RY*(   5) O  49                  0.00000    49.67124   
   519. RY*(   6) O  49                  0.00000     4.75970   
   520. RY*(   7) O  49                  0.00001     4.77836   
   521. RY*(   8) O  49                  0.00001     4.77287   
   522. RY*(   9) O  49                  0.00001     2.87757   
   523. RY*(  10) O  49                  0.00001     2.86954   
   524. RY*(  11) O  49                  0.00001     2.94757   
   525. RY*(  12) O  49                  0.00000     2.69984   
   526. RY*(  13) O  49                  0.00000     2.63146   
   527. RY*(   1) N  50                  0.00747     0.93229   
   528. RY*(   2) N  50                  0.00497     1.29458   
   529. RY*(   3) N  50                  0.00281     2.11052   
   530. RY*(   4) N  50                  0.00220     1.04319   
   531. RY*(   5) N  50                  0.00156     2.29895   
   532. RY*(   6) N  50                  0.00124     2.85132   
   533. RY*(   7) N  50                  0.00026     1.45629   
   534. RY*(   8) N  50                  0.00009     2.70012   
   535. RY*(   9) N  50                  0.00004     3.67254   
   536. RY*(  10) N  50                  0.00001     3.90248   
   537. RY*(  11) N  50                  0.00001     3.87290   
   538. RY*(  12) N  50                  0.00001     3.84287   
   539. RY*(  13) N  50                  0.00000    33.34844   
   540. BD*(   1) C   1 - H   2          0.00987     0.44538   
   541. BD*(   1) C   1 - C   3          0.00752     0.64176   
   542. BD*(   2) C   1 - C   3          0.05926     0.03544   
   543. BD*(   1) C   1 - C   7          0.01299     0.47857   
   544. BD*(   1) C   3 - H   4          0.00875     0.44166   
   545. BD*(   1) C   3 - C   5          0.02695     0.45882   
   546. BD*(   1) C   5 - O   6          0.00630     0.59179   
   547. BD*(   2) C   5 - O   6          0.08607     0.01547   
   548. BD*(   1) C   5 - C  45          0.03199     0.37400   
   549. BD*(   1) C   7 - C   8          0.01038     0.54186   
   550. BD*(   2) C   7 - C   8          0.19508     0.01644  558(v),555(v),542(v),181(g)
                                                    207(v),169(g),168(g)
   551. BD*(   1) C   7 - C   9          0.01608     0.53714   
   552. BD*(   1) C   8 - C  10          0.00680     0.57258   
   553. BD*(   1) C   8 - H  11          0.00644     0.44453   
   554. BD*(   1) C   9 - C  12          0.01669     0.54284   
   555. BD*(   2) C   9 - C  12          0.19377     0.00491  558(v),550(v),599(v),600(v)
                                                    564(v),193(g)
   556. BD*(   1) C   9 - N  50          0.04932     0.25611   
   557. BD*(   1) C  10 - C  14          0.01304     0.54353   
   558. BD*(   2) C  10 - C  14          0.18907     0.00905  555(v),550(v),241(g),207(g)
                                                    209(g)
   559. BD*(   1) C  10 - H  15          0.00662     0.42868   
   560. BD*(   1) C  12 - C  14          0.02220     0.50824   
   561. BD*(   1) C  12 - O  18          0.01210     0.35454   
   562. BD*(   1) C  14 - O  16          0.01050     0.34464   
   563. BD*(   1) O  16 - H  17          0.00352     0.37583   
   564. BD*(   1) O  18 - C  19          0.00541     0.26765   
   565. BD*(   1) C  19 - H  20          0.00748     0.39714   
   566. BD*(   1) C  19 - H  21          0.00408     0.40832   
   567. BD*(   1) C  19 - H  22          0.00823     0.40478   
   568. BD*(   1) C  23 - H  24          0.00925     0.45075   
   569. BD*(   1) C  23 - C  25          0.00737     0.64492   
   570. BD*(   2) C  23 - C  25          0.06752     0.04092   
   571. BD*(   1) C  23 - C  29          0.01269     0.50269   
   572. BD*(   1) C  25 - H  26          0.00842     0.44466   
   573. BD*(   1) C  25 - C  27          0.02571     0.47687   
   574. BD*(   1) C  27 - O  28          0.00646     0.59171   
   575. BD*(   2) C  27 - O  28          0.09610     0.01728   
   576. BD*(   1) C  27 - C  45          0.03283     0.37161   
   577. BD*(   1) C  29 - C  30          0.01143     0.56452   
   578. BD*(   2) C  29 - C  30          0.19966     0.03073  583(v),586(v),570(v),368(g)
                                                    394(v),355(g),356(g),299(v)
   579. BD*(   1) C  29 - C  31          0.01314     0.56072   
   580. BD*(   1) C  30 - C  32          0.00687     0.58227   
   581. BD*(   1) C  30 - H  33          0.00677     0.45179   
   582. BD*(   1) C  31 - C  34          0.01220     0.58368   
   583. BD*(   2) C  31 - C  34          0.15965     0.03057  578(v),586(v),570(r),383(g)
                                                    592(v)
   584. BD*(   1) C  31 - H  35          0.00648     0.44913   
   585. BD*(   1) C  32 - C  36          0.01304     0.55555   
   586. BD*(   2) C  32 - C  36          0.19191     0.01949  578(v),583(v),428(g),394(g)
                                                    396(g)
   587. BD*(   1) C  32 - H  37          0.00676     0.43548   
   588. BD*(   1) C  34 - C  36          0.02298     0.52404   
   589. BD*(   1) C  34 - O  40          0.01408     0.36410   
   590. BD*(   1) C  36 - O  38          0.01096     0.35076   
   591. BD*(   1) O  38 - H  39          0.00370     0.38361   
   592. BD*(   1) O  40 - C  41          0.00519     0.28571   
   593. BD*(   1) C  41 - H  42          0.00855     0.39611   
   594. BD*(   1) C  41 - H  43          0.00446     0.41078   
   595. BD*(   1) C  41 - H  44          0.00922     0.40845   
   596. BD*(   1) C  45 - H  46          0.00468     0.41356   
   597. BD*(   1) C  45 - H  47          0.00472     0.41172   
   598. BD (   1) O  48 - O  49          0.42539    -0.26575   
   599. BD*(   1) O  48 - N  50          0.03175     0.41685   
   600. BD*(   1) O  49 - N  50          0.03045     0.42518   
       -------------------------------
              Total Lewis  104.71494  ( 96.9588%)
        Valence non-Lewis    3.06664  (  2.8395%)
        Rydberg non-Lewis    0.21789  (  0.2018%)
       -------------------------------
            Total unit  1  107.99947  (100.0000%)
           Charge unit  1    0.00053
 
 Molecular unit  2  (H)
    94. LP*(   1) H  13                  0.00052     0.02815   
   233. RY*(   1) H  13                  0.00001     0.37599   
   234. RY*(   2) H  13                  0.00000     2.44308   
       -------------------------------
              Total Lewis    0.00000  (  0.0000%)
        Valence non-Lewis    0.00052  ( 98.7700%)
        Rydberg non-Lewis    0.00001  (  1.2300%)
       -------------------------------
            Total unit  2    0.00053  (100.0000%)
           Charge unit  2    0.49947
 1\1\GINC-N02\SP\UB3LYP\6-311G(d)\C21H20N1O8(2)\UNKNOWN\06-Nov-2024\0\\
 # pop=nbo b3lyp/6-311g(d) scrf=(smd,solvent=generic,read) temperature=
 298.15 Geom=Check Guess=Read\\Reagente 1\\0,2\C,0,2.2181617273,0.83202
 74486,0.7725790665\H,0,1.7735181912,1.822833046,0.7668367742\C,0,1.508
 6857038,-0.1724405186,1.3238953008\H,0,1.8748146781,-1.190505174,1.387
 8341691\C,0,0.1640487977,-0.0242842969,1.9069899842\O,0,-0.4291667953,
 -1.0115558259,2.3165522901\C,0,3.5480968344,0.8071953824,0.1675849433\
 C,0,4.1996905706,2.0381671287,-0.0187913339\C,0,4.2795042264,-0.327499
 6848,-0.2296974225\C,0,5.4795163185,2.1287286554,-0.5461221245\H,0,3.6
 817830578,2.9469594312,0.2660648834\C,0,5.556860241,-0.279320159,-0.77
 2127843\H,0,5.3134994133,-1.8455552015,4.1502930163\C,0,6.1710339082,0
 .9800436895,-0.9275659438\H,0,5.9441821694,3.1016857136,-0.6772792712\
 O,0,7.4078909929,0.9978491726,-1.4740408\H,0,7.7245685155,1.9097674773
 ,-1.547182346\O,0,6.1311997835,-1.4310349321,-1.2123298273\C,0,7.27885
 15138,-1.8925867083,-0.4677288662\H,0,7.0193069901,-2.0289477396,0.584
 6378647\H,0,7.5459883734,-2.8526273927,-0.9059555195\H,0,8.1133900826,
 -1.1975391542,-0.5645985272\C,0,-3.1542571501,0.4832718529,0.898666500
 2\H,0,-2.7588525747,0.0234509515,1.8000502896\C,0,-2.4051943619,1.4128
 659806,0.2667340182\H,0,-2.7445172959,1.8815663521,-0.6526814425\C,0,-
 1.0840379216,1.8740293292,0.6984507677\O,0,-0.4561701797,2.6757583898,
 0.0179874361\C,0,-4.4620172726,-0.0144279241,0.495244388\C,0,-5.080939
 8606,-1.0035137965,1.2759244265\C,0,-5.1514277559,0.4543665399,-0.6406
 510478\C,0,-6.3274425637,-1.5118378911,0.9333571322\H,0,-4.5757652506,
 -1.3839753447,2.1575681314\C,0,-6.3935044356,-0.0423959643,-0.99486987
 98\H,0,-4.7211210292,1.2155201277,-1.2813665789\C,0,-6.9926620071,-1.0
 46648828,-0.2013986102\H,0,-6.7879421877,-2.2851073399,1.5426616138\O,
 0,-8.1990058283,-1.5251644967,-0.5976374739\H,0,-8.4981703407,-2.20780
 04989,0.019566559\O,0,-6.9883004235,0.4031615804,-2.1454524736\C,0,-8.
 1769177365,1.189653456,-1.9688366608\H,0,-7.9678867225,2.0727689256,-1
 .3561846429\H,0,-8.4793666463,1.5067617333,-2.9664945205\H,0,-8.979633
 9168,0.6063906134,-1.5142296461\C,0,-0.482586496,1.3608101904,2.016242
 3411\H,0,-1.2494441851,1.2895126172,2.7870490601\H,0,0.2530469659,2.09
 98599082,2.3335478332\O,0,4.0715116962,-2.4102124992,0.7574508994\O,0,
 2.8802997238,-1.9915187812,-1.0079064546\N,0,3.6951564627,-1.686945541
 2,-0.1540514326\\Version=ES64L-G16RevA.03\State=2-A\HF=-1468.9190524\S
 2=0.750005\S2-1=0.\S2A=0.75\RMSD=7.114e-09\Dipole=0.4065081,1.9592452,
 1.0076946\Quadrupole=53.6434254,-22.1340821,-31.5093433,28.4387088,-11
 .8291939,-3.4561846\PG=C01 [X(C21H20N1O8)]\\@


 BULLDOZER: SOMEONE WHO SLEEPS THROUGH SPEECHES.
 Job cpu time:       0 days  0 hours  1 minutes  6.6 seconds.
 Elapsed time:       0 days  0 hours  1 minutes  7.1 seconds.
 File lengths (MBytes):  RWF=    631 Int=      0 D2E=      0 Chk=     49 Scr=      1
 Normal termination of Gaussian 16 at Wed Nov  6 14:13:21 2024.
