 Entering Gaussian System, Link 0=g16
 Initial command:
 /sw/cluster/pub/apps//g16/l1.exe "/data/natrosa/25215/Gau-990180.inp" -scrdir="/data/natrosa/25215/"
 Entering Link 1 = /sw/cluster/pub/apps//g16/l1.exe PID=    990181.
  
 Copyright (c) 1988,1990,1992,1993,1995,1998,2003,2009,2016,
            Gaussian, Inc.  All Rights Reserved.
  
 This is part of the Gaussian(R) 16 program.  It is based on
 the Gaussian(R) 09 system (copyright 2009, Gaussian, Inc.),
 the Gaussian(R) 03 system (copyright 2003, Gaussian, Inc.),
 the Gaussian(R) 98 system (copyright 1998, Gaussian, Inc.),
 the Gaussian(R) 94 system (copyright 1995, Gaussian, Inc.),
 the Gaussian 92(TM) system (copyright 1992, Gaussian, Inc.),
 the Gaussian 90(TM) system (copyright 1990, Gaussian, Inc.),
 the Gaussian 88(TM) system (copyright 1988, Gaussian, Inc.),
 the Gaussian 86(TM) system (copyright 1986, Carnegie Mellon
 University), and the Gaussian 82(TM) system (copyright 1983,
 Carnegie Mellon University). Gaussian is a federally registered
 trademark of Gaussian, Inc.
  
 This software contains proprietary and confidential information,
 including trade secrets, belonging to Gaussian, Inc.
  
 This software is provided under written license and may be
 used, copied, transmitted, or stored only in accord with that
 written license.
  
 The following legend is applicable only to US Government
 contracts under FAR:
  
                    RESTRICTED RIGHTS LEGEND
  
 Use, reproduction and disclosure by the US Government is
 subject to restrictions as set forth in subparagraphs (a)
 and (c) of the Commercial Computer Software - Restricted
 Rights clause in FAR 52.227-19.
  
 Gaussian, Inc.
 340 Quinnipiac St., Bldg. 40, Wallingford CT 06492
  
  
 ---------------------------------------------------------------
 Warning -- This program may not be used in any manner that
 competes with the business of Gaussian, Inc. or will provide
 assistance to any competitor of Gaussian, Inc.  The licensee
 of this program is prohibited from giving any competitor of
 Gaussian, Inc. access to this program.  By using this program,
 the user acknowledges that Gaussian, Inc. is engaged in the
 business of creating and licensing software in the field of
 computational chemistry and represents and warrants to the
 licensee that it is not a competitor of Gaussian, Inc. and that
 it will not use this program in any manner prohibited above.
 ---------------------------------------------------------------
  

 Cite this work as:
 Gaussian 16, Revision A.03,
 M. J. Frisch, G. W. Trucks, H. B. Schlegel, G. E. Scuseria, 
 M. A. Robb, J. R. Cheeseman, G. Scalmani, V. Barone, 
 G. A. Petersson, H. Nakatsuji, X. Li, M. Caricato, A. V. Marenich, 
 J. Bloino, B. G. Janesko, R. Gomperts, B. Mennucci, H. P. Hratchian, 
 J. V. Ortiz, A. F. Izmaylov, J. L. Sonnenberg, D. Williams-Young, 
 F. Ding, F. Lipparini, F. Egidi, J. Goings, B. Peng, A. Petrone, 
 T. Henderson, D. Ranasinghe, V. G. Zakrzewski, J. Gao, N. Rega, 
 G. Zheng, W. Liang, M. Hada, M. Ehara, K. Toyota, R. Fukuda, 
 J. Hasegawa, M. Ishida, T. Nakajima, Y. Honda, O. Kitao, H. Nakai, 
 T. Vreven, K. Throssell, J. A. Montgomery, Jr., J. E. Peralta, 
 F. Ogliaro, M. J. Bearpark, J. J. Heyd, E. N. Brothers, K. N. Kudin, 
 V. N. Staroverov, T. A. Keith, R. Kobayashi, J. Normand, 
 K. Raghavachari, A. P. Rendell, J. C. Burant, S. S. Iyengar, 
 J. Tomasi, M. Cossi, J. M. Millam, M. Klene, C. Adamo, R. Cammi, 
 J. W. Ochterski, R. L. Martin, K. Morokuma, O. Farkas, 
 J. B. Foresman, and D. J. Fox, Gaussian, Inc., Wallingford CT, 2016.
 
 ******************************************
 Gaussian 16:  ES64L-G16RevA.03 25-Dec-2016
                28-Oct-2024 
 ******************************************
 %chk=CURCUMIN-OPT-FREQ-Reag-1-B3LYP-6-311G-D-298.chk
 ----------------------------------------------------------------------
 # opt=(calcfc) freq=noraman b3lyp/6-311g(d) scrf=(smd,solvent=generic,
 read) temperature=298.15
 ----------------------------------------------------------------------
 1/10=4,18=20,19=15,26=3,38=1,40=2,112=298150/1,3;
 2/9=110,12=2,17=6,18=5,40=1/2;
 3/5=4,6=6,7=1,11=2,25=1,30=1,70=32203,71=2,72=-2,74=-5,140=1/1,2,3;
 4//1;
 5/5=2,38=5/2;
 8/6=4,10=90,11=11/1;
 11/6=1,8=1,9=11,15=111,16=1/1,2,10;
 10/6=1,13=1/2;
 6/7=2,8=2,9=2,10=2,28=1/1;
 7/10=1,18=20,25=1/1,2,3,16;
 1/10=4,18=20,19=15,26=3/3(2);
 2/9=110/2;
 99//99;
 2/9=110/2;
 3/5=4,6=6,7=1,11=2,25=1,30=1,70=32205,71=1,72=-2,74=-5/1,2,3;
 4/5=5,16=3,69=1/1;
 5/5=2,38=5/2;
 7//1,2,3,16;
 1/18=20,19=15,26=3/3(-5);
 2/9=110/2;
 6/7=2,8=2,9=2,10=2,19=2,28=1/1;
 99/9=1/99;
 ----------
 Reagente 1
 ----------
 Symbolic Z-matrix:
 Charge =  0 Multiplicity = 2
 C                     2.2193    0.93169   0.84116 
 H                     1.78246   1.9259    0.8402 
 C                     1.49187  -0.08781   1.37487 
 H                     1.86637  -1.10488   1.41842 
 C                     0.1638    0.0517    1.97086 
 O                    -0.42034  -0.9328    2.40973 
 C                     3.53073   0.87226   0.27687 
 C                     4.22945   2.05403   0.04828 
 C                     4.31673  -0.40778   0.14351 
 C                     5.54528   2.08625  -0.40982 
 H                     3.73174   2.99487   0.25971 
 C                     5.56531  -0.31237  -0.70181 
 H                     4.61766  -0.73573   1.14907 
 C                     6.20355   0.89797  -0.81669 
 H                     6.05429   3.03849  -0.52266 
 O                     7.45465   0.91846  -1.35102 
 H                     7.75419   1.83241  -1.45208 
 O                     6.05976  -1.47292  -1.1896 
 C                     7.17987  -2.05473  -0.48643 
 H                     6.91332  -2.25768   0.55373 
 H                     7.3954   -2.99243  -0.99565 
 H                     8.04866  -1.39749  -0.53297 
 C                    -3.12712   0.50767   0.91716 
 H                    -2.72907   0.06112   1.82397 
 C                    -2.3898    1.44713   0.28678 
 H                    -2.72667   1.9045   -0.63918 
 C                    -1.0819    1.93297   0.7332 
 O                    -0.45878   2.74124   0.0557 
 C                    -4.42107  -0.01873   0.50559 
 C                    -5.02184  -1.02214   1.28205 
 C                    -5.11337   0.4345   -0.6348 
 C                    -6.25322  -1.56031   0.93023 
 H                    -4.51344  -1.39081   2.167 
 C                    -6.34061  -0.09197  -0.99786 
 H                    -4.69679   1.20666  -1.27156 
 C                    -6.92069  -1.11104  -0.20939 
 H                    -6.69992  -2.34485   1.5353 
 O                    -8.11188  -1.61901  -0.61499 
 H                    -8.39877  -2.30922  -0.00045 
 O                    -6.93919   0.33959  -2.15196 
 C                    -8.14427   1.10146  -1.98065 
 H                    -7.95422   1.99259  -1.37349 
 H                    -8.45321   1.40588  -2.98027 
 H                    -8.9345    0.50398  -1.52249 
 C                    -0.49436   1.43495   2.06154 
 H                    -1.27159   1.36298   2.82201 
 H                     0.23057   2.18238   2.38521 
 O                     3.76394  -2.67564   0.28594 
 O                     2.7262   -1.54421  -1.24329 
 N                     3.51511  -1.64611  -0.32416 
 

 GradGradGradGradGradGradGradGradGradGradGradGradGradGradGradGradGradGrad
 Berny optimization.
 Initialization pass.
                           ----------------------------
                           !    Initial Parameters    !
                           ! (Angstroms and Degrees)  !
 --------------------------                            --------------------------
 ! Name  Definition              Value          Derivative Info.                !
 --------------------------------------------------------------------------------
 ! R1    R(1,2)                  1.0859         calculate D2E/DX2 analytically  !
 ! R2    R(1,3)                  1.3614         calculate D2E/DX2 analytically  !
 ! R3    R(1,7)                  1.4289         calculate D2E/DX2 analytically  !
 ! R4    R(3,4)                  1.0847         calculate D2E/DX2 analytically  !
 ! R5    R(3,5)                  1.4623         calculate D2E/DX2 analytically  !
 ! R6    R(5,6)                  1.226          calculate D2E/DX2 analytically  !
 ! R7    R(5,45)                 1.5345         calculate D2E/DX2 analytically  !
 ! R8    R(7,8)                  1.3918         calculate D2E/DX2 analytically  !
 ! R9    R(7,9)                  1.508          calculate D2E/DX2 analytically  !
 ! R10   R(8,10)                 1.3937         calculate D2E/DX2 analytically  !
 ! R11   R(8,11)                 1.0852         calculate D2E/DX2 analytically  !
 ! R12   R(9,12)                 1.5108         calculate D2E/DX2 analytically  !
 ! R13   R(9,13)                 1.0997         calculate D2E/DX2 analytically  !
 ! R14   R(9,50)                 1.5475         calculate D2E/DX2 analytically  !
 ! R15   R(10,14)                1.418          calculate D2E/DX2 analytically  !
 ! R16   R(10,15)                1.0856         calculate D2E/DX2 analytically  !
 ! R17   R(12,14)                1.3731         calculate D2E/DX2 analytically  !
 ! R18   R(12,18)                1.3525         calculate D2E/DX2 analytically  !
 ! R19   R(14,16)                1.3606         calculate D2E/DX2 analytically  !
 ! R20   R(16,17)                0.9671         calculate D2E/DX2 analytically  !
 ! R21   R(18,19)                1.4449         calculate D2E/DX2 analytically  !
 ! R22   R(19,20)                1.0928         calculate D2E/DX2 analytically  !
 ! R23   R(19,21)                1.0886         calculate D2E/DX2 analytically  !
 ! R24   R(19,22)                1.0904         calculate D2E/DX2 analytically  !
 ! R25   R(23,24)                1.0863         calculate D2E/DX2 analytically  !
 ! R26   R(23,25)                1.3504         calculate D2E/DX2 analytically  !
 ! R27   R(23,29)                1.4563         calculate D2E/DX2 analytically  !
 ! R28   R(25,26)                1.0863         calculate D2E/DX2 analytically  !
 ! R29   R(25,27)                1.4649         calculate D2E/DX2 analytically  !
 ! R30   R(27,28)                1.225          calculate D2E/DX2 analytically  !
 ! R31   R(27,45)                1.5355         calculate D2E/DX2 analytically  !
 ! R32   R(29,30)                1.4038         calculate D2E/DX2 analytically  !
 ! R33   R(29,31)                1.409          calculate D2E/DX2 analytically  !
 ! R34   R(30,32)                1.3891         calculate D2E/DX2 analytically  !
 ! R35   R(30,33)                1.0851         calculate D2E/DX2 analytically  !
 ! R36   R(31,34)                1.3839         calculate D2E/DX2 analytically  !
 ! R37   R(31,35)                1.0841         calculate D2E/DX2 analytically  !
 ! R38   R(32,36)                1.395          calculate D2E/DX2 analytically  !
 ! R39   R(32,37)                1.0868         calculate D2E/DX2 analytically  !
 ! R40   R(34,36)                1.413          calculate D2E/DX2 analytically  !
 ! R41   R(34,40)                1.3698         calculate D2E/DX2 analytically  !
 ! R42   R(36,38)                1.357          calculate D2E/DX2 analytically  !
 ! R43   R(38,39)                0.9677         calculate D2E/DX2 analytically  !
 ! R44   R(40,41)                1.436          calculate D2E/DX2 analytically  !
 ! R45   R(41,42)                1.0949         calculate D2E/DX2 analytically  !
 ! R46   R(41,43)                1.0897         calculate D2E/DX2 analytically  !
 ! R47   R(41,44)                1.0915         calculate D2E/DX2 analytically  !
 ! R48   R(45,46)                1.0898         calculate D2E/DX2 analytically  !
 ! R49   R(45,47)                1.0904         calculate D2E/DX2 analytically  !
 ! R50   R(48,50)                1.2223         calculate D2E/DX2 analytically  !
 ! R51   R(49,50)                1.2155         calculate D2E/DX2 analytically  !
 ! A1    A(2,1,3)              118.1            calculate D2E/DX2 analytically  !
 ! A2    A(2,1,7)              114.0116         calculate D2E/DX2 analytically  !
 ! A3    A(3,1,7)              127.8838         calculate D2E/DX2 analytically  !
 ! A4    A(1,3,4)              122.2378         calculate D2E/DX2 analytically  !
 ! A5    A(1,3,5)              125.0015         calculate D2E/DX2 analytically  !
 ! A6    A(4,3,5)              112.7462         calculate D2E/DX2 analytically  !
 ! A7    A(3,5,6)              120.1321         calculate D2E/DX2 analytically  !
 ! A8    A(3,5,45)             119.9737         calculate D2E/DX2 analytically  !
 ! A9    A(6,5,45)             119.8908         calculate D2E/DX2 analytically  !
 ! A10   A(1,7,8)              119.3601         calculate D2E/DX2 analytically  !
 ! A11   A(1,7,9)              123.2706         calculate D2E/DX2 analytically  !
 ! A12   A(8,7,9)              116.3949         calculate D2E/DX2 analytically  !
 ! A13   A(7,8,10)             123.2034         calculate D2E/DX2 analytically  !
 ! A14   A(7,8,11)             118.2895         calculate D2E/DX2 analytically  !
 ! A15   A(10,8,11)            118.4911         calculate D2E/DX2 analytically  !
 ! A16   A(7,9,12)             115.2532         calculate D2E/DX2 analytically  !
 ! A17   A(7,9,13)             108.3555         calculate D2E/DX2 analytically  !
 ! A18   A(7,9,50)             115.8471         calculate D2E/DX2 analytically  !
 ! A19   A(12,9,13)            107.716          calculate D2E/DX2 analytically  !
 ! A20   A(12,9,50)            108.0319         calculate D2E/DX2 analytically  !
 ! A21   A(13,9,50)            100.3382         calculate D2E/DX2 analytically  !
 ! A22   A(8,10,14)            120.8786         calculate D2E/DX2 analytically  !
 ! A23   A(8,10,15)            119.8098         calculate D2E/DX2 analytically  !
 ! A24   A(14,10,15)           119.1786         calculate D2E/DX2 analytically  !
 ! A25   A(9,12,14)            119.1177         calculate D2E/DX2 analytically  !
 ! A26   A(9,12,18)            116.7257         calculate D2E/DX2 analytically  !
 ! A27   A(14,12,18)           123.7964         calculate D2E/DX2 analytically  !
 ! A28   A(10,14,12)           119.9239         calculate D2E/DX2 analytically  !
 ! A29   A(10,14,16)           121.7973         calculate D2E/DX2 analytically  !
 ! A30   A(12,14,16)           118.2644         calculate D2E/DX2 analytically  !
 ! A31   A(14,16,17)           109.882          calculate D2E/DX2 analytically  !
 ! A32   A(12,18,19)           116.9631         calculate D2E/DX2 analytically  !
 ! A33   A(18,19,20)           110.4219         calculate D2E/DX2 analytically  !
 ! A34   A(18,19,21)           105.8249         calculate D2E/DX2 analytically  !
 ! A35   A(18,19,22)           110.7443         calculate D2E/DX2 analytically  !
 ! A36   A(20,19,21)           109.486          calculate D2E/DX2 analytically  !
 ! A37   A(20,19,22)           110.2986         calculate D2E/DX2 analytically  !
 ! A38   A(21,19,22)           109.968          calculate D2E/DX2 analytically  !
 ! A39   A(24,23,25)           118.3961         calculate D2E/DX2 analytically  !
 ! A40   A(24,23,29)           114.3866         calculate D2E/DX2 analytically  !
 ! A41   A(25,23,29)           127.2051         calculate D2E/DX2 analytically  !
 ! A42   A(23,25,26)           121.4321         calculate D2E/DX2 analytically  !
 ! A43   A(23,25,27)           125.1662         calculate D2E/DX2 analytically  !
 ! A44   A(26,25,27)           113.3905         calculate D2E/DX2 analytically  !
 ! A45   A(25,27,28)           120.2944         calculate D2E/DX2 analytically  !
 ! A46   A(25,27,45)           119.8477         calculate D2E/DX2 analytically  !
 ! A47   A(28,27,45)           119.8562         calculate D2E/DX2 analytically  !
 ! A48   A(23,29,30)           118.8356         calculate D2E/DX2 analytically  !
 ! A49   A(23,29,31)           123.3018         calculate D2E/DX2 analytically  !
 ! A50   A(30,29,31)           117.8612         calculate D2E/DX2 analytically  !
 ! A51   A(29,30,32)           121.0769         calculate D2E/DX2 analytically  !
 ! A52   A(29,30,33)           119.5653         calculate D2E/DX2 analytically  !
 ! A53   A(32,30,33)           119.3556         calculate D2E/DX2 analytically  !
 ! A54   A(29,31,34)           121.7158         calculate D2E/DX2 analytically  !
 ! A55   A(29,31,35)           121.0454         calculate D2E/DX2 analytically  !
 ! A56   A(34,31,35)           117.2355         calculate D2E/DX2 analytically  !
 ! A57   A(30,32,36)           120.4146         calculate D2E/DX2 analytically  !
 ! A58   A(30,32,37)           120.1987         calculate D2E/DX2 analytically  !
 ! A59   A(36,32,37)           119.3827         calculate D2E/DX2 analytically  !
 ! A60   A(31,34,36)           119.4736         calculate D2E/DX2 analytically  !
 ! A61   A(31,34,40)           119.2544         calculate D2E/DX2 analytically  !
 ! A62   A(36,34,40)           121.1942         calculate D2E/DX2 analytically  !
 ! A63   A(32,36,34)           119.4515         calculate D2E/DX2 analytically  !
 ! A64   A(32,36,38)           122.9297         calculate D2E/DX2 analytically  !
 ! A65   A(34,36,38)           117.6154         calculate D2E/DX2 analytically  !
 ! A66   A(36,38,39)           109.7206         calculate D2E/DX2 analytically  !
 ! A67   A(34,40,41)           115.68           calculate D2E/DX2 analytically  !
 ! A68   A(40,41,42)           110.6279         calculate D2E/DX2 analytically  !
 ! A69   A(40,41,43)           106.0638         calculate D2E/DX2 analytically  !
 ! A70   A(40,41,44)           111.5446         calculate D2E/DX2 analytically  !
 ! A71   A(42,41,43)           109.3015         calculate D2E/DX2 analytically  !
 ! A72   A(42,41,44)           109.7807         calculate D2E/DX2 analytically  !
 ! A73   A(43,41,44)           109.4346         calculate D2E/DX2 analytically  !
 ! A74   A(5,45,27)            113.9137         calculate D2E/DX2 analytically  !
 ! A75   A(5,45,46)            106.7144         calculate D2E/DX2 analytically  !
 ! A76   A(5,45,47)            110.5046         calculate D2E/DX2 analytically  !
 ! A77   A(27,45,46)           110.6227         calculate D2E/DX2 analytically  !
 ! A78   A(27,45,47)           106.79           calculate D2E/DX2 analytically  !
 ! A79   A(46,45,47)           108.1975         calculate D2E/DX2 analytically  !
 ! A80   A(9,50,48)            114.6899         calculate D2E/DX2 analytically  !
 ! A81   A(9,50,49)            119.8431         calculate D2E/DX2 analytically  !
 ! A82   A(48,50,49)           125.4604         calculate D2E/DX2 analytically  !
 ! D1    D(2,1,3,4)           -179.454          calculate D2E/DX2 analytically  !
 ! D2    D(2,1,3,5)             -0.9414         calculate D2E/DX2 analytically  !
 ! D3    D(7,1,3,4)             -0.2833         calculate D2E/DX2 analytically  !
 ! D4    D(7,1,3,5)            178.2293         calculate D2E/DX2 analytically  !
 ! D5    D(2,1,7,8)             13.2038         calculate D2E/DX2 analytically  !
 ! D6    D(2,1,7,9)           -178.5075         calculate D2E/DX2 analytically  !
 ! D7    D(3,1,7,8)           -165.9954         calculate D2E/DX2 analytically  !
 ! D8    D(3,1,7,9)              2.2934         calculate D2E/DX2 analytically  !
 ! D9    D(1,3,5,6)            178.9832         calculate D2E/DX2 analytically  !
 ! D10   D(1,3,5,45)            -1.6876         calculate D2E/DX2 analytically  !
 ! D11   D(4,3,5,6)             -2.3809         calculate D2E/DX2 analytically  !
 ! D12   D(4,3,5,45)           176.9483         calculate D2E/DX2 analytically  !
 ! D13   D(3,5,45,27)           77.1108         calculate D2E/DX2 analytically  !
 ! D14   D(3,5,45,46)         -160.5154         calculate D2E/DX2 analytically  !
 ! D15   D(3,5,45,47)          -43.1007         calculate D2E/DX2 analytically  !
 ! D16   D(6,5,45,27)         -103.5584         calculate D2E/DX2 analytically  !
 ! D17   D(6,5,45,46)           18.8154         calculate D2E/DX2 analytically  !
 ! D18   D(6,5,45,47)          136.2301         calculate D2E/DX2 analytically  !
 ! D19   D(1,7,8,10)           175.3654         calculate D2E/DX2 analytically  !
 ! D20   D(1,7,8,11)            -3.1542         calculate D2E/DX2 analytically  !
 ! D21   D(9,7,8,10)             6.2867         calculate D2E/DX2 analytically  !
 ! D22   D(9,7,8,11)          -172.2329         calculate D2E/DX2 analytically  !
 ! D23   D(1,7,9,12)           169.1853         calculate D2E/DX2 analytically  !
 ! D24   D(1,7,9,13)           -70.0845         calculate D2E/DX2 analytically  !
 ! D25   D(1,7,9,50)            41.6821         calculate D2E/DX2 analytically  !
 ! D26   D(8,7,9,12)           -22.2053         calculate D2E/DX2 analytically  !
 ! D27   D(8,7,9,13)            98.5249         calculate D2E/DX2 analytically  !
 ! D28   D(8,7,9,50)          -149.7085         calculate D2E/DX2 analytically  !
 ! D29   D(7,8,10,14)            7.2441         calculate D2E/DX2 analytically  !
 ! D30   D(7,8,10,15)         -176.9819         calculate D2E/DX2 analytically  !
 ! D31   D(11,8,10,14)        -174.2391         calculate D2E/DX2 analytically  !
 ! D32   D(11,8,10,15)           1.5348         calculate D2E/DX2 analytically  !
 ! D33   D(7,9,12,14)           26.6598         calculate D2E/DX2 analytically  !
 ! D34   D(7,9,12,18)         -159.9669         calculate D2E/DX2 analytically  !
 ! D35   D(13,9,12,14)         -94.4182         calculate D2E/DX2 analytically  !
 ! D36   D(13,9,12,18)          78.9551         calculate D2E/DX2 analytically  !
 ! D37   D(50,9,12,14)         157.9972         calculate D2E/DX2 analytically  !
 ! D38   D(50,9,12,18)         -28.6296         calculate D2E/DX2 analytically  !
 ! D39   D(7,9,50,48)         -136.6711         calculate D2E/DX2 analytically  !
 ! D40   D(7,9,50,49)           44.2125         calculate D2E/DX2 analytically  !
 ! D41   D(12,9,50,48)          92.3162         calculate D2E/DX2 analytically  !
 ! D42   D(12,9,50,49)         -86.8002         calculate D2E/DX2 analytically  !
 ! D43   D(13,9,50,48)         -20.3078         calculate D2E/DX2 analytically  !
 ! D44   D(13,9,50,49)         160.5758         calculate D2E/DX2 analytically  !
 ! D45   D(8,10,14,12)          -3.1036         calculate D2E/DX2 analytically  !
 ! D46   D(8,10,14,16)         175.4925         calculate D2E/DX2 analytically  !
 ! D47   D(15,10,14,12)       -178.9038         calculate D2E/DX2 analytically  !
 ! D48   D(15,10,14,16)         -0.3077         calculate D2E/DX2 analytically  !
 ! D49   D(9,12,14,10)         -14.2107         calculate D2E/DX2 analytically  !
 ! D50   D(9,12,14,16)         167.1441         calculate D2E/DX2 analytically  !
 ! D51   D(18,12,14,10)        172.9141         calculate D2E/DX2 analytically  !
 ! D52   D(18,12,14,16)         -5.7311         calculate D2E/DX2 analytically  !
 ! D53   D(9,12,18,19)        -100.0585         calculate D2E/DX2 analytically  !
 ! D54   D(14,12,18,19)         72.9734         calculate D2E/DX2 analytically  !
 ! D55   D(10,14,16,17)         -3.9487         calculate D2E/DX2 analytically  !
 ! D56   D(12,14,16,17)        174.6699         calculate D2E/DX2 analytically  !
 ! D57   D(12,18,19,20)         58.9107         calculate D2E/DX2 analytically  !
 ! D58   D(12,18,19,21)        177.3028         calculate D2E/DX2 analytically  !
 ! D59   D(12,18,19,22)        -63.5597         calculate D2E/DX2 analytically  !
 ! D60   D(24,23,25,26)        178.1598         calculate D2E/DX2 analytically  !
 ! D61   D(24,23,25,27)         -0.5417         calculate D2E/DX2 analytically  !
 ! D62   D(29,23,25,26)         -0.4869         calculate D2E/DX2 analytically  !
 ! D63   D(29,23,25,27)       -179.1883         calculate D2E/DX2 analytically  !
 ! D64   D(24,23,29,30)         -0.1445         calculate D2E/DX2 analytically  !
 ! D65   D(24,23,29,31)        179.413          calculate D2E/DX2 analytically  !
 ! D66   D(25,23,29,30)        178.5483         calculate D2E/DX2 analytically  !
 ! D67   D(25,23,29,31)         -1.8941         calculate D2E/DX2 analytically  !
 ! D68   D(23,25,27,28)        176.3294         calculate D2E/DX2 analytically  !
 ! D69   D(23,25,27,45)         -4.1389         calculate D2E/DX2 analytically  !
 ! D70   D(26,25,27,28)         -2.4634         calculate D2E/DX2 analytically  !
 ! D71   D(26,25,27,45)        177.0683         calculate D2E/DX2 analytically  !
 ! D72   D(25,27,45,5)          80.1399         calculate D2E/DX2 analytically  !
 ! D73   D(25,27,45,46)        -40.0604         calculate D2E/DX2 analytically  !
 ! D74   D(25,27,45,47)       -157.5819         calculate D2E/DX2 analytically  !
 ! D75   D(28,27,45,5)        -100.3264         calculate D2E/DX2 analytically  !
 ! D76   D(28,27,45,46)        139.4734         calculate D2E/DX2 analytically  !
 ! D77   D(28,27,45,47)         21.9518         calculate D2E/DX2 analytically  !
 ! D78   D(23,29,30,32)       -179.7992         calculate D2E/DX2 analytically  !
 ! D79   D(23,29,30,33)         -0.3447         calculate D2E/DX2 analytically  !
 ! D80   D(31,29,30,32)          0.6191         calculate D2E/DX2 analytically  !
 ! D81   D(31,29,30,33)       -179.9264         calculate D2E/DX2 analytically  !
 ! D82   D(23,29,31,34)        179.8166         calculate D2E/DX2 analytically  !
 ! D83   D(23,29,31,35)          0.499          calculate D2E/DX2 analytically  !
 ! D84   D(30,29,31,34)         -0.6218         calculate D2E/DX2 analytically  !
 ! D85   D(30,29,31,35)       -179.9394         calculate D2E/DX2 analytically  !
 ! D86   D(29,30,32,36)          0.0165         calculate D2E/DX2 analytically  !
 ! D87   D(29,30,32,37)        179.2842         calculate D2E/DX2 analytically  !
 ! D88   D(33,30,32,36)       -179.4391         calculate D2E/DX2 analytically  !
 ! D89   D(33,30,32,37)         -0.1714         calculate D2E/DX2 analytically  !
 ! D90   D(29,31,34,36)         -0.011          calculate D2E/DX2 analytically  !
 ! D91   D(29,31,34,40)       -176.8423         calculate D2E/DX2 analytically  !
 ! D92   D(35,31,34,36)        179.3314         calculate D2E/DX2 analytically  !
 ! D93   D(35,31,34,40)          2.5001         calculate D2E/DX2 analytically  !
 ! D94   D(30,32,36,34)         -0.6648         calculate D2E/DX2 analytically  !
 ! D95   D(30,32,36,38)        178.6517         calculate D2E/DX2 analytically  !
 ! D96   D(37,32,36,34)       -179.9385         calculate D2E/DX2 analytically  !
 ! D97   D(37,32,36,38)         -0.622          calculate D2E/DX2 analytically  !
 ! D98   D(31,34,36,32)          0.66           calculate D2E/DX2 analytically  !
 ! D99   D(31,34,36,38)       -178.6926         calculate D2E/DX2 analytically  !
 ! D100  D(40,34,36,32)        177.4281         calculate D2E/DX2 analytically  !
 ! D101  D(40,34,36,38)         -1.9244         calculate D2E/DX2 analytically  !
 ! D102  D(31,34,40,41)       -112.3748         calculate D2E/DX2 analytically  !
 ! D103  D(36,34,40,41)         70.8501         calculate D2E/DX2 analytically  !
 ! D104  D(32,36,38,39)          0.2176         calculate D2E/DX2 analytically  !
 ! D105  D(34,36,38,39)        179.5459         calculate D2E/DX2 analytically  !
 ! D106  D(34,40,41,42)         58.6127         calculate D2E/DX2 analytically  !
 ! D107  D(34,40,41,43)        177.0325         calculate D2E/DX2 analytically  !
 ! D108  D(34,40,41,44)        -63.8931         calculate D2E/DX2 analytically  !
 --------------------------------------------------------------------------------
 Trust Radius=3.00D-01 FncErr=1.00D-07 GrdErr=1.00D-06 EigMax=2.50D+02 EigMin=1.00D-04
 Number of steps in this run=    251 maximum allowed number of steps=    300.
 GradGradGradGradGradGradGradGradGradGradGradGradGradGradGradGradGradGrad

                          Input orientation:                          
 ---------------------------------------------------------------------
 Center     Atomic      Atomic             Coordinates (Angstroms)
 Number     Number       Type             X           Y           Z
 ---------------------------------------------------------------------
      1          6           0        2.219296    0.931692    0.841156
      2          1           0        1.782463    1.925896    0.840198
      3          6           0        1.491867   -0.087813    1.374874
      4          1           0        1.866366   -1.104882    1.418417
      5          6           0        0.163800    0.051699    1.970860
      6          8           0       -0.420341   -0.932802    2.409726
      7          6           0        3.530728    0.872256    0.276865
      8          6           0        4.229446    2.054025    0.048283
      9          6           0        4.316727   -0.407783    0.143505
     10          6           0        5.545283    2.086247   -0.409819
     11          1           0        3.731740    2.994873    0.259709
     12          6           0        5.565310   -0.312370   -0.701807
     13          1           0        4.617658   -0.735733    1.149067
     14          6           0        6.203551    0.897972   -0.816694
     15          1           0        6.054292    3.038486   -0.522664
     16          8           0        7.454652    0.918464   -1.351022
     17          1           0        7.754189    1.832413   -1.452081
     18          8           0        6.059759   -1.472916   -1.189600
     19          6           0        7.179867   -2.054732   -0.486428
     20          1           0        6.913322   -2.257676    0.553730
     21          1           0        7.395397   -2.992425   -0.995646
     22          1           0        8.048658   -1.397485   -0.532966
     23          6           0       -3.127119    0.507668    0.917160
     24          1           0       -2.729074    0.061123    1.823966
     25          6           0       -2.389797    1.447134    0.286782
     26          1           0       -2.726668    1.904503   -0.639179
     27          6           0       -1.081902    1.932971    0.733202
     28          8           0       -0.458780    2.741243    0.055695
     29          6           0       -4.421072   -0.018728    0.505588
     30          6           0       -5.021837   -1.022142    1.282049
     31          6           0       -5.113370    0.434502   -0.634795
     32          6           0       -6.253224   -1.560312    0.930227
     33          1           0       -4.513440   -1.390806    2.166999
     34          6           0       -6.340611   -0.091973   -0.997861
     35          1           0       -4.696790    1.206662   -1.271556
     36          6           0       -6.920687   -1.111036   -0.209385
     37          1           0       -6.699918   -2.344853    1.535295
     38          8           0       -8.111880   -1.619009   -0.614985
     39          1           0       -8.398768   -2.309221   -0.000447
     40          8           0       -6.939190    0.339591   -2.151960
     41          6           0       -8.144271    1.101460   -1.980645
     42          1           0       -7.954220    1.992594   -1.373489
     43          1           0       -8.453211    1.405875   -2.980273
     44          1           0       -8.934497    0.503975   -1.522489
     45          6           0       -0.494364    1.434952    2.061539
     46          1           0       -1.271585    1.362984    2.822012
     47          1           0        0.230569    2.182376    2.385206
     48          8           0        3.763939   -2.675637    0.285935
     49          8           0        2.726200   -1.544207   -1.243288
     50          7           0        3.515107   -1.646105   -0.324157
 ---------------------------------------------------------------------
                    Distance matrix (angstroms):
                    1          2          3          4          5
     1  C    0.000000
     2  H    1.085940   0.000000
     3  C    1.361396   2.103651   0.000000
     4  H    2.146025   3.086583   1.084700   0.000000
     5  C    2.505131   2.722330   1.462335   2.131104   0.000000
     6  O    3.592274   3.935469   2.332695   2.498266   1.225996
     7  C    1.428919   2.117530   2.506853   2.825299   3.857348
     8  C    2.434950   2.575126   3.720437   4.176135   4.922915
     9  C    2.584594   3.514816   3.098142   2.848792   4.560390
    10  C    3.736325   3.968258   4.933746   5.201940   6.226345
    11  H    2.623411   2.297686   3.970337   4.650830   4.931583
    12  C    3.888989   4.658062   4.577769   4.336544   6.037550
    13  H    2.937219   3.901025   3.200212   2.788983   4.596982
    14  C    4.315541   4.831970   5.289112   5.274307   6.705612
    15  H    4.583206   4.619932   5.847232   6.202743   7.059494
    16  O    5.675806   6.163610   6.633092   6.556879   8.058704
    17  H    6.058488   6.397249   7.134117   7.178713   8.514780
    18  O    4.965407   5.828144   5.418549   4.951944   6.861144
    19  C    5.940410   6.836469   6.299727   5.723980   7.726611
    20  H    5.682303   6.626466   5.897013   5.248655   7.273068
    21  H    6.750152   7.685391   6.993411   6.321448   8.388256
    22  H    6.426098   7.224655   6.953172   6.489549   8.398825
    23  C    5.363742   5.110899   4.679651   5.271287   3.485447
    24  H    5.119587   4.979874   4.247377   4.758372   2.896616
    25  C    4.670840   4.235946   4.313621   5.090020   3.362174
    26  H    5.253600   4.745659   5.081513   5.863963   4.312771
    27  C    3.451394   2.866371   3.334606   4.288398   2.573471
    28  O    3.326186   2.510658   3.680871   4.696381   3.359927
    29  C    6.716427   6.509791   5.976895   6.445531   4.813838
    30  C    7.513046   7.428638   6.581028   6.890050   5.340265
    31  C    7.496240   7.207799   6.923925   7.436538   5.897839
    32  C    8.831852   8.759795   7.896354   8.146993   6.697738
    33  H    7.244418   7.238737   6.195883   6.429934   4.898557
    34  C    8.814867   8.569398   8.183984   8.615037   7.151315
    35  H    7.236809   6.852556   6.854103   7.460175   5.955882
    36  C    9.424206   9.277360   8.621365   8.936558   7.503025
    37  H    9.527327   9.522250   8.498547   8.656351   7.283118
    38  O   10.740560  10.610463   9.926533  10.196296   8.829764
    39  H   11.133512  11.058950  10.229898  10.432477   9.098218
    40  O    9.653351   9.356100   9.148987   9.611031   8.217846
    41  C   10.742202  10.352628  10.272733  10.799742   9.259613
    42  H   10.465686   9.985382  10.055354  10.669255   8.991885
    43  H   11.345950  10.937799  10.959151  11.495479  10.029975
    44  H   11.409507  11.066046  10.837619  11.309111   9.756385
    45  C    3.017707   2.629951   2.595272   3.526671   1.534533
    46  H    4.036837   3.683974   3.440303   4.231687   2.122324
    47  H    2.811287   2.204814   2.786647   3.796917   2.171618
    48  O    3.963208   5.040591   3.611777   2.711193   4.820616
    49  O    3.275963   4.156100   3.240283   2.831430   4.409485
    50  N    3.111610   4.137266   3.067325   2.459234   4.402374
                    6          7          8          9         10
     6  O    0.000000
     7  C    4.839243   0.000000
     8  C    6.009831   1.391774   0.000000
     9  C    5.277425   1.508005   2.465194   0.000000
    10  C    7.256250   2.450253   1.393672   2.834732   0.000000
    11  H    6.106470   2.132183   1.085176   3.454531   2.136073
    12  C    6.774555   2.549639   2.819041   1.510833   2.416407
    13  H    5.197069   2.127858   3.024100   1.099666   3.354726
    14  C    7.591934   2.887995   2.445758   2.487385   1.418048
    15  H    8.141923   3.420552   2.150629   3.916591   1.085626
    16  O    8.921094   4.248450   3.694524   3.720096   2.428018
    17  H    9.454253   4.663559   3.837189   4.402331   2.455607
    18  O    7.432265   3.747846   4.161936   2.439229   3.679726
    19  C    8.210335   4.739841   5.086530   3.362563   4.452577
    20  H    7.680015   4.616825   5.103864   3.214451   4.655064
    21  H    8.770654   5.611658   6.048115   4.178068   5.436821
    22  H    8.977712   5.120473   5.180459   3.919749   4.291671
    23  C    3.410184   6.698495   7.567378   7.539724   8.914221
    24  H    2.580940   6.498968   7.452899   7.258590   8.806583
    25  C    3.748299   5.948378   6.651284   6.959792   7.991196
    26  H    4.760805   6.407782   6.991601   7.454440   8.277126
    27  C    3.385417   4.754967   5.356695   5.913719   6.726780
    28  O    4.363662   4.411145   4.738332   5.720974   6.057598
    29  C    4.524060   8.004829   8.907126   8.753948  10.227273
    30  C    4.738502   8.817341   9.827066   9.427751  11.143991
    31  C    5.758745   8.703056   9.506717   9.499575  10.788223
    32  C    6.050224  10.102969  11.123292  10.661666  12.421670
    33  H    4.125790   8.567537   9.632958   9.112229  10.950242
    34  C    6.882459   9.999900  10.836320  10.722934  12.098137
    35  H    6.034663   8.378633   9.062985   9.265653  10.315829
    36  C    7.010421  10.649036  11.593510  11.264927  12.871022
    37  H    6.495507  10.798127  11.874861  11.271903  13.166741
    38  O    8.293342  11.939519  12.893387  12.510501  14.152354
    39  H    8.447411  12.349558  13.360841  12.857683  14.626151
    40  O    8.057503  10.761139  11.511680  11.511881  12.725876
    41  C    9.114421  11.893464  12.575087  12.730526  13.814528
    42  H    8.923564  11.656880  12.266496  12.595206  13.534179
    43  H    9.952311  12.430144  13.055345  13.270971  14.248789
    44  H    9.487755  12.599807  13.347636  13.386627  14.608410
    45  C    2.394363   4.438812   5.172121   5.497374   6.558135
    46  H    2.482988   5.457179   6.199391   6.445095   7.578755
    47  H    3.182549   4.129475   4.633433   5.332057   6.005630
    48  O    5.005613   3.555561   4.758453   2.338594   5.131549
    49  O    4.859943   2.966045   4.107941   2.396754   4.671413
    50  N    4.844654   2.589134   3.786813   1.547496   4.249636
                   11         12         13         14         15
    11  H    0.000000
    12  C    3.901839   0.000000
    13  H    3.936144   2.122031   0.000000
    14  C    3.415478   1.373127   3.008033   0.000000
    15  H    2.451175   3.391081   4.370736   2.165764   0.000000
    16  O    4.556973   2.346496   4.127390   1.360581   2.672392
    17  H    4.523454   3.155027   4.816552   1.918691   2.282121
    18  O    5.242262   1.352512   2.844724   2.404339   4.560437
    19  C    6.159936   2.385164   3.313535   3.127416   5.216234
    20  H    6.148023   2.679128   2.817944   3.512827   5.472284
    21  H    7.130641   3.258566   4.172324   4.072801   6.196302
    22  H    6.209422   2.715327   3.878004   2.958723   4.863686
    23  C    7.325461   8.879856   7.847382   9.498420   9.632053
    24  H    7.266079   8.678469   7.420575   9.352283   9.566550
    25  C    6.314226   8.207124   7.390052   8.681294   8.630773
    26  H    6.611198   8.583434   8.006734   8.988516   8.854646
    27  C    4.952068   7.161441   6.307132   7.520055   7.329709
    28  O    4.203143   6.796177   6.249404   6.967450   6.545453
    29  C    8.695435  10.063392   9.089929  10.745761  10.960708
    30  C    9.685386  10.794774   9.644666  11.580194  11.934250
    31  C    9.251573  10.704976   9.962154  11.327868  11.467780
    32  C   10.995400  11.995776  10.904306  12.816635  13.218729
    33  H    9.531785  10.534433   9.210986  11.357589  11.769871
    34  C   10.609541  11.911640  11.185141  12.584467  12.792936
    35  H    8.751148  10.389551   9.817905  10.914194  10.931705
    36  C   11.425968  12.521201  11.624098  13.290995  13.625959
    37  H   11.788099  12.632159  11.437918  13.511006  13.995907
    38  O   12.740657  13.739737  12.881506  14.536418  14.912452
    39  H   13.241991  14.123555  13.161481  14.972644  15.419521
    40  O   11.257683  12.605178  12.067056  13.222192  13.370461
    41  C   12.232900  13.841494  13.267901  14.396395  14.404061
    42  H   11.842025  13.731049  13.109507  14.210936  14.073244
    43  H   12.708085  14.306037  13.873916  14.824295  14.804489
    44  H   13.031284  14.545939  13.868489  15.159613  15.234408
    45  C    4.851793   6.885410   5.628254   7.309900   7.220410
    46  H    5.853351   7.871928   6.471981   8.326709   8.225730
    47  H    4.175654   6.649276   5.412019   6.897708   6.565393
    48  O    5.670662   3.131390   2.288462   4.465219   6.208925
    49  O    4.886037   3.141842   3.155092   4.270619   5.709341
    50  N    4.682575   2.474834   2.052994   3.733986   5.332191
                   16         17         18         19         20
    16  O    0.000000
    17  H    0.967077   0.000000
    18  O    2.773172   3.723599   0.000000
    19  C    3.108524   4.046261   1.444854   0.000000
    20  H    3.742858   4.632404   2.093709   1.092777   0.000000
    21  H    3.927449   4.859643   2.032352   1.088588   1.781241
    22  H    2.526990   3.371013   2.095848   1.090384   1.791598
    23  C   10.829925  11.214772   9.631193  10.713072  10.420636
    24  H   10.701582  11.125141   9.416923  10.392395   9.998306
    25  C    9.993752  10.299152   9.060982  10.219559  10.017230
    26  H   10.253695  10.512582   9.429275  10.669504  10.567695
    27  C    8.845675   9.102861   8.142515   9.254518   9.028695
    28  O    8.241589   8.399537   7.861377   9.035718   8.921049
    29  C   12.056457  12.469810  10.716163  11.819949  11.553514
    30  C   12.898131  13.373511  11.362835  12.372362  12.021024
    31  C   12.597713  12.969047  11.348342  12.543603  12.381508
    32  C   14.115746  14.607998  12.494433  13.516630  13.190375
    33  H   12.686387  13.190209  11.093513  12.008951  11.572597
    34  C   13.836726  14.232813  12.478499  13.671771  13.519040
    35  H   12.155119  12.468000  11.085585  12.341317  12.252673
    36  C   14.562712  15.018661  13.022433  14.134813  13.902407
    37  H   14.809859  15.339334  13.076494  14.029254  13.648860
    38  O   15.789156  16.258696  14.184036  15.298494  15.084114
    39  H   16.234929  16.738530  14.531431  15.588291  15.322202
    40  O   14.427726  14.785592  13.159939  14.417162  14.351259
    41  C   15.612697  15.924029  14.457096  15.716979  15.634512
    42  H   15.446281  15.709422  14.437284  15.691027  15.582772
    43  H   15.998504  16.284874  14.903699  16.204573  16.187684
    44  H   16.395286  16.741623  15.127677  16.349102  16.220073
    45  C    8.665979   8.974527   7.872873   8.807034   8.413252
    46  H    9.682924   9.997641   8.825189   9.698123   9.232929
    47  H    8.230689   8.452935   7.753699   8.630881   8.229675
    48  O    5.405419   6.266204   2.982370   3.556773   3.188263
    49  O    5.332412   6.060184   3.334753   4.546276   4.611974
    50  N    4.811599   5.598403   2.693370   3.691040   3.562663
                   21         22         23         24         25
    21  H    0.000000
    22  H    1.784561   0.000000
    23  C   11.253125  11.429369   0.000000
    24  H   10.944372  11.128440   1.086342   0.000000
    25  C   10.821475  10.850124   1.350413   2.097396   0.000000
    26  H   11.250030  11.270406   2.129249   3.076547   1.086311
    27  C    9.955553   9.801135   2.499648   2.721536   1.464895
    28  O    9.781021   9.479034   3.584831   3.932437   2.336011
    29  C   12.277032  12.588635   1.456296   2.146475   2.514499
    30  C   12.777230  13.201250   2.462401   2.593048   3.743730
    31  C   12.974717  13.289301   2.521728   3.445255   3.048373
    32  C   13.858023  14.377457   3.748232   3.980886   4.938099
    33  H   12.425293  12.848975   2.662365   2.325883   4.012353
    34  C   14.038894  14.455848   3.788589   4.585776   4.430360
    35  H   12.803493  13.029718   2.782613   3.842710   2.794362
    36  C   14.460570  14.975582   4.275566   4.803966   5.226794
    37  H   14.335373  14.922992   4.613443   4.651844   5.874955
    38  O   15.572630  16.162264   5.631879   6.143771   6.554132
    39  H   15.840228  16.481282   6.047078   6.410339   7.092280
    40  O   14.762106  15.174787   4.896900   5.797466   5.279308
    41  C   16.100043  16.448448   5.824232   6.699382   6.194731
    42  H   16.143231  16.379598   5.545537   6.423118   5.832395
    43  H   16.566900  16.916259   6.660632   7.593077   6.887695
    44  H   16.708316  17.117893   6.299011   7.064146   6.855371
    45  C    9.549679   9.366823   3.016763   2.633966   2.596647
    46  H   10.424043  10.283141   2.793391   2.194359   2.772160
    47  H    9.462742   9.080399   4.029128   3.684317   3.436609
    48  O    3.863974   4.545667   7.616991   7.212116   7.407139
    49  O    4.894902   5.371652   6.568034   6.461048   6.120675
    50  N    4.161745   4.545162   7.092163   6.820473   6.693972
                   26         27         28         29         30
    26  H    0.000000
    27  C    2.142311   0.000000
    28  O    2.515214   1.224990   0.000000
    29  C    2.807190   3.874402   4.849701   0.000000
    30  C    4.186188   4.955503   6.040571   1.403798   0.000000
    31  C    2.803082   4.513265   5.240519   1.408960   2.409249
    32  C    5.186962   6.243750   7.269372   2.431785   1.389143
    33  H    4.682547   4.987857   6.162118   2.156714   1.085135
    34  C    4.144292   5.894998   6.613095   2.439335   2.793272
    35  H    2.183635   4.196903   4.698645   2.176199   3.405014
    36  C    5.183435   6.651756   7.527720   2.820000   2.416176
    37  H    6.210642   7.106704   8.185926   3.415303   2.151663
    38  O    6.435544   7.990917   8.833547   4.175961   3.674691
    39  H    7.094799   8.489462   9.410300   4.617845   3.834714
    40  O    4.741603   6.720926   7.255163   3.678569   4.162088
    41  C    5.638691   7.611401   8.118026   4.615017   4.990436
    42  H    5.279609   7.188217   7.667116   4.478781   4.973870
    43  H    6.206661   8.270666   8.655128   5.517143   5.986400
    44  H    6.424862   8.294180   8.906953   4.975673   5.050087
    45  C    3.535186   1.535481   2.393966   4.466901   5.209887
    46  H    3.793462   2.173475   3.195741   4.146591   4.703690
    47  H    4.239029   2.124594   2.492821   5.478648   6.250893
    48  O    7.997593   6.702350   6.872187   8.608241   8.995340
    49  O    6.480148   5.522583   5.495137   7.514596   8.165902
    50  N    7.187893   5.921173   5.931685   8.143695   8.709112
                   31         32         33         34         35
    31  C    0.000000
    32  C    2.779900   0.000000
    33  H    3.397310   2.141305   0.000000
    34  C    1.383876   2.425114   3.878384   0.000000
    35  H    1.084082   3.863480   4.313249   2.112702   0.000000
    36  C    2.415793   1.395017   3.394158   1.413036   3.383142
    37  H    3.866683   1.086806   2.467781   3.409025   4.950171
    38  O    3.634331   2.417794   4.554150   2.369774   4.480886
    39  H    4.327153   2.455683   4.542806   3.185441   5.261349
    40  O    2.375798   3.685113   5.247089   1.369850   2.560328
    41  C    3.382677   4.374273   6.049568   2.375571   3.521221
    42  H    3.323214   4.563292   5.985100   2.662752   3.352451
    43  H    4.195160   5.378682   7.059577   3.261378   4.131598
    44  H    3.923498   4.179273   6.062034   2.712680   4.302894
    45  C    5.441170   6.589077   4.914163   6.772742   5.368615
    46  H    5.250800   6.077930   4.303722   6.511786   5.339828
    47  H    6.382253   7.626549   5.943136   7.732930   6.213115
    48  O    9.451313  10.099634   8.585115  10.508348   9.438324
    49  O    8.108293   9.238749   8.004122   9.185656   7.916367
    50  N    8.881218   9.848915   8.410030  10.000219   8.744775
                   36         37         38         39         40
    36  C    0.000000
    37  H    2.148244   0.000000
    38  O    1.357015   2.672862   0.000000
    39  H    1.914165   2.290385   0.967654   0.000000
    40  O    2.424512   4.567203   2.752019   3.711547   0.000000
    41  C    3.087014   5.130796   3.044179   3.952050   1.435971
    42  H    3.472153   5.371010   3.693760   4.537453   2.090149
    43  H    4.044909   6.126365   3.854999   4.762800   2.028626
    44  H    2.896193   4.739115   2.450984   3.243099   2.098691
    45  C    7.275766   7.285105   8.632323   8.986113   7.777478
    46  H    6.871863   6.698544   8.215526   8.499888   7.609828
    47  H    8.289688   8.321647   9.646146  10.016548   8.682579
    48  O   10.809928  10.543369  11.956722  12.171595  11.383844
    49  O    9.711798   9.859678  10.856534  11.220286   9.889092
    50  N   10.450132  10.406370  11.630655  11.936705  10.797045
                   41         42         43         44         45
    41  C    0.000000
    42  H    1.094933   0.000000
    43  H    1.089664   1.781849   0.000000
    44  H    1.091491   1.788611   1.780504   0.000000
    45  C    8.658611   8.231636   9.421463   9.216714   0.000000
    46  H    8.388547   7.915570   9.232773   8.850582   1.089757
    47  H    9.506155   9.008583  10.237156  10.103739   1.090381
    48  O   12.696823  12.722473  13.288552  13.214787   6.179228
    49  O   11.212064  11.251546  11.691849  11.842502   5.492659
    50  N   12.092732  12.078356  12.633692  12.690606   5.591092
                   46         47         48         49         50
    46  H    0.000000
    47  H    1.765975   0.000000
    48  O    6.935319   6.363327   0.000000
    49  O    6.400055   5.769018   2.166924   0.000000
    50  N    6.470349   5.725915   1.222320   1.215549   0.000000
 Stoichiometry    C21H20NO8(2)
 Framework group  C1[X(C21H20NO8)]
 Deg. of freedom   144
 Full point group                 C1      NOp   1
 Largest Abelian subgroup         C1      NOp   1
 Largest concise Abelian subgroup C1      NOp   1
                         Standard orientation:                         
 ---------------------------------------------------------------------
 Center     Atomic      Atomic             Coordinates (Angstroms)
 Number     Number       Type             X           Y           Z
 ---------------------------------------------------------------------
      1          6           0        2.236539    0.912954    0.841323
      2          1           0        1.799406    1.907009    0.847126
      3          6           0        1.508962   -0.110572    1.367083
      4          1           0        1.883732   -1.127817    1.403646
      5          6           0        0.180342    0.024263    1.962914
      6          8           0       -0.403876   -0.963536    2.394200
      7          6           0        3.548472    0.857959    0.277746
      8          6           0        4.247027    2.041546    0.058254
      9          6           0        4.334973   -0.420856    0.135877
     10          6           0        5.563247    2.077447   -0.398475
     11          1           0        3.748855    2.980704    0.276000
     12          6           0        5.584251   -0.319006   -0.707656
     13          1           0        4.635141   -0.755927    1.139317
     14          6           0        6.222223    0.892319   -0.813303
     15          1           0        6.072064    3.030622   -0.504044
     16          8           0        7.473775    0.917017   -1.346395
     17          1           0        7.773122    1.831757   -1.440634
     18          8           0        6.079469   -1.475874   -1.203342
     19          6           0        7.199151   -2.062390   -0.503403
     20          1           0        6.931776   -2.272875    0.535042
     21          1           0        7.415401   -2.996340   -1.019153
     22          1           0        8.067782   -1.404568   -0.544475
     23          6           0       -3.109811    0.486808    0.909688
     24          1           0       -2.712407    0.033883    1.813607
     25          6           0       -2.372233    1.430994    0.286704
     26          1           0       -2.708449    1.894898   -0.636239
     27          6           0       -1.064869    1.914002    0.737723
     28          8           0       -0.441411    2.727301    0.066571
     29          6           0       -4.403251   -0.037004    0.493236
     30          6           0       -5.004377   -1.046145    1.261958
     31          6           0       -5.094709    0.424195   -0.644458
     32          6           0       -6.235299   -1.582141    0.905224
     33          1           0       -4.496627   -1.421001    2.144675
     34          6           0       -6.321478   -0.100025   -1.012348
     35          1           0       -4.677817    1.201029   -1.275302
     36          6           0       -6.901921   -1.124894   -0.231706
     37          1           0       -6.682273   -2.371138    1.504261
     38          8           0       -8.092612   -1.630296   -0.641965
     39          1           0       -8.379817   -2.324987   -0.032645
     40          8           0       -6.919199    0.339635   -2.163833
     41          6           0       -8.124657    1.099897   -1.988089
     42          1           0       -7.935397    1.986706   -1.374389
     43          1           0       -8.432833    1.411388   -2.985771
     44          1           0       -8.915094    0.498904   -1.534913
     45          6           0       -0.478318    1.406634    2.062955
     46          1           0       -1.256169    1.328978    2.822224
     47          1           0        0.246111    2.151931    2.392602
     48          8           0        3.782750   -2.689838    0.261549
     49          8           0        2.745979   -1.547768   -1.260404
     50          7           0        3.534129   -1.656027   -0.341351
 ---------------------------------------------------------------------
 Rotational constants (GHZ):           0.3579219           0.0461161           0.0449476
 Standard basis: 6-311G(d) (5D, 7F)
 There are   630 symmetry adapted cartesian basis functions of A   symmetry.
 There are   600 symmetry adapted basis functions of A   symmetry.
   600 basis functions,  1060 primitive gaussians,   630 cartesian basis functions
   109 alpha electrons      108 beta electrons
       nuclear repulsion energy      2682.4300119281 Hartrees.
 NAtoms=   50 NActive=   50 NUniq=   50 SFac= 1.00D+00 NAtFMM=   60 NAOKFM=F Big=F
 Integral buffers will be    131072 words long.
 Raffenetti 2 integral format.
 Two-electron integral symmetry is turned on.
 Force inversion solution in PCM.
 Using the following non-standard input for PCM:
 Eps=7
 EpsInf=1.85341
 HbondAcidity=0
 HbondBasicity=0.48
 SurfaceTensionAtInterface=60.62
 CarbonAromaticity=0
 ElectronegativeHalogenicity=0
 --- end of non-standard input.
 Force inversion solution in PCM.
 ------------------------------------------------------------------------------
 Polarizable Continuum Model (PCM)
 =================================
 Model                : PCM.
 Atomic radii         : SMD-Coulomb.
 Polarization charges : Total charges.
 Charge compensation  : None.
 Solution method      : Matrix inversion.
 Cavity type          : VdW (van der Waals Surface) (Alpha=1.000).
 Cavity algorithm     : GePol (No added spheres)
                        Default sphere list used, NSphG=   50.
                        Lebedev-Laikov grids with approx.  5.0 points / Ang**2.
                        Smoothing algorithm: York/Karplus (Gamma=1.0000).
                        Polarization charges: spherical gaussians, with
                                              point-specific exponents (IZeta= 3).
                        Self-potential: point-specific (ISelfS= 7).
                        Self-field    : sphere-specific E.n sum rule (ISelfD= 2).
 1st derivatives      : Analytical E(r).r(x)/FMM algorithm (CHGder, D1EAlg=3).
                        Cavity 1st derivative terms included.
 2nd derivatives      : Analytical E(r).r(xy)/FMM algorithm (CHGder, D2EAlg=3).
                        Cavity 2nd derivative terms included.
 Solvent              : Generic,
                        Eps                           =   7.000000
                        Eps(infinity)                 =   1.853410
                        RSolv                         =   0.000000 Ang.
                        Molar volume                  =   0.000000 cm**3/mol
                        Thermal expansion coefficient =   0.000000 K**-1
                        Absolute temperature          = 298.150000 K
                        Numeral density               =   0.000000 Ang**-3
                        Hydrogen bond acidity         =   0.000000
                        Hydrogen bond basicity        =   0.480000
                        Surface tension at interface  =  60.620000 (cal/mol)*Ang**-2
                        Carbon aromaticity            =   0.000000
                        Electronegative halogenicity  =   0.000000
 ------------------------------------------------------------------------------
 ------------------------------------------------------------------------------
 Atomic radii for non-electrostatic terms: SMD-CDS.
 ------------------------------------------------------------------------------
 Nuclear repulsion after PCM non-electrostatic terms =     2682.4259078056 Hartrees.
 One-electron integrals computed using PRISM.
 NBasis=   600 RedAO= T EigKep=  1.75D-04  NBF=   600
 NBsUse=   600 1.00D-06 EigRej= -1.00D+00 NBFU=   600
 ExpMin= 1.03D-01 ExpMax= 8.59D+03 ExpMxC= 1.30D+03 IAcc=3 IRadAn=         5 AccDes= 0.00D+00
 Harris functional with IExCor=  402 and IRadAn=       5 diagonalized for initial guess.
 HarFok:  IExCor=  402 AccDes= 0.00D+00 IRadAn=         5 IDoV= 1 UseB2=F ITyADJ=14
 ICtDFT=  3500011 ScaDFX=  1.000000  1.000000  1.000000  1.000000
 FoFCou: FMM=F IPFlag=           0 FMFlag=      100000 FMFlg1=           0
         NFxFlg=           0 DoJE=T BraDBF=F KetDBF=T FulRan=T
         wScrn=  0.000000 ICntrl=       500 IOpCl=  0 I1Cent=   200000004 NGrid=           0
         NMat0=    1 NMatS0=      1 NMatT0=    0 NMatD0=    1 NMtDS0=    0 NMtDT0=    0
 Petite list used in FoFCou.
 Initial guess <Sx>= 0.0000 <Sy>= 0.0000 <Sz>= 0.5000 <S**2>= 0.7500 S= 0.5000
 Requested convergence on RMS density matrix=1.00D-08 within 128 cycles.
 Requested convergence on MAX density matrix=1.00D-06.
 Requested convergence on             energy=1.00D-06.
 No special actions if energy rises.
 Inv3:  Mode=1 IEnd=    50503827.
 Iteration    1 A*A^-1 deviation from unit magnitude is 4.00D-15 for   3165.
 Iteration    1 A*A^-1 deviation from orthogonality  is 1.81D-15 for    690    267.
 Iteration    1 A^-1*A deviation from unit magnitude is 3.44D-15 for   3738.
 Iteration    1 A^-1*A deviation from orthogonality  is 4.57D-14 for   2303   2150.
 EnCoef did     2 forward-backward iterations
 Restarting incremental Fock formation.
 Error on total polarization charges =  0.03478
 SCF Done:  E(UB3LYP) =  -1468.97538611     A.U. after   22 cycles
            NFock= 22  Conv=0.53D-08     -V/T= 2.0034
 <Sx>= 0.0000 <Sy>= 0.0000 <Sz>= 0.5000 <S**2>= 0.7944 S= 0.5220
 <L.S>=  0.00000000000    
 SMD-CDS (non-electrostatic) energy       (kcal/mol) =      -2.58
 (included in total energy above)
 Annihilation of the first spin contaminant:
 S**2 before annihilation     0.7944,   after     0.7512
 DoSCS=F DFT=T ScalE2(SS,OS)=  1.000000  1.000000
 Range of M.O.s used for correlation:     1   600
 NBasis=   600 NAE=   109 NBE=   108 NFC=     0 NFV=     0
 NROrb=    600 NOA=   109 NOB=   108 NVA=   491 NVB=   492

 **** Warning!!: The largest alpha MO coefficient is  0.14891259D+02


 **** Warning!!: The largest beta MO coefficient is  0.15101946D+02


 **** Warning!!: The smallest beta delta epsilon is  0.97262331D-01

 Symmetrizing basis deriv contribution to polar:
 IMax=3 JMax=2 DiffMx= 0.00D+00
 G2DrvN: will do    26 centers at a time, making    2 passes.
 Calling FoFCou, ICntrl=  3107 FMM=F I1Cent=   0 AccDes= 0.00D+00.
 Calling FoFCou, ICntrl=  3107 FMM=F I1Cent=   0 AccDes= 0.00D+00.
 NEqPCM:  Using equilibrium solvation (IEInf=0, Eps=   7.0000, EpsInf=   1.8534)
 G2PCM: DoFxE=T DoFxN=T DoGrad=T DoDP/DQ/DG/TGxP=FFFF NFrqRd=   0 IEInf=0 SqF1=F DoCFld=F IF1Alg=4.
 End of G2Drv F.D. properties file   721 does not exist.
 End of G2Drv F.D. properties file   722 does not exist.
 End of G2Drv F.D. properties file   788 does not exist.
          IDoAtm=11111111111111111111111111111111111111111111111111
 NEqPCM:  Using equilibrium solvation (IEInf=0, Eps=   7.0000, EpsInf=   1.8534)
          Differentiating once with respect to nuclear coordinates.
 CalDSu exits because no D1Ps are significant.
          There are   153 degrees of freedom in the 1st order CPHF.  IDoFFX=6 NUNeed=     0.
    150 vectors produced by pass  0 Test12= 1.07D-13 1.00D-09 XBig12= 3.63D-01 1.69D-01.
 AX will form    50 AO Fock derivatives at one time.
    150 vectors produced by pass  1 Test12= 1.07D-13 1.00D-09 XBig12= 3.99D-02 4.46D-02.
    148 vectors produced by pass  2 Test12= 1.07D-13 1.00D-09 XBig12= 1.67D-03 8.97D-03.
    147 vectors produced by pass  3 Test12= 1.07D-13 1.00D-09 XBig12= 1.53D-05 4.35D-04.
    147 vectors produced by pass  4 Test12= 1.07D-13 1.00D-09 XBig12= 1.03D-07 3.15D-05.
    144 vectors produced by pass  5 Test12= 1.07D-13 1.00D-09 XBig12= 8.36D-10 1.79D-06.
    104 vectors produced by pass  6 Test12= 1.07D-13 1.00D-09 XBig12= 3.61D-12 9.97D-08.
     22 vectors produced by pass  7 Test12= 1.07D-13 1.00D-09 XBig12= 1.41D-14 7.09D-09.
      1 vectors produced by pass  8 Test12= 1.07D-13 1.00D-09 XBig12= 1.22D-15 1.47D-09.
 InvSVY:  IOpt=1 It=  1 EMax= 6.66D-16
 Solved reduced A of dimension  1013 with   153 vectors.
 End of Minotr F.D. properties file   721 does not exist.
 End of Minotr F.D. properties file   722 does not exist.
 End of Minotr F.D. properties file   788 does not exist.

 **********************************************************************

            Population analysis using the SCF density.

 **********************************************************************

 Orbital symmetries:
 Alpha Orbitals:
       Occupied  (A) (A) (A) (A) (A) (A) (A) (A) (A) (A) (A) (A)
                 (A) (A) (A) (A) (A) (A) (A) (A) (A) (A) (A) (A)
                 (A) (A) (A) (A) (A) (A) (A) (A) (A) (A) (A) (A)
                 (A) (A) (A) (A) (A) (A) (A) (A) (A) (A) (A) (A)
                 (A) (A) (A) (A) (A) (A) (A) (A) (A) (A) (A) (A)
                 (A) (A) (A) (A) (A) (A) (A) (A) (A) (A) (A) (A)
                 (A) (A) (A) (A) (A) (A) (A) (A) (A) (A) (A) (A)
                 (A) (A) (A) (A) (A) (A) (A) (A) (A) (A) (A) (A)
                 (A) (A) (A) (A) (A) (A) (A) (A) (A) (A) (A) (A)
                 (A)
       Virtual   (A) (A) (A) (A) (A) (A) (A) (A) (A) (A) (A) (A)
                 (A) (A) (A) (A) (A) (A) (A) (A) (A) (A) (A) (A)
                 (A) (A) (A) (A) (A) (A) (A) (A) (A) (A) (A) (A)
                 (A) (A) (A) (A) (A) (A) (A) (A) (A) (A) (A) (A)
                 (A) (A) (A) (A) (A) (A) (A) (A) (A) (A) (A) (A)
                 (A) (A) (A) (A) (A) (A) (A) (A) (A) (A) (A) (A)
                 (A) (A) (A) (A) (A) (A) (A) (A) (A) (A) (A) (A)
                 (A) (A) (A) (A) (A) (A) (A) (A) (A) (A) (A) (A)
                 (A) (A) (A) (A) (A) (A) (A) (A) (A) (A) (A) (A)
                 (A) (A) (A) (A) (A) (A) (A) (A) (A) (A) (A) (A)
                 (A) (A) (A) (A) (A) (A) (A) (A) (A) (A) (A) (A)
                 (A) (A) (A) (A) (A) (A) (A) (A) (A) (A) (A) (A)
                 (A) (A) (A) (A) (A) (A) (A) (A) (A) (A) (A) (A)
                 (A) (A) (A) (A) (A) (A) (A) (A) (A) (A) (A) (A)
                 (A) (A) (A) (A) (A) (A) (A) (A) (A) (A) (A) (A)
                 (A) (A) (A) (A) (A) (A) (A) (A) (A) (A) (A) (A)
                 (A) (A) (A) (A) (A) (A) (A) (A) (A) (A) (A) (A)
                 (A) (A) (A) (A) (A) (A) (A) (A) (A) (A) (A) (A)
                 (A) (A) (A) (A) (A) (A) (A) (A) (A) (A) (A) (A)
                 (A) (A) (A) (A) (A) (A) (A) (A) (A) (A) (A) (A)
                 (A) (A) (A) (A) (A) (A) (A) (A) (A) (A) (A) (A)
                 (A) (A) (A) (A) (A) (A) (A) (A) (A) (A) (A) (A)
                 (A) (A) (A) (A) (A) (A) (A) (A) (A) (A) (A) (A)
                 (A) (A) (A) (A) (A) (A) (A) (A) (A) (A) (A) (A)
                 (A) (A) (A) (A) (A) (A) (A) (A) (A) (A) (A) (A)
                 (A) (A) (A) (A) (A) (A) (A) (A) (A) (A) (A) (A)
                 (A) (A) (A) (A) (A) (A) (A) (A) (A) (A) (A) (A)
                 (A) (A) (A) (A) (A) (A) (A) (A) (A) (A) (A) (A)
                 (A) (A) (A) (A) (A) (A) (A) (A) (A) (A) (A) (A)
                 (A) (A) (A) (A) (A) (A) (A) (A) (A) (A) (A) (A)
                 (A) (A) (A) (A) (A) (A) (A) (A) (A) (A) (A) (A)
                 (A) (A) (A) (A) (A) (A) (A) (A) (A) (A) (A) (A)
                 (A) (A) (A) (A) (A) (A) (A) (A) (A) (A) (A) (A)
                 (A) (A) (A) (A) (A) (A) (A) (A) (A) (A) (A) (A)
                 (A) (A) (A) (A) (A) (A) (A) (A) (A) (A) (A) (A)
                 (A) (A) (A) (A) (A) (A) (A) (A) (A) (A) (A) (A)
                 (A) (A) (A) (A) (A) (A) (A) (A) (A) (A) (A) (A)
                 (A) (A) (A) (A) (A) (A) (A) (A) (A) (A) (A) (A)
                 (A) (A) (A) (A) (A) (A) (A) (A) (A) (A) (A) (A)
                 (A) (A) (A) (A) (A) (A) (A) (A) (A) (A) (A) (A)
                 (A) (A) (A) (A) (A) (A) (A) (A) (A) (A) (A)
 Beta  Orbitals:
       Occupied  (A) (A) (A) (A) (A) (A) (A) (A) (A) (A) (A) (A)
                 (A) (A) (A) (A) (A) (A) (A) (A) (A) (A) (A) (A)
                 (A) (A) (A) (A) (A) (A) (A) (A) (A) (A) (A) (A)
                 (A) (A) (A) (A) (A) (A) (A) (A) (A) (A) (A) (A)
                 (A) (A) (A) (A) (A) (A) (A) (A) (A) (A) (A) (A)
                 (A) (A) (A) (A) (A) (A) (A) (A) (A) (A) (A) (A)
                 (A) (A) (A) (A) (A) (A) (A) (A) (A) (A) (A) (A)
                 (A) (A) (A) (A) (A) (A) (A) (A) (A) (A) (A) (A)
                 (A) (A) (A) (A) (A) (A) (A) (A) (A) (A) (A) (A)
       Virtual   (A) (A) (A) (A) (A) (A) (A) (A) (A) (A) (A) (A)
                 (A) (A) (A) (A) (A) (A) (A) (A) (A) (A) (A) (A)
                 (A) (A) (A) (A) (A) (A) (A) (A) (A) (A) (A) (A)
                 (A) (A) (A) (A) (A) (A) (A) (A) (A) (A) (A) (A)
                 (A) (A) (A) (A) (A) (A) (A) (A) (A) (A) (A) (A)
                 (A) (A) (A) (A) (A) (A) (A) (A) (A) (A) (A) (A)
                 (A) (A) (A) (A) (A) (A) (A) (A) (A) (A) (A) (A)
                 (A) (A) (A) (A) (A) (A) (A) (A) (A) (A) (A) (A)
                 (A) (A) (A) (A) (A) (A) (A) (A) (A) (A) (A) (A)
                 (A) (A) (A) (A) (A) (A) (A) (A) (A) (A) (A) (A)
                 (A) (A) (A) (A) (A) (A) (A) (A) (A) (A) (A) (A)
                 (A) (A) (A) (A) (A) (A) (A) (A) (A) (A) (A) (A)
                 (A) (A) (A) (A) (A) (A) (A) (A) (A) (A) (A) (A)
                 (A) (A) (A) (A) (A) (A) (A) (A) (A) (A) (A) (A)
                 (A) (A) (A) (A) (A) (A) (A) (A) (A) (A) (A) (A)
                 (A) (A) (A) (A) (A) (A) (A) (A) (A) (A) (A) (A)
                 (A) (A) (A) (A) (A) (A) (A) (A) (A) (A) (A) (A)
                 (A) (A) (A) (A) (A) (A) (A) (A) (A) (A) (A) (A)
                 (A) (A) (A) (A) (A) (A) (A) (A) (A) (A) (A) (A)
                 (A) (A) (A) (A) (A) (A) (A) (A) (A) (A) (A) (A)
                 (A) (A) (A) (A) (A) (A) (A) (A) (A) (A) (A) (A)
                 (A) (A) (A) (A) (A) (A) (A) (A) (A) (A) (A) (A)
                 (A) (A) (A) (A) (A) (A) (A) (A) (A) (A) (A) (A)
                 (A) (A) (A) (A) (A) (A) (A) (A) (A) (A) (A) (A)
                 (A) (A) (A) (A) (A) (A) (A) (A) (A) (A) (A) (A)
                 (A) (A) (A) (A) (A) (A) (A) (A) (A) (A) (A) (A)
                 (A) (A) (A) (A) (A) (A) (A) (A) (A) (A) (A) (A)
                 (A) (A) (A) (A) (A) (A) (A) (A) (A) (A) (A) (A)
                 (A) (A) (A) (A) (A) (A) (A) (A) (A) (A) (A) (A)
                 (A) (A) (A) (A) (A) (A) (A) (A) (A) (A) (A) (A)
                 (A) (A) (A) (A) (A) (A) (A) (A) (A) (A) (A) (A)
                 (A) (A) (A) (A) (A) (A) (A) (A) (A) (A) (A) (A)
                 (A) (A) (A) (A) (A) (A) (A) (A) (A) (A) (A) (A)
                 (A) (A) (A) (A) (A) (A) (A) (A) (A) (A) (A) (A)
                 (A) (A) (A) (A) (A) (A) (A) (A) (A) (A) (A) (A)
                 (A) (A) (A) (A) (A) (A) (A) (A) (A) (A) (A) (A)
                 (A) (A) (A) (A) (A) (A) (A) (A) (A) (A) (A) (A)
                 (A) (A) (A) (A) (A) (A) (A) (A) (A) (A) (A) (A)
                 (A) (A) (A) (A) (A) (A) (A) (A) (A) (A) (A) (A)
                 (A) (A) (A) (A) (A) (A) (A) (A) (A) (A) (A) (A)
                 (A) (A) (A) (A) (A) (A) (A) (A) (A) (A) (A) (A)
 The electronic state is 2-A.
 Alpha  occ. eigenvalues --  -19.16241 -19.16128 -19.16102 -19.15837 -19.15115
 Alpha  occ. eigenvalues --  -19.13419 -19.10224 -19.10060 -14.54984 -10.25812
 Alpha  occ. eigenvalues --  -10.25796 -10.25161 -10.25124 -10.25089 -10.24700
 Alpha  occ. eigenvalues --  -10.23146 -10.21423 -10.21058 -10.20627 -10.19897
 Alpha  occ. eigenvalues --  -10.19575 -10.19544 -10.19289 -10.18688 -10.18170
 Alpha  occ. eigenvalues --  -10.18003 -10.17951 -10.17868 -10.17434 -10.17111
 Alpha  occ. eigenvalues --   -1.24061  -1.08682  -1.08186  -1.06882  -1.06419
 Alpha  occ. eigenvalues --   -1.04920  -1.03955  -1.03492  -0.88778  -0.86750
 Alpha  occ. eigenvalues --   -0.81854  -0.80822  -0.80572  -0.77419  -0.76140
 Alpha  occ. eigenvalues --   -0.75423  -0.73124  -0.71584  -0.69529  -0.68892
 Alpha  occ. eigenvalues --   -0.66129  -0.64874  -0.62521  -0.62115  -0.59885
 Alpha  occ. eigenvalues --   -0.58598  -0.57540  -0.56414  -0.55754  -0.54334
 Alpha  occ. eigenvalues --   -0.53616  -0.52890  -0.52664  -0.51736  -0.51177
 Alpha  occ. eigenvalues --   -0.50688  -0.49653  -0.48832  -0.48170  -0.47317
 Alpha  occ. eigenvalues --   -0.47236  -0.46202  -0.45766  -0.45359  -0.44466
 Alpha  occ. eigenvalues --   -0.44271  -0.43908  -0.43602  -0.42818  -0.42423
 Alpha  occ. eigenvalues --   -0.41863  -0.41268  -0.41101  -0.40550  -0.39295
 Alpha  occ. eigenvalues --   -0.39130  -0.38442  -0.38273  -0.37707  -0.37388
 Alpha  occ. eigenvalues --   -0.36750  -0.36449  -0.35868  -0.35514  -0.34817
 Alpha  occ. eigenvalues --   -0.34124  -0.32532  -0.31435  -0.30557  -0.29886
 Alpha  occ. eigenvalues --   -0.29255  -0.29082  -0.28340  -0.26319  -0.25189
 Alpha  occ. eigenvalues --   -0.24654  -0.24288  -0.21966  -0.19448
 Alpha virt. eigenvalues --   -0.07616  -0.07584  -0.06155  -0.01269  -0.00501
 Alpha virt. eigenvalues --    0.01384   0.03425   0.03870   0.04916   0.05756
 Alpha virt. eigenvalues --    0.06153   0.06527   0.07068   0.07348   0.07536
 Alpha virt. eigenvalues --    0.08292   0.08493   0.09356   0.10301   0.10882
 Alpha virt. eigenvalues --    0.11284   0.11918   0.12246   0.12454   0.13000
 Alpha virt. eigenvalues --    0.13192   0.13845   0.14589   0.15505   0.16244
 Alpha virt. eigenvalues --    0.16870   0.17174   0.17208   0.18761   0.20137
 Alpha virt. eigenvalues --    0.21243   0.22014   0.22308   0.23501   0.24061
 Alpha virt. eigenvalues --    0.24537   0.25503   0.26124   0.27304   0.27423
 Alpha virt. eigenvalues --    0.27870   0.28837   0.29925   0.30215   0.30879
 Alpha virt. eigenvalues --    0.31196   0.31900   0.32543   0.33256   0.33383
 Alpha virt. eigenvalues --    0.33614   0.34352   0.35148   0.35851   0.36047
 Alpha virt. eigenvalues --    0.36264   0.36816   0.37294   0.37553   0.38157
 Alpha virt. eigenvalues --    0.38588   0.38745   0.39120   0.40117   0.40391
 Alpha virt. eigenvalues --    0.40919   0.41068   0.41756   0.41953   0.42806
 Alpha virt. eigenvalues --    0.42964   0.43247   0.43417   0.44209   0.44647
 Alpha virt. eigenvalues --    0.45192   0.45384   0.45787   0.45929   0.46269
 Alpha virt. eigenvalues --    0.46536   0.47215   0.47921   0.48378   0.49278
 Alpha virt. eigenvalues --    0.49530   0.50085   0.50364   0.51460   0.51990
 Alpha virt. eigenvalues --    0.52135   0.52584   0.53103   0.54441   0.54854
 Alpha virt. eigenvalues --    0.55080   0.55584   0.56359   0.57070   0.57498
 Alpha virt. eigenvalues --    0.57914   0.58311   0.58951   0.59258   0.59985
 Alpha virt. eigenvalues --    0.60247   0.60602   0.61097   0.61268   0.61692
 Alpha virt. eigenvalues --    0.62075   0.62326   0.62454   0.62897   0.63456
 Alpha virt. eigenvalues --    0.63938   0.64245   0.64623   0.65677   0.66282
 Alpha virt. eigenvalues --    0.66423   0.67293   0.68558   0.68965   0.69211
 Alpha virt. eigenvalues --    0.69988   0.70211   0.71183   0.73734   0.74245
 Alpha virt. eigenvalues --    0.74859   0.75172   0.75757   0.76636   0.76988
 Alpha virt. eigenvalues --    0.77727   0.78225   0.78467   0.79200   0.79349
 Alpha virt. eigenvalues --    0.80248   0.80439   0.80890   0.81431   0.82510
 Alpha virt. eigenvalues --    0.83095   0.83803   0.84716   0.85131   0.85625
 Alpha virt. eigenvalues --    0.86086   0.86645   0.87083   0.88377   0.89018
 Alpha virt. eigenvalues --    0.89157   0.89859   0.90915   0.91626   0.91683
 Alpha virt. eigenvalues --    0.92827   0.93924   0.94698   0.95197   0.96097
 Alpha virt. eigenvalues --    0.96656   0.97280   0.98056   0.98115   0.99247
 Alpha virt. eigenvalues --    0.99840   1.01336   1.02201   1.03460   1.04680
 Alpha virt. eigenvalues --    1.06236   1.06677   1.06841   1.08636   1.08943
 Alpha virt. eigenvalues --    1.09519   1.09901   1.10512   1.10915   1.11557
 Alpha virt. eigenvalues --    1.13373   1.14229   1.14913   1.15703   1.16127
 Alpha virt. eigenvalues --    1.17491   1.19227   1.20318   1.20505   1.21832
 Alpha virt. eigenvalues --    1.23380   1.23668   1.24295   1.24997   1.26084
 Alpha virt. eigenvalues --    1.27117   1.27327   1.28524   1.31224   1.33869
 Alpha virt. eigenvalues --    1.36821   1.37597   1.37907   1.39225   1.40604
 Alpha virt. eigenvalues --    1.42183   1.43246   1.44936   1.45949   1.46729
 Alpha virt. eigenvalues --    1.47142   1.47657   1.49721   1.50144   1.50842
 Alpha virt. eigenvalues --    1.51683   1.52406   1.52565   1.53130   1.53619
 Alpha virt. eigenvalues --    1.54043   1.54882   1.55309   1.55892   1.56444
 Alpha virt. eigenvalues --    1.56553   1.57588   1.58763   1.59722   1.60323
 Alpha virt. eigenvalues --    1.61326   1.62194   1.62975   1.63374   1.65606
 Alpha virt. eigenvalues --    1.65945   1.66718   1.67979   1.68277   1.68685
 Alpha virt. eigenvalues --    1.69477   1.69976   1.70665   1.71667   1.72979
 Alpha virt. eigenvalues --    1.73873   1.74425   1.74937   1.76313   1.76495
 Alpha virt. eigenvalues --    1.77970   1.78568   1.79532   1.80697   1.81137
 Alpha virt. eigenvalues --    1.81722   1.83496   1.83686   1.84385   1.85192
 Alpha virt. eigenvalues --    1.88072   1.89862   1.90874   1.91932   1.92685
 Alpha virt. eigenvalues --    1.94656   1.96136   1.98185   1.99450   2.00419
 Alpha virt. eigenvalues --    2.02039   2.02691   2.04472   2.05253   2.07324
 Alpha virt. eigenvalues --    2.09184   2.09972   2.11328   2.11820   2.12795
 Alpha virt. eigenvalues --    2.14620   2.15935   2.16580   2.17147   2.19067
 Alpha virt. eigenvalues --    2.20297   2.23676   2.24812   2.26494   2.27307
 Alpha virt. eigenvalues --    2.28040   2.29351   2.29888   2.30632   2.31657
 Alpha virt. eigenvalues --    2.32382   2.33364   2.34528   2.35832   2.36554
 Alpha virt. eigenvalues --    2.38076   2.38968   2.39840   2.40429   2.42635
 Alpha virt. eigenvalues --    2.44041   2.44707   2.47426   2.49166   2.50585
 Alpha virt. eigenvalues --    2.51247   2.52641   2.53613   2.55326   2.58010
 Alpha virt. eigenvalues --    2.60240   2.61018   2.63576   2.63952   2.65494
 Alpha virt. eigenvalues --    2.66422   2.68835   2.69520   2.71142   2.73358
 Alpha virt. eigenvalues --    2.74655   2.76231   2.76892   2.78255   2.79663
 Alpha virt. eigenvalues --    2.81211   2.81301   2.82487   2.83738   2.84155
 Alpha virt. eigenvalues --    2.85157   2.85987   2.86039   2.89328   2.91245
 Alpha virt. eigenvalues --    2.91836   2.92777   2.93673   2.94365   2.94501
 Alpha virt. eigenvalues --    2.94787   2.95313   2.96107   2.97016   2.97740
 Alpha virt. eigenvalues --    2.98876   2.99394   3.00840   3.02203   3.03602
 Alpha virt. eigenvalues --    3.04319   3.04986   3.07093   3.08701   3.08832
 Alpha virt. eigenvalues --    3.11526   3.12535   3.12846   3.14500   3.14636
 Alpha virt. eigenvalues --    3.14829   3.15615   3.16435   3.16758   3.18477
 Alpha virt. eigenvalues --    3.19384   3.19894   3.21237   3.24306   3.25481
 Alpha virt. eigenvalues --    3.26331   3.28394   3.29428   3.29782   3.29999
 Alpha virt. eigenvalues --    3.30317   3.31074   3.31744   3.32806   3.33063
 Alpha virt. eigenvalues --    3.33423   3.34968   3.36171   3.39018   3.39840
 Alpha virt. eigenvalues --    3.42068   3.42399   3.44967   3.45961   3.47494
 Alpha virt. eigenvalues --    3.48852   3.50825   3.51081   3.52536   3.54063
 Alpha virt. eigenvalues --    3.56678   3.58204   3.59368   3.63423   3.66653
 Alpha virt. eigenvalues --    3.70206   3.71515   3.71664   3.83032   3.86282
 Alpha virt. eigenvalues --    3.87293   3.89184   3.89660   3.90003   3.93123
 Alpha virt. eigenvalues --    3.94761   3.98347   4.06684   4.07453   4.07815
 Alpha virt. eigenvalues --    4.10763   4.41341   4.41575   4.47006   4.49961
 Alpha virt. eigenvalues --    4.61688   4.79002   4.80971   4.81152   4.85751
 Alpha virt. eigenvalues --    4.86489   4.89195   4.89751   4.93941   4.95138
 Alpha virt. eigenvalues --    4.96778   4.99822   5.05268   5.06140   5.09733
 Alpha virt. eigenvalues --    5.11125   5.16471   5.18064   5.47010   5.50165
 Alpha virt. eigenvalues --    5.50242   5.59105   5.60002   5.67898   5.68281
 Alpha virt. eigenvalues --    6.00138  23.23345  23.27107  23.41881  23.42346
 Alpha virt. eigenvalues --   23.55268  23.56270  23.70954  23.72151  23.73238
 Alpha virt. eigenvalues --   23.78844  23.79594  23.86233  23.90018  23.92002
 Alpha virt. eigenvalues --   23.99123  24.02940  24.05514  24.08310  24.11743
 Alpha virt. eigenvalues --   24.12050  24.15289  35.33393  49.82209  49.85736
 Alpha virt. eigenvalues --   49.86585  49.91416  49.92992  49.94932  49.96603
 Alpha virt. eigenvalues --   49.98340
  Beta  occ. eigenvalues --  -19.16306 -19.16120 -19.16102 -19.15836 -19.15012
  Beta  occ. eigenvalues --  -19.13419 -19.10059 -19.10013 -14.54897 -10.25849
  Beta  occ. eigenvalues --  -10.25796 -10.25347 -10.25182 -10.24700 -10.24525
  Beta  occ. eigenvalues --  -10.23146 -10.21368 -10.20627 -10.20591 -10.19804
  Beta  occ. eigenvalues --  -10.19697 -10.19338 -10.19289 -10.18688 -10.18170
  Beta  occ. eigenvalues --  -10.17951 -10.17869 -10.17709 -10.17434 -10.17111
  Beta  occ. eigenvalues --   -1.23998  -1.08651  -1.08186  -1.06853  -1.06236
  Beta  occ. eigenvalues --   -1.04920  -1.03777  -1.03313  -0.88245  -0.86750
  Beta  occ. eigenvalues --   -0.81459  -0.80754  -0.80211  -0.77109  -0.76136
  Beta  occ. eigenvalues --   -0.75246  -0.73005  -0.71167  -0.69025  -0.68892
  Beta  occ. eigenvalues --   -0.66119  -0.64628  -0.62417  -0.62033  -0.59565
  Beta  occ. eigenvalues --   -0.58596  -0.57401  -0.56311  -0.55708  -0.54232
  Beta  occ. eigenvalues --   -0.53242  -0.52656  -0.52523  -0.51628  -0.51170
  Beta  occ. eigenvalues --   -0.50550  -0.49511  -0.48595  -0.48070  -0.47303
  Beta  occ. eigenvalues --   -0.46764  -0.46202  -0.45535  -0.45030  -0.44263
  Beta  occ. eigenvalues --   -0.44181  -0.43891  -0.43498  -0.42779  -0.42293
  Beta  occ. eigenvalues --   -0.41775  -0.41220  -0.41076  -0.40345  -0.39072
  Beta  occ. eigenvalues --   -0.38886  -0.38287  -0.38205  -0.37681  -0.37308
  Beta  occ. eigenvalues --   -0.36700  -0.36282  -0.35778  -0.35114  -0.34150
  Beta  occ. eigenvalues --   -0.33843  -0.32488  -0.31320  -0.30370  -0.29165
  Beta  occ. eigenvalues --   -0.29053  -0.28666  -0.28338  -0.26179  -0.25187
  Beta  occ. eigenvalues --   -0.24521  -0.22624  -0.21962
  Beta virt. eigenvalues --   -0.12236  -0.07488  -0.07402  -0.05316  -0.01253
[...]
 0.00002995,0.00003887,-0.00001340,0.00006945,-0.00004030,0.00000861,-0
 .00003819,0.00000739,0.00000075,-0.00000256,-0.00001396,-0.00004773,0.
 00003187,0.00000295,0.00001283,-0.00000696,0.00006441,0.00002839,0.000
 02227,-0.00000344,-0.00000449,0.00000062,-0.00007569,-0.00003431,-0.00
 002163,0.00000731,0.00000837,-0.00000419,-0.00002353,0.00001588,-0.000
 02695,0.00001561,-0.00001016,-0.00000107,-0.00000103,0.00000206,0.0000
 0161,-0.00000186,0.00000202,-0.00000190,-0.00000062,-0.00000131,0.0000
 0172,-0.12615765,-0.17109180,-0.05958826,0.00018743,-0.00036092,0.0003
 9603,0.13380345,0.18621929,0.00067052,-0.00126641,-0.00031041,0.001988
 30,-0.00013954,-0.00146958,0.00044394,0.00039016,-0.00001274,-0.000020
 50,0.00008739,0.00011201,-0.00213292,0.00017263,-0.00166284,-0.0004655
 9,0.00028973,0.00064099,0.00005900,0.00031399,-0.00015150,-0.00004319,
 -0.00005260,0.00005178,-0.00012022,-0.00001042,0.00001570,0.00004785,-
 0.00003946,-0.00001084,0.00001519,0.00001624,-0.00001173,0.00001976,-0
 .00008838,0.00002807,0.00001055,0.00000201,0.00001396,0.00005662,0.000
 10767,-0.00003855,-0.00000774,-0.00000508,0.00000503,-0.00007332,-0.00
 001777,0.00001590,0.00000919,0.00000700,-0.00000098,-0.00008322,0.0000
 9774,-0.00000398,0.00004032,-0.00001421,-0.00002007,-0.00000664,-0.000
 00069,0.00000436,-0.00000440,0.00000502,0.00000241,-0.00000431,-0.0000
 0037,0.00000489,0.00085605,0.00080079,-0.00037386,0.00000784,-0.000104
 70,0.00034637,-0.00101382,0.00286161,-0.00345111,-0.00125686,-0.000091
 26,-0.00014249,-0.02348255,-0.02015441,-0.01294106,0.00155731,-0.00051
 267,0.00436663,-0.00005282,-0.00025537,0.00012045,0.00000605,0.0000253
 3,-0.00003329,0.00006178,0.00003243,-0.00000543,-0.00004010,0.00000455
 ,-0.00002804,0.00000078,-0.00001125,0.00000223,-0.00000314,-0.00006797
 ,0.00006871,0.00000387,-0.00000744,0.00003640,0.00005273,0.00001762,0.
 00000903,-0.00000574,-0.00000256,0.00000121,-0.00007469,-0.00003502,-0
 .00001525,0.00000439,0.00000859,-0.00000407,-0.00001672,0.00001678,-0.
 00001656,0.00001586,-0.00000949,-0.00000063,-0.00000109,0.00000214,0.0
 0000111,-0.00000175,0.00000186,-0.00000162,-0.00000084,-0.00000125,0.0
 0000173,-0.04602537,-0.05509240,-0.06883769,0.01386930,0.01655316,0.00
 858196,0.05514429,0.05615803,0.07511983,-0.00355624,-0.00149534,0.0015
 9777,0.00024834,0.00013061,-0.00020544,0.00322909,-0.00048448,0.001118
 45,-0.00032842,0.00134160,-0.00149916,-0.00210302,0.00085710,0.0007757
 5,0.00109543,0.00101996,-0.00041553,-0.00280637,-0.00221170,-0.0024755
 5,0.00084164,-0.00071912,-0.00074247,-0.00371175,-0.02538347,0.0037458
 1,-0.00006829,-0.00055314,-0.00011023,-0.00000899,-0.00027580,0.000382
 48,0.00114183,-0.00316167,-0.00154847,-0.00003826,0.00060742,0.0005253
 0,0.00082974,0.00074798,-0.00044637,-0.00010135,-0.00007712,-0.0000382
 2,-0.00113970,-0.00032687,0.00045184,0.00014832,0.00010766,0.00001419,
 -0.00159335,0.00185092,0.00002138,0.00073508,-0.00025140,-0.00019121,-
 0.00009663,0.00000078,0.00003177,-0.00011457,0.00011336,0.00004064,-0.
 00003647,-0.00000330,0.00006348,-0.00001158,-0.00001280,-0.00001264,-0
 .00003286,-0.00000045,-0.00000752,0.00004056,0.00008941,0.00008521,0.0
 0002583,-0.00001882,0.00000491,-0.00017624,-0.00001883,-0.00026692,0.0
 0005965,0.00002076,0.00010119,0.00002418,0.00000657,0.00001344,-0.0000
 1330,0.00000685,0.00001070,-0.00000821,0.00001465,0.00000521,0.0000010
 0,0.00001845,0.00001088,0.00000397,-0.00001164,-0.00001477,0.00001927,
 -0.00000897,0.00003284,0.00000710,-0.00001515,-0.00000690,0.00002294,0
 .00000359,-0.00000598,0.00000701,-0.00000552,-0.00000478,-0.00002320,0
 .00000431,0.00000261,0.00001300,-0.00000692,-0.00000418,-0.00003552,0.
 00002626,-0.00002163,0.00003184,-0.00002490,-0.00000382,-0.00000153,0.
 00000690,0.00000521,-0.00000284,0.00000138,-0.00000293,-0.00000340,0.0
 0000014,0.00000173,-0.00021009,-0.00020982,0.00013311,-0.00003589,0.00
 006352,-0.00001334,0.00003955,-0.00003790,-0.00000185,0.28547338,-0.00
 259468,-0.00122055,0.00104984,0.00022573,0.00004161,-0.00012555,0.0032
 6103,-0.00013715,-0.00132731,0.00043624,-0.00114394,-0.00175790,-0.002
 25289,0.00006226,0.00099225,0.00119049,0.00103112,-0.00067673,0.000360
 34,0.00362217,-0.00082173,-0.00163057,-0.00153324,0.00103492,-0.028442
 13,-0.01399799,0.00362917,0.00118011,0.00022706,-0.00078531,0.00005450
 ,-0.00018307,0.00020558,0.00069983,-0.00545368,-0.00386081,-0.00038575
 ,0.00033425,-0.00081947,0.00029362,0.00130186,-0.00083187,-0.00007477,
 -0.00012876,-0.00004345,-0.00196742,-0.00072386,0.00092610,0.00011606,
 0.00024213,0.00015743,-0.00021853,0.00079377,0.00040849,0.00048942,-0.
 00027878,-0.00003196,-0.00002569,-0.00000030,0.00000324,-0.00016133,0.
 00013933,0.00002198,0.00008302,-0.00000371,-0.00004893,-0.00009373,-0.
 00008456,-0.00000058,-0.00005519,0.00000198,0.00000596,0.00014937,0.00
 013632,0.00007036,0.00002366,-0.00000864,0.00001584,-0.00033830,-0.000
 03198,-0.00040887,0.00014166,-0.00001834,0.00011653,0.00006257,0.00002
 042,0.00002626,-0.00002389,-0.00001891,0.00002552,-0.00001621,0.000017
 04,-0.00001612,0.00002164,0.00001313,0.00002895,-0.00000033,-0.0000110
 7,-0.00001278,0.00002393,0.00001972,-0.00000602,0.00000038,-0.00000740
 ,-0.00000617,-0.00002807,-0.00002211,-0.00001451,0.00001114,-0.0000012
 8,-0.00000498,0.00004165,0.00003532,0.00001750,0.00000388,-0.00001401,
 -0.00000099,-0.00000566,0.00001200,0.00000027,0.00000933,-0.00001200,-
 0.00000176,-0.00000059,0.00000367,0.00000342,-0.00000137,-0.00000109,-
 0.00000062,-0.00000074,0.00000126,-0.00000054,0.00014184,-0.00025112,0
 .00018412,0.00002325,0.00001230,-0.00002251,0.00000581,-0.00001804,0.0
 0002446,0.29892648,0.36401947,-0.00013753,-0.00059871,0.00025872,0.000
 14619,-0.00010557,0.00019142,0.00109404,0.00098549,-0.00198246,0.00037
 080,-0.00187789,-0.00025182,-0.00103116,-0.00079625,0.00049294,0.00056
 750,0.00029388,-0.00024363,-0.00136620,0.00060931,-0.00089823,0.000061
 33,-0.00126422,0.00046830,-0.01246337,-0.01215057,0.01012348,0.0010075
 3,-0.00064379,-0.00005983,-0.00005077,-0.00028554,0.00018097,-0.001314
 19,-0.00514206,-0.00235781,-0.00061981,-0.00134046,0.00410095,-0.00061
 817,0.00246127,-0.00010061,-0.00006188,-0.00008589,-0.00003412,-0.0010
 8401,-0.00076132,0.00050788,-0.00006579,0.00007563,0.00000589,-0.00062
 548,0.00068098,0.00030013,0.00041570,-0.00019067,-0.00055766,-0.000083
 49,0.00000058,0.00011072,-0.00005857,0.00005840,0.00004378,-0.00023713
 ,-0.00000723,0.00016244,-0.00006086,-0.00005085,-0.00000051,-0.0000417
 7,0.00000055,0.00001340,0.00010279,0.00008639,0.00004450,0.00002536,-0
 .00000655,0.00001952,-0.00024939,0.00003513,-0.00044228,0.00010788,-0.
 00008522,0.00019695,0.00004249,0.00001035,0.00001952,-0.00001337,-0.00
 001465,0.00000755,-0.00000714,0.00001786,-0.00001743,0.00001738,-0.000
 00239,0.00002228,-0.00000137,-0.00000292,0.00000161,0.00000589,0.00002
 754,-0.00003438,-0.00000065,-0.00000788,-0.00000300,-0.00003491,-0.000
 01728,-0.00001452,0.00000132,0.00000045,-0.00000169,0.00004432,0.00002
 264,0.00001864,-0.00000377,-0.00000575,-0.00000183,0.00001565,-0.00001
 086,0.00003214,-0.00000619,0.00000280,-0.00000242,0.00000103,0.0000005
 1,-0.00000137,0.00000263,-0.00000159,0.00000303,-0.00000077,-0.0000003
 0,-0.00000097,0.00044681,-0.00018368,0.00004130,0.00007300,-0.00006632
 ,-0.00001794,-0.00002597,0.00002365,0.00003335,-0.10450156,-0.11195086
 ,0.16536461,-0.00139666,-0.00067996,0.00039462,0.00011239,0.00003050,-
 0.00002107,0.00113034,-0.00016195,-0.00019297,0.00008650,-0.00012126,-
 0.00056116,-0.00097860,0.00013919,0.00035718,0.00049211,0.00042248,-0.
 00024418,0.00019346,-0.00171926,-0.00134720,0.00090753,0.00014170,-0.0
 0047307,0.01466824,-0.00021440,-0.00495646,-0.00120286,0.00112047,0.00
 006596,0.00009309,-0.00006018,0.00017328,0.00061056,0.00182970,-0.0010
 8952,-0.00014421,-0.00115215,-0.00287192,0.00114914,-0.00171340,-0.001
 48633,-0.00005321,-0.00006062,0.00000565,-0.00061544,0.00017881,0.0002
 8778,0.00010551,0.00005016,-0.00013151,-0.00066318,-0.00073518,-0.0004
 8582,0.00086026,-0.00028331,0.00009231,-0.00009860,-0.00000793,-0.0000
 2064,-0.00004474,0.00007152,-0.00001774,0.00003861,0.00004865,-0.00019
 090,-0.00001078,-0.00000930,-0.00000379,-0.00001939,-0.00000185,-0.000
 00131,0.00002723,0.00004799,0.00004080,0.00001707,-0.00001052,0.000004
 74,-0.00010374,0.00001229,-0.00019231,0.00003244,-0.00001089,0.0000906
 9,0.00001317,0.00000309,0.00000733,-0.00000668,0.00000212,0.00000606,-
 0.00000475,0.00001055,0.00000066,0.00000125,0.00000850,0.00000642,0.00
 000166,-0.00000593,-0.00000633,0.00001002,-0.00000228,0.00001293,0.000
 00397,-0.00000920,-0.00000385,0.00001069,0.00000181,-0.00000410,0.0000
 0336,-0.00000297,-0.00000228,-0.00001004,0.00000244,0.00000310,0.00000
 627,-0.00000339,-0.00000261,-0.00001801,0.00001171,-0.00000666,0.00001
 705,-0.00001230,-0.00000211,-0.00000076,0.00000345,0.00000209,-0.00000
 081,0.00000072,-0.00000101,-0.00000210,-0.00000033,0.00000111,0.000025
 70,-0.00012290,0.00007417,0.00000250,0.00001158,-0.00000597,0.00001165
 ,-0.00000496,0.00000403,-0.01109243,-0.03650024,0.06953510,0.10723531,
 -0.00066487,0.00001111,0.00036590,0.00008611,0.00002815,-0.00016874,0.
 00086271,-0.00054218,0.00057478,0.00000185,0.00015591,-0.00099973,-0.0
 0066780,0.00038662,0.00032485,0.00037800,0.00027326,-0.00018270,-0.000
 49215,0.00227707,0.00007654,0.00005417,0.00018159,0.00018997,0.0002915
 9,0.01482694,-0.01135662,-0.00028595,0.00154860,-0.00059575,0.00004674
 ,-0.00006748,-0.00001685,-0.00005517,-0.00033969,-0.00187587,-0.001983
 73,-0.00172717,-0.00417730,0.00084540,-0.00125406,-0.00095543,-0.00006
 821,-0.00007711,-0.00002892,-0.00131735,-0.00001371,0.00052178,0.00009
 088,0.00013762,0.00000601,0.00059356,-0.00050904,0.00063520,-0.0001394
 7,-0.00011510,-0.00024884,-0.00002111,-0.00000363,0.00005971,-0.000030
 11,0.00003923,-0.00000944,-0.00002861,-0.00005722,0.00002579,-0.000040
 68,-0.00003704,0.00000018,-0.00001556,0.00000064,0.00000028,0.00006372
 ,0.00004959,0.00001741,0.00000335,-0.00000220,0.00000269,-0.00014455,-
 0.00005756,-0.00003636,0.00008655,0.00003478,-0.00003436,0.00002586,0.
 00000980,0.00000990,-0.00001053,-0.00000691,0.00001110,-0.00000882,0.0
 0000363,-0.00000462,0.00000902,0.00000651,0.00001113,0.00000005,-0.000
 00474,-0.00000645,0.00001022,0.00000728,-0.00000209,-0.00000051,-0.000
 00178,-0.00000225,-0.00001281,-0.00001054,-0.00000512,0.00000494,-0.00
 000060,-0.00000238,0.00001914,0.00001644,0.00000727,0.00000098,-0.0000
 0645,-0.00000061,-0.00000142,0.00000653,-0.00000232,0.00000256,-0.0000
 0496,-0.00000052,-0.00000041,0.00000137,0.00000174,-0.00000102,-0.0000
 0071,-0.00000022,0.00000018,0.00000079,-0.00000049,-0.00008947,-0.0000
 5949,0.00002308,-0.00000670,0.00002181,-0.00000761,0.00001135,-0.00001
 146,0.00000814,-0.03474079,-0.01491014,0.07536133,0.08523849,0.1146645
 8,-0.00047892,-0.00175492,0.00074801,0.00018193,-0.00010593,-0.0000911
 6,0.00109208,0.00074111,-0.00149232,-0.00022602,-0.00026811,0.00112280
 ,-0.00186212,-0.00035100,0.00076982,0.00092958,0.00055319,-0.00047476,
 -0.00171113,0.00244178,-0.00158637,0.00039893,-0.00161510,0.00014249,0
 .00562936,0.00708731,-0.03898805,0.00109906,-0.00168282,-0.00014067,0.
 00003215,-0.00032998,0.00037724,0.00450021,-0.00531315,-0.00126881,-0.
 00273728,-0.00465131,-0.00550843,0.00069193,0.00414280,-0.00095837,-0.
 00010497,-0.00012888,0.00007507,-0.00222326,-0.00104170,0.00077973,0.0
 0004523,0.00018827,-0.00012973,-0.00276219,0.00420162,0.00046043,0.000
 88609,-0.00038199,-0.00112402,-0.00016509,0.00002116,0.00025219,-0.000
 17210,0.00013040,0.00009457,-0.00066830,-0.00002349,0.00042946,-0.0000
 8863,-0.00007250,-0.00000735,-0.00006877,0.00000629,0.00002767,0.00013
 673,0.00012505,0.00006022,0.00004077,-0.00001106,0.00003124,-0.0003255
 0,0.00012016,-0.00069346,0.00010818,-0.00016286,0.00034588,0.00006032,
 0.00001165,0.00002936,-0.00001873,-0.00002415,0.00000666,-0.00000622,0
 .00003062,-0.00003018,0.00002655,-0.00000881,0.00003612,-0.00000263,-0
 .00000312,0.00000723,0.00000219,0.00004802,-0.00006485,-0.00000113,-0.
 00001203,-0.00000491,-0.00006146,-0.00002861,-0.00002425,0.00000017,0.
 00000162,-0.00000195,0.00007358,0.00003434,0.00003095,-0.00000707,-0.0
 0000772,-0.00000298,0.00003177,-0.00002388,0.00006312,-0.00001368,0.00
 000680,-0.00000520,0.00000258,0.00000098,-0.00000273,0.00000535,-0.000
 00282,0.00000536,-0.00000160,-0.00000080,-0.00000184,0.00046596,-0.000
 36280,0.00017717,0.00006665,-0.00003848,-0.00002367,-0.00001780,0.0000
 2328,0.00003535,0.05129330,0.05916295,-0.03223421,-0.13953521,-0.13084
 215,0.59899243,0.00130141,0.00381149,0.00014090,-0.00067417,-0.0002981
 1,-0.00003984,-0.00192221,0.00178431,-0.00088252,-0.00036615,-0.000316
 41,0.00262937,0.00122784,-0.00072378,-0.00043761,-0.00073922,-0.000726
 21,0.00035793,0.01469263,0.00132680,0.01094663,-0.00382293,0.00180053,
 0.00213437,-0.06049514,0.02741867,0.01038785,0.00155788,-0.00102266,0.
 00003111,-0.00004288,0.00043543,-0.00109183,-0.03896386,-0.02518439,-0
 .02045643,-0.00001453,-0.00181899,0.00218194,-0.00267860,0.00526405,-0
 .00271004,0.00021746,0.00008606,-0.00012944,-0.00015000,-0.00055650,0.
 00094841,-0.00020537,0.00014672,0.00058174,0.00677774,-0.00456428,0.00
 094952,-0.00238475,0.00118698,0.00137292,0.00068990,-0.00015609,-0.000
 22411,0.00028510,-0.00023996,-0.00006882,0.00013042,-0.00008161,-0.000
 17695,-0.00000297,-0.00000163,0.00000281,0.00001514,0.00001021,0.00001
 715,-0.00003220,-0.00010362,-0.00008327,-0.00002878,0.00002686,0.00000
 087,0.00020800,0.00010462,0.00013638,-0.00015570,-0.00007812,-0.000063
 52,-0.00001864,-0.00000770,-0.00000902,0.00001332,-0.00001453,-0.00001
 129,0.00001098,-0.00001516,-0.00001242,0.00000344,-0.00002438,-0.00000
 721,-0.00000566,0.00001416,0.00001836,-0.00002272,0.00001867,-0.000050
 17,-0.00001069,0.00002010,0.00000868,-0.00004015,-0.00001014,0.0000054
 1,-0.00000805,0.00000819,0.00000595,0.00004206,0.00000136,-0.00000044,
 -0.00001684,0.00000708,0.00000639,0.00005180,-0.00003688,0.00003331,-0
 .00004508,0.00003444,0.00000510,0.00000231,-0.00000931,-0.00000695,0.0
 0000389,-0.00000224,0.00000380,0.00000452,0.00000005,-0.00000277,0.000
 22783,0.00014574,-0.00008255,0.00002202,-0.00007046,-0.00000381,-0.000
 03118,-0.00001285,-0.00000614,-0.26668821,-0.23315890,0.05068055,-0.11
 140006,-0.04789960,0.08545923,0.46348099,-0.00237974,-0.00021088,0.001
 06836,-0.00033222,0.00012079,0.00150372,-0.00064597,0.00282841,-0.0031
 5131,0.00021092,-0.00045898,0.00237947,0.00051680,-0.00099790,-0.00031
 024,-0.00045373,-0.00027766,0.00019197,0.00240272,-0.03774985,-0.02203
 739,0.00149184,0.00160893,-0.00260745,0.02313051,-0.03710102,0.0209861
 3,0.00092456,-0.00520140,0.00189443,0.00010292,0.00035844,0.00034516,-
 0.02582222,-0.00781317,0.00199766,0.00498940,0.00519399,0.01212380,-0.
 00107195,0.00730621,-0.00198680,0.00013361,0.00016977,-0.00011799,0.00
 304554,0.00014054,-0.00110271,-0.00014176,-0.00032464,0.00001205,0.001
 95011,0.00125391,-0.00088649,-0.00037788,0.00064571,0.00046114,0.00017
 063,-0.00008635,-0.00010476,0.00019016,-0.00017784,-0.00002917,-0.0000
 8015,-0.00005058,0.00000977,0.00003570,0.00003021,-0.00000121,0.000012
 86,0.00000876,0.00001262,-0.00007269,-0.00007935,-0.00004352,-0.000012
 98,0.00001535,0.00000283,0.00023813,0.00014448,-0.00001818,-0.00016508
 ,-0.00012311,0.00006743,-0.00002926,-0.00001349,-0.00001156,0.00001706
 ,-0.00000527,-0.00001810,0.00001779,-0.00000752,-0.00000841,-0.0000047
 8,-0.00002296,-0.00000986,-0.00000374,0.00001317,0.00001868,-0.0000241
 2,0.00000929,-0.00003247,-0.00000560,0.00001162,0.00000675,-0.00001753
 ,0.00000236,0.00000510,-0.00000994,0.00000620,0.00000584,0.00001125,-0
 .00001311,-0.00000603,-0.00001033,0.00000989,0.00000527,0.00003602,-0.
 00003159,0.00002908,-0.00003137,0.00002584,0.00000251,0.00000251,-0.00
 000656,-0.00000586,0.00000385,-0.00000084,0.00000262,0.00000221,-0.000
 00054,-0.00000149,0.00027003,0.00005952,-0.00001175,0.00002046,-0.0000
 7095,-0.00000420,-0.00002461,-0.00001340,-0.00002433,-0.23591071,-0.33
 187246,0.05690250,-0.04578125,-0.11486886,0.07017074,0.27348202,0.5176
 1686,-0.00289925,0.00120492,0.00109622,-0.00063367,0.00028377,0.000547
 27,-0.00033340,-0.00029763,0.00086485,0.00086544,0.00078419,-0.0019268
 0,0.00199691,0.00068822,-0.00091538,-0.00111501,-0.00056084,0.00050538
 ,0.01453200,-0.02433459,-0.00213190,0.00001040,0.00629613,-0.00249937,
 0.02546461,0.04061751,-0.03888619,-0.00259494,0.00031863,0.00107675,0.
 00022447,0.00102685,-0.00103419,-0.02436077,0.00521682,0.01177331,-0.0
 1431223,-0.01806869,-0.03290112,0.00200820,-0.00162340,-0.00291662,0.0
 0024070,0.00025560,0.00000480,0.00262351,0.00181455,-0.00127339,0.0001
 7748,-0.00015841,0.00004266,0.00633709,-0.00568661,-0.00145714,-0.0017
 2657,0.00101088,0.00225848,0.00052863,-0.00010461,-0.00050390,0.000300
 28,-0.00023309,-0.00022899,0.00106759,-0.00002642,-0.00078817,0.000125
 36,0.00010239,0.00000430,0.00009055,-0.00000489,-0.00003637,-0.0002017
 7,-0.00017860,-0.00007416,-0.00005656,0.00001611,-0.00004188,0.0005181
 3,-0.00010836,0.00087861,-0.00024134,0.00019130,-0.00043844,-0.0000862
 3,-0.00001755,-0.00003869,0.00002727,0.00003161,-0.00001347,0.00001484
 ,-0.00004090,0.00003701,-0.00003780,0.00000813,-0.00004666,0.00000346,
 0.00000545,-0.00000708,-0.00000777,-0.00006268,0.00008389,0.00000113,0
 .00001794,0.00000690,0.00007822,0.00003756,0.00003262,-0.00000124,-0.0
 0000107,0.00000289,-0.00009909,-0.00004611,-0.00004313,0.00001078,0.00
 001006,0.00000524,-0.00003742,0.00002862,-0.00007952,0.00001426,-0.000
 00756,0.00000618,-0.00000238,-0.00000128,0.00000379,-0.00000693,0.0000
 0356,-0.00000773,0.00000207,0.00000121,0.00000190,-0.00068158,0.000453
 57,-0.00010295,-0.00012146,0.00007815,0.00002808,0.00001917,-0.0000622
 5,-0.00007518,0.05207228,0.05546721,-0.14350730,0.08269206,0.07332896,
 -0.52024037,-0.14248955,-0.13767434,0.73295504\\-0.00000049,0.00000021
 ,0.00000001,0.00000021,0.00000012,-0.00000034,0.00000034,0.00000048,-0
 .00000015,-0.00000041,0.00000043,0.00000070,-0.00000046,0.00000057,0.0
 0000034,-0.00000023,0.00000089,0.00000031,0.00000032,0.00000005,0.0000
 0008,0.00000006,-0.00000057,-0.00000010,0.00000018,0.00000016,0.000001
 82,0.00000013,-0.00000093,-0.00000062,0.00000034,-0.00000040,-0.000000
 56,-0.00000118,-0.00000025,-0.00000016,-0.00000053,0.00000006,0.000000
 71,0.00000081,-0.00000119,0.00000021,0.00000024,-0.00000091,-0.0000005
 1,-0.00000044,-0.00000105,0.00000118,0.00000028,-0.00000105,0.00000028
 ,0.00000078,-0.00000120,0.00000060,0.00000018,-0.00000076,0.00000258,-
 0.00000001,-0.00000108,0.00000093,-0.00000009,-0.00000102,0.00000208,-
 0.00000008,-0.00000100,0.00000122,-0.00000008,0.00000052,-0.00000053,-
 0.00000013,0.00000080,-0.00000031,0.00000004,0.00000020,-0.00000076,0.
 00000044,0.00000013,-0.00000080,0.00000024,0.00000042,-0.00000102,0.00
 000011,-0.00000003,-0.00000089,-0.00000007,0.00000064,-0.00000038,-0.0
 0000025,0.00000073,0.00000008,0.00000003,0.00000026,-0.00000055,-0.000
 00034,0.00000087,-0.00000005,-0.00000029,0.00000124,0.00000016,0.,0.00
 000034,-0.00000060,0.00000005,-0.00000014,-0.00000093,0.,0.00000046,-0
 .00000023,-0.00000047,0.00000051,0.00000014,0.00000014,0.00000115,0.00
 000005,-0.00000027,0.00000072,0.00000001,0.00000020,-0.00000014,-0.000
 00044,0.00000042,0.00000005,-0.00000113,0.00000020,0.00000017,-0.00000
 152,0.00000046,-0.00000050,-0.00000137,0.00000021,0.00000016,-0.000001
 02,-0.00000013,0.00000076,-0.00000036,-0.00000010,0.00000107,-0.000000
 66,-0.00000019,0.00000065,-0.00000031,-0.00000043,-0.00000086,0.000000
 81,-0.00000019,-0.00000092,0.00000128,0.00000046,-0.00000084,0.0000007
 0\\\@


 LOGIC IS A SYSTEMATIC METHOD OF COMING TO THE
 WRONG CONCLUSION WITH CONFIDENCE.
 Job cpu time:       0 days  3 hours 47 minutes 25.1 seconds.
 Elapsed time:       0 days  3 hours 47 minutes 58.3 seconds.
 File lengths (MBytes):  RWF=   3730 Int=      0 D2E=      0 Chk=     61 Scr=      1
 Normal termination of Gaussian 16 at Tue Oct 29 10:13:51 2024.
