 Entering Gaussian System, Link 0=g16
 Initial command:
 /sw/cluster/pub/apps//g16/l1.exe "/data/mmaximo/25661/Gau-2355509.inp" -scrdir="/data/mmaximo/25661/"
 Entering Link 1 = /sw/cluster/pub/apps//g16/l1.exe PID=   2355510.
  
 Copyright (c) 1988,1990,1992,1993,1995,1998,2003,2009,2016,
            Gaussian, Inc.  All Rights Reserved.
  
 This is part of the Gaussian(R) 16 program.  It is based on
 the Gaussian(R) 09 system (copyright 2009, Gaussian, Inc.),
 the Gaussian(R) 03 system (copyright 2003, Gaussian, Inc.),
 the Gaussian(R) 98 system (copyright 1998, Gaussian, Inc.),
 the Gaussian(R) 94 system (copyright 1995, Gaussian, Inc.),
 the Gaussian 92(TM) system (copyright 1992, Gaussian, Inc.),
 the Gaussian 90(TM) system (copyright 1990, Gaussian, Inc.),
 the Gaussian 88(TM) system (copyright 1988, Gaussian, Inc.),
 the Gaussian 86(TM) system (copyright 1986, Carnegie Mellon
 University), and the Gaussian 82(TM) system (copyright 1983,
 Carnegie Mellon University). Gaussian is a federally registered
 trademark of Gaussian, Inc.
  
 This software contains proprietary and confidential information,
 including trade secrets, belonging to Gaussian, Inc.
  
 This software is provided under written license and may be
 used, copied, transmitted, or stored only in accord with that
 written license.
  
 The following legend is applicable only to US Government
 contracts under FAR:
  
                    RESTRICTED RIGHTS LEGEND
  
 Use, reproduction and disclosure by the US Government is
 subject to restrictions as set forth in subparagraphs (a)
 and (c) of the Commercial Computer Software - Restricted
 Rights clause in FAR 52.227-19.
  
 Gaussian, Inc.
 340 Quinnipiac St., Bldg. 40, Wallingford CT 06492
  
  
 ---------------------------------------------------------------
 Warning -- This program may not be used in any manner that
 competes with the business of Gaussian, Inc. or will provide
 assistance to any competitor of Gaussian, Inc.  The licensee
 of this program is prohibited from giving any competitor of
 Gaussian, Inc. access to this program.  By using this program,
 the user acknowledges that Gaussian, Inc. is engaged in the
 business of creating and licensing software in the field of
 computational chemistry and represents and warrants to the
 licensee that it is not a competitor of Gaussian, Inc. and that
 it will not use this program in any manner prohibited above.
 ---------------------------------------------------------------
  

 Cite this work as:
 Gaussian 16, Revision A.03,
 M. J. Frisch, G. W. Trucks, H. B. Schlegel, G. E. Scuseria, 
 M. A. Robb, J. R. Cheeseman, G. Scalmani, V. Barone, 
 G. A. Petersson, H. Nakatsuji, X. Li, M. Caricato, A. V. Marenich, 
 J. Bloino, B. G. Janesko, R. Gomperts, B. Mennucci, H. P. Hratchian, 
 J. V. Ortiz, A. F. Izmaylov, J. L. Sonnenberg, D. Williams-Young, 
 F. Ding, F. Lipparini, F. Egidi, J. Goings, B. Peng, A. Petrone, 
 T. Henderson, D. Ranasinghe, V. G. Zakrzewski, J. Gao, N. Rega, 
 G. Zheng, W. Liang, M. Hada, M. Ehara, K. Toyota, R. Fukuda, 
 J. Hasegawa, M. Ishida, T. Nakajima, Y. Honda, O. Kitao, H. Nakai, 
 T. Vreven, K. Throssell, J. A. Montgomery, Jr., J. E. Peralta, 
 F. Ogliaro, M. J. Bearpark, J. J. Heyd, E. N. Brothers, K. N. Kudin, 
 V. N. Staroverov, T. A. Keith, R. Kobayashi, J. Normand, 
 K. Raghavachari, A. P. Rendell, J. C. Burant, S. S. Iyengar, 
 J. Tomasi, M. Cossi, J. M. Millam, M. Klene, C. Adamo, R. Cammi, 
 J. W. Ochterski, R. L. Martin, K. Morokuma, O. Farkas, 
 J. B. Foresman, and D. J. Fox, Gaussian, Inc., Wallingford CT, 2016.
 
 ******************************************
 Gaussian 16:  ES64L-G16RevA.03 25-Dec-2016
                25-Nov-2024 
 ******************************************
 %chk=CURCUMIN-OPT-FREQ-Reag-B3LYP-6-311+G-D-298.chk
 ----------------------------------------------------------------------
 # opt=(calcfc) freq=noraman b3lyp/6-311+g(d) scrf=(smd,solvent=generic
 ,read) temperature=298.15 SCF=(MaxCycle=500)
 ----------------------------------------------------------------------
 1/10=4,18=20,19=15,26=3,38=1,40=2,112=298150/1,3;
 2/9=110,12=2,17=6,18=5,40=1/2;
 3/5=4,6=6,7=11,11=2,25=1,30=1,70=32203,71=2,72=-2,74=-5,140=1/1,2,3;
 4//1;
 5/5=2,7=500,38=5/2;
 8/6=4,10=90,11=11/1;
 11/6=1,8=1,9=11,15=111,16=1/1,2,10;
 10/6=1,13=1/2;
 6/7=2,8=2,9=2,10=2,28=1/1;
 7/10=1,18=20,25=1/1,2,3,16;
 1/10=4,18=20,19=15,26=3/3(2);
 2/9=110/2;
 99//99;
 2/9=110/2;
 3/5=4,6=6,7=11,11=2,25=1,30=1,70=32205,71=1,72=-2,74=-5/1,2,3;
 4/5=5,16=3,69=1/1;
 5/5=2,7=500,38=5/2;
 7//1,2,3,16;
 1/18=20,19=15,26=3/3(-5);
 2/9=110/2;
 6/7=2,8=2,9=2,10=2,19=2,28=1/1;
 99/9=1/99;
 ---
 XXX
 ---
 Symbolic Z-matrix:
 Charge =  0 Multiplicity = 2
 C                    -2.75163   0.25606  -0.31256 
 H                    -2.34134   0.67513  -1.22823 
 C                    -1.99828   0.29842   0.80551 
 H                    -2.36468  -0.09134   1.75099 
 C                    -0.64395   0.8619    0.89769 
 O                    -0.06041   0.88735   1.97146 
 C                    -4.09393  -0.29382  -0.45735 
 C                    -4.73016  -0.20751  -1.70536 
 C                    -4.79089  -0.92173   0.59389 
 C                    -6.01094  -0.71145  -1.89517 
 H                    -4.2179    0.26762  -2.53569 
 C                    -6.06701  -1.42918   0.41989 
 H                    -4.35005  -1.01921   1.57953 
 C                    -6.69403  -1.31893  -0.84156 
 H                    -6.49382  -0.62467  -2.86491 
 O                    -7.95473  -1.80672  -0.96221 
 H                    -8.27358  -1.66812  -1.86524 
 O                    -6.72311  -1.97209   1.49262 
 C                    -6.94453  -3.38998   1.43455 
 H                    -5.99345  -3.92558   1.34812 
 H                    -7.42535  -3.65879   2.37468 
 H                    -7.59748  -3.6599    0.60258 
 C                     2.69831  -0.00374  -0.18498 
 H                     1.79246  -0.57805  -0.36315 
 C                     2.59408   1.33235  -0.0305 
 H                     3.46827   1.94796   0.16107 
 C                     1.34582   2.09857  -0.08687 
 O                     1.36892   3.31277   0.08208 
 C                     3.91252  -0.8088   -0.13937 
 C                     3.81516  -2.19482  -0.3384 
 C                     5.19313  -0.26582   0.08483 
 C                     4.94238  -3.00637  -0.30506 
 H                     2.84295  -2.6433   -0.5157 
 C                     6.32496  -1.06167   0.12327 
 H                     5.33034   0.79686   0.24858 
 C                     6.20215  -2.45606  -0.06848 
 H                     4.84811  -4.0789   -0.45268 
 O                     7.3329   -3.20354   0.00246 
 H                     7.11712  -4.13604  -0.13948 
 O                     7.53527  -0.48905   0.41232 
 C                     8.48497  -0.46287  -0.66454 
 H                     8.07863   0.07982  -1.52439 
 H                     9.35778   0.06692  -0.28389 
 H                     8.77537  -1.47051  -0.96749 
 C                     0.01859   1.4061   -0.37251 
 H                     0.1303    0.59051  -1.09246 
 H                    -0.64062   2.1451   -0.83242 
 O                    -1.3567    4.80617  -0.82251 
 O                    -0.2857    5.93241   0.72862 
 N                    -0.81926   4.98889   0.23143 
 
 Add virtual bond connecting atoms O48        and H47        Dist= 5.21D+00.
 Add virtual bond connecting atoms N50        and O28        Dist= 5.22D+00.

 GradGradGradGradGradGradGradGradGradGradGradGradGradGradGradGradGradGrad
 Berny optimization.
 Initialization pass.
                           ----------------------------
                           !    Initial Parameters    !
                           ! (Angstroms and Degrees)  !
 --------------------------                            --------------------------
 ! Name  Definition              Value          Derivative Info.                !
 --------------------------------------------------------------------------------
 ! R1    R(1,2)                  1.0874         calculate D2E/DX2 analytically  !
 ! R2    R(1,3)                  1.3489         calculate D2E/DX2 analytically  !
 ! R3    R(1,7)                  1.4578         calculate D2E/DX2 analytically  !
 ! R4    R(3,4)                  1.0863         calculate D2E/DX2 analytically  !
 ! R5    R(3,5)                  1.4698         calculate D2E/DX2 analytically  !
 ! R6    R(5,6)                  1.2224         calculate D2E/DX2 analytically  !
 ! R7    R(5,45)                 1.5325         calculate D2E/DX2 analytically  !
 ! R8    R(7,8)                  1.4035         calculate D2E/DX2 analytically  !
 ! R9    R(7,9)                  1.4089         calculate D2E/DX2 analytically  !
 ! R10   R(8,10)                 1.3894         calculate D2E/DX2 analytically  !
 ! R11   R(8,11)                 1.0852         calculate D2E/DX2 analytically  !
 ! R12   R(9,12)                 1.3843         calculate D2E/DX2 analytically  !
 ! R13   R(9,13)                 1.0841         calculate D2E/DX2 analytically  !
 ! R14   R(10,14)                1.3949         calculate D2E/DX2 analytically  !
 ! R15   R(10,15)                1.0868         calculate D2E/DX2 analytically  !
 ! R16   R(12,14)                1.413          calculate D2E/DX2 analytically  !
 ! R17   R(12,18)                1.3697         calculate D2E/DX2 analytically  !
 ! R18   R(14,16)                1.3572         calculate D2E/DX2 analytically  !
 ! R19   R(16,17)                0.9676         calculate D2E/DX2 analytically  !
 ! R20   R(18,19)                1.4362         calculate D2E/DX2 analytically  !
 ! R21   R(19,20)                1.0949         calculate D2E/DX2 analytically  !
 ! R22   R(19,21)                1.0896         calculate D2E/DX2 analytically  !
 ! R23   R(19,22)                1.0915         calculate D2E/DX2 analytically  !
 ! R24   R(23,24)                1.0873         calculate D2E/DX2 analytically  !
 ! R25   R(23,25)                1.349          calculate D2E/DX2 analytically  !
 ! R26   R(23,29)                1.4576         calculate D2E/DX2 analytically  !
 ! R27   R(25,26)                1.0862         calculate D2E/DX2 analytically  !
 ! R28   R(25,27)                1.4658         calculate D2E/DX2 analytically  !
 ! R29   R(27,28)                1.2261         calculate D2E/DX2 analytically  !
 ! R30   R(27,45)                1.524          calculate D2E/DX2 analytically  !
 ! R31   R(28,50)                2.7604         calculate D2E/DX2 analytically  !
 ! R32   R(29,30)                1.4036         calculate D2E/DX2 analytically  !
 ! R33   R(29,31)                1.4089         calculate D2E/DX2 analytically  !
 ! R34   R(30,32)                1.3894         calculate D2E/DX2 analytically  !
 ! R35   R(30,33)                1.0852         calculate D2E/DX2 analytically  !
 ! R36   R(31,34)                1.3842         calculate D2E/DX2 analytically  !
 ! R37   R(31,35)                1.0839         calculate D2E/DX2 analytically  !
 ! R38   R(32,36)                1.3949         calculate D2E/DX2 analytically  !
 ! R39   R(32,37)                1.0867         calculate D2E/DX2 analytically  !
 ! R40   R(34,36)                1.4129         calculate D2E/DX2 analytically  !
 ! R41   R(34,40)                1.3698         calculate D2E/DX2 analytically  !
 ! R42   R(36,38)                1.3573         calculate D2E/DX2 analytically  !
 ! R43   R(38,39)                0.9676         calculate D2E/DX2 analytically  !
 ! R44   R(40,41)                1.4361         calculate D2E/DX2 analytically  !
 ! R45   R(41,42)                1.095          calculate D2E/DX2 analytically  !
 ! R46   R(41,43)                1.0897         calculate D2E/DX2 analytically  !
 ! R47   R(41,44)                1.0915         calculate D2E/DX2 analytically  !
 ! R48   R(45,46)                1.0936         calculate D2E/DX2 analytically  !
 ! R49   R(45,47)                1.0919         calculate D2E/DX2 analytically  !
 ! R50   R(47,48)                2.7558         calculate D2E/DX2 analytically  !
 ! R51   R(48,50)                1.1971         calculate D2E/DX2 analytically  !
 ! R52   R(49,50)                1.1925         calculate D2E/DX2 analytically  !
 ! A1    A(2,1,3)              118.3702         calculate D2E/DX2 analytically  !
 ! A2    A(2,1,7)              114.1523         calculate D2E/DX2 analytically  !
 ! A3    A(3,1,7)              127.4771         calculate D2E/DX2 analytically  !
 ! A4    A(1,3,4)              121.4525         calculate D2E/DX2 analytically  !
 ! A5    A(1,3,5)              125.3571         calculate D2E/DX2 analytically  !
 ! A6    A(4,3,5)              113.1887         calculate D2E/DX2 analytically  !
 ! A7    A(3,5,6)              120.1968         calculate D2E/DX2 analytically  !
 ! A8    A(3,5,45)             118.8509         calculate D2E/DX2 analytically  !
 ! A9    A(6,5,45)             120.9516         calculate D2E/DX2 analytically  !
 ! A10   A(1,7,8)              118.8512         calculate D2E/DX2 analytically  !
 ! A11   A(1,7,9)              123.3315         calculate D2E/DX2 analytically  !
 ! A12   A(8,7,9)              117.8156         calculate D2E/DX2 analytically  !
 ! A13   A(7,8,10)             121.1355         calculate D2E/DX2 analytically  !
 ! A14   A(7,8,11)             119.5596         calculate D2E/DX2 analytically  !
 ! A15   A(10,8,11)            119.3031         calculate D2E/DX2 analytically  !
 ! A16   A(7,9,12)             121.7085         calculate D2E/DX2 analytically  !
 ! A17   A(7,9,13)             121.1488         calculate D2E/DX2 analytically  !
 ! A18   A(12,9,13)            117.1404         calculate D2E/DX2 analytically  !
 ! A19   A(8,10,14)            120.411          calculate D2E/DX2 analytically  !
 ! A20   A(8,10,15)            120.1675         calculate D2E/DX2 analytically  !
 ! A21   A(14,10,15)           119.4177         calculate D2E/DX2 analytically  !
 ! A22   A(9,12,14)            119.5174         calculate D2E/DX2 analytically  !
 ! A23   A(9,12,18)            119.2388         calculate D2E/DX2 analytically  !
 ! A24   A(14,12,18)           121.1692         calculate D2E/DX2 analytically  !
 ! A25   A(10,14,12)           119.4058         calculate D2E/DX2 analytically  !
 ! A26   A(10,14,16)           122.9757         calculate D2E/DX2 analytically  !
 ! A27   A(12,14,16)           117.6154         calculate D2E/DX2 analytically  !
 ! A28   A(14,16,17)           109.7292         calculate D2E/DX2 analytically  !
 ! A29   A(12,18,19)           115.6898         calculate D2E/DX2 analytically  !
 ! A30   A(18,19,20)           110.6212         calculate D2E/DX2 analytically  !
 ! A31   A(18,19,21)           106.0627         calculate D2E/DX2 analytically  !
 ! A32   A(18,19,22)           111.5414         calculate D2E/DX2 analytically  !
 ! A33   A(20,19,21)           109.3127         calculate D2E/DX2 analytically  !
 ! A34   A(20,19,22)           109.7845         calculate D2E/DX2 analytically  !
 ! A35   A(21,19,22)           109.4307         calculate D2E/DX2 analytically  !
 ! A36   A(24,23,25)           118.5252         calculate D2E/DX2 analytically  !
 ! A37   A(24,23,29)           114.0429         calculate D2E/DX2 analytically  !
 ! A38   A(25,23,29)           127.4317         calculate D2E/DX2 analytically  !
 ! A39   A(23,25,26)           121.2869         calculate D2E/DX2 analytically  !
 ! A40   A(23,25,27)           125.3896         calculate D2E/DX2 analytically  !
 ! A41   A(26,25,27)           113.322          calculate D2E/DX2 analytically  !
 ! A42   A(25,27,28)           119.7572         calculate D2E/DX2 analytically  !
 ! A43   A(25,27,45)           120.753          calculate D2E/DX2 analytically  !
 ! A44   A(28,27,45)           119.4845         calculate D2E/DX2 analytically  !
 ! A45   A(27,28,50)           126.4287         calculate D2E/DX2 analytically  !
 ! A46   A(23,29,30)           118.8937         calculate D2E/DX2 analytically  !
 ! A47   A(23,29,31)           123.3184         calculate D2E/DX2 analytically  !
 ! A48   A(30,29,31)           117.7857         calculate D2E/DX2 analytically  !
 ! A49   A(29,30,32)           121.1387         calculate D2E/DX2 analytically  !
 ! A50   A(29,30,33)           119.5627         calculate D2E/DX2 analytically  !
 ! A51   A(32,30,33)           119.2976         calculate D2E/DX2 analytically  !
 ! A52   A(29,31,34)           121.7402         calculate D2E/DX2 analytically  !
 ! A53   A(29,31,35)           121.1261         calculate D2E/DX2 analytically  !
 ! A54   A(34,31,35)           117.1286         calculate D2E/DX2 analytically  !
 ! A55   A(30,32,36)           120.4202         calculate D2E/DX2 analytically  !
 ! A56   A(30,32,37)           120.188          calculate D2E/DX2 analytically  !
 ! A57   A(36,32,37)           119.3884         calculate D2E/DX2 analytically  !
 ! A58   A(31,34,36)           119.5121         calculate D2E/DX2 analytically  !
 ! A59   A(31,34,40)           119.2097         calculate D2E/DX2 analytically  !
 ! A60   A(36,34,40)           121.1993         calculate D2E/DX2 analytically  !
 ! A61   A(32,36,34)           119.3977         calculate D2E/DX2 analytically  !
 ! A62   A(32,36,38)           122.9535         calculate D2E/DX2 analytically  !
 ! A63   A(34,36,38)           117.645          calculate D2E/DX2 analytically  !
 ! A64   A(36,38,39)           109.7108         calculate D2E/DX2 analytically  !
 ! A65   A(34,40,41)           115.7038         calculate D2E/DX2 analytically  !
 ! A66   A(40,41,42)           110.6388         calculate D2E/DX2 analytically  !
 ! A67   A(40,41,43)           106.059          calculate D2E/DX2 analytically  !
 ! A68   A(40,41,44)           111.5455         calculate D2E/DX2 analytically  !
 ! A69   A(42,41,43)           109.3047         calculate D2E/DX2 analytically  !
 ! A70   A(42,41,44)           109.7738         calculate D2E/DX2 analytically  !
 ! A71   A(43,41,44)           109.4315         calculate D2E/DX2 analytically  !
 ! A72   A(5,45,27)            112.4891         calculate D2E/DX2 analytically  !
 ! A73   A(5,45,46)            108.9643         calculate D2E/DX2 analytically  !
 ! A74   A(5,45,47)            109.1746         calculate D2E/DX2 analytically  !
 ! A75   A(27,45,46)           111.9184         calculate D2E/DX2 analytically  !
 ! A76   A(27,45,47)           107.2896         calculate D2E/DX2 analytically  !
 ! A77   A(46,45,47)           106.8059         calculate D2E/DX2 analytically  !
 ! A78   A(45,47,48)           143.9914         calculate D2E/DX2 analytically  !
 ! A79   A(47,48,50)            91.9426         calculate D2E/DX2 analytically  !
 ! A80   A(28,50,48)           102.4492         calculate D2E/DX2 analytically  !
 ! A81   A(28,50,49)            98.5285         calculate D2E/DX2 analytically  !
 ! A82   A(48,50,49)           133.5277         calculate D2E/DX2 analytically  !
 ! D1    D(2,1,3,4)            179.0279         calculate D2E/DX2 analytically  !
 ! D2    D(2,1,3,5)             -0.4599         calculate D2E/DX2 analytically  !
 ! D3    D(7,1,3,4)             -0.7327         calculate D2E/DX2 analytically  !
 ! D4    D(7,1,3,5)            179.7795         calculate D2E/DX2 analytically  !
 ! D5    D(2,1,7,8)             -1.6017         calculate D2E/DX2 analytically  !
 ! D6    D(2,1,7,9)            177.9239         calculate D2E/DX2 analytically  !
 ! D7    D(3,1,7,8)            178.1674         calculate D2E/DX2 analytically  !
 ! D8    D(3,1,7,9)             -2.3069         calculate D2E/DX2 analytically  !
 ! D9    D(1,3,5,6)            177.7983         calculate D2E/DX2 analytically  !
 ! D10   D(1,3,5,45)            -2.5059         calculate D2E/DX2 analytically  !
 ! D11   D(4,3,5,6)             -1.7263         calculate D2E/DX2 analytically  !
 ! D12   D(4,3,5,45)           177.9694         calculate D2E/DX2 analytically  !
 ! D13   D(3,5,45,27)          173.3668         calculate D2E/DX2 analytically  !
 ! D14   D(3,5,45,46)          -61.9208         calculate D2E/DX2 analytically  !
 ! D15   D(3,5,45,47)           54.3859         calculate D2E/DX2 analytically  !
 ! D16   D(6,5,45,27)           -6.9398         calculate D2E/DX2 analytically  !
 ! D17   D(6,5,45,46)          117.7726         calculate D2E/DX2 analytically  !
 ! D18   D(6,5,45,47)         -125.9207         calculate D2E/DX2 analytically  !
 ! D19   D(1,7,8,10)          -179.7641         calculate D2E/DX2 analytically  !
 ! D20   D(1,7,8,11)            -0.2554         calculate D2E/DX2 analytically  !
 ! D21   D(9,7,8,10)             0.684          calculate D2E/DX2 analytically  !
 ! D22   D(9,7,8,11)          -179.8073         calculate D2E/DX2 analytically  !
 ! D23   D(1,7,9,12)           179.817          calculate D2E/DX2 analytically  !
 ! D24   D(1,7,9,13)             0.3851         calculate D2E/DX2 analytically  !
 ! D25   D(8,7,9,12)            -0.6528         calculate D2E/DX2 analytically  !
 ! D26   D(8,7,9,13)           179.9153         calculate D2E/DX2 analytically  !
 ! D27   D(7,8,10,14)           -0.0733         calculate D2E/DX2 analytically  !
 ! D28   D(7,8,10,15)          179.2065         calculate D2E/DX2 analytically  !
 ! D29   D(11,8,10,14)        -179.5833         calculate D2E/DX2 analytically  !
 ! D30   D(11,8,10,15)          -0.3034         calculate D2E/DX2 analytically  !
 ! D31   D(7,9,12,14)            0.0108         calculate D2E/DX2 analytically  !
 ! D32   D(7,9,12,18)         -176.8869         calculate D2E/DX2 analytically  !
 ! D33   D(13,9,12,14)         179.4644         calculate D2E/DX2 analytically  !
 ! D34   D(13,9,12,18)           2.5667         calculate D2E/DX2 analytically  !
 ! D35   D(8,10,14,12)          -0.5864         calculate D2E/DX2 analytically  !
 ! D36   D(8,10,14,16)         178.768          calculate D2E/DX2 analytically  !
 ! D37   D(15,10,14,12)       -179.8717         calculate D2E/DX2 analytically  !
 ! D38   D(15,10,14,16)         -0.5172         calculate D2E/DX2 analytically  !
 ! D39   D(9,12,14,10)           0.6155         calculate D2E/DX2 analytically  !
 ! D40   D(9,12,14,16)        -178.7734         calculate D2E/DX2 analytically  !
 ! D41   D(18,12,14,10)        177.4516         calculate D2E/DX2 analytically  !
 ! D42   D(18,12,14,16)         -1.9372         calculate D2E/DX2 analytically  !
 ! D43   D(9,12,18,19)        -112.2188         calculate D2E/DX2 analytically  !
 ! D44   D(14,12,18,19)         70.9364         calculate D2E/DX2 analytically  !
 ! D45   D(10,14,16,17)          0.3141         calculate D2E/DX2 analytically  !
 ! D46   D(12,14,16,17)        179.6794         calculate D2E/DX2 analytically  !
 ! D47   D(12,18,19,20)         58.8177         calculate D2E/DX2 analytically  !
 ! D48   D(12,18,19,21)        177.2466         calculate D2E/DX2 analytically  !
 ! D49   D(12,18,19,22)        -63.686          calculate D2E/DX2 analytically  !
 ! D50   D(24,23,25,26)        179.2719         calculate D2E/DX2 analytically  !
 ! D51   D(24,23,25,27)         -0.2472         calculate D2E/DX2 analytically  !
 ! D52   D(29,23,25,26)         -0.5661         calculate D2E/DX2 analytically  !
 ! D53   D(29,23,25,27)        179.9148         calculate D2E/DX2 analytically  !
 ! D54   D(24,23,29,30)          0.8002         calculate D2E/DX2 analytically  !
 ! D55   D(24,23,29,31)       -179.7452         calculate D2E/DX2 analytically  !
 ! D56   D(25,23,29,30)       -179.3557         calculate D2E/DX2 analytically  !
 ! D57   D(25,23,29,31)          0.0989         calculate D2E/DX2 analytically  !
 ! D58   D(23,25,27,28)        179.2475         calculate D2E/DX2 analytically  !
 ! D59   D(23,25,27,45)         -1.5991         calculate D2E/DX2 analytically  !
 ! D60   D(26,25,27,28)         -0.305          calculate D2E/DX2 analytically  !
 ! D61   D(26,25,27,45)        178.8484         calculate D2E/DX2 analytically  !
 ! D62   D(25,27,28,50)       -174.8552         calculate D2E/DX2 analytically  !
 ! D63   D(45,27,28,50)          5.9806         calculate D2E/DX2 analytically  !
 ! D64   D(25,27,45,5)          86.7569         calculate D2E/DX2 analytically  !
 ! D65   D(25,27,45,46)        -36.3162         calculate D2E/DX2 analytically  !
 ! D66   D(25,27,45,47)       -153.1659         calculate D2E/DX2 analytically  !
 ! D67   D(28,27,45,5)         -94.0874         calculate D2E/DX2 analytically  !
 ! D68   D(28,27,45,46)        142.8395         calculate D2E/DX2 analytically  !
 ! D69   D(28,27,45,47)         25.9898         calculate D2E/DX2 analytically  !
 ! D70   D(27,28,50,48)        -58.6347         calculate D2E/DX2 analytically  !
 ! D71   D(27,28,50,49)        163.0961         calculate D2E/DX2 analytically  !
 ! D72   D(23,29,30,32)        179.9829         calculate D2E/DX2 analytically  !
 ! D73   D(23,29,30,33)         -0.3846         calculate D2E/DX2 analytically  !
 ! D74   D(31,29,30,32)          0.4981         calculate D2E/DX2 analytically  !
 ! D75   D(31,29,30,33)       -179.8695         calculate D2E/DX2 analytically  !
 ! D76   D(23,29,31,34)        179.92           calculate D2E/DX2 analytically  !
 ! D77   D(23,29,31,35)          0.77           calculate D2E/DX2 analytically  !
 ! D78   D(30,29,31,34)         -0.6197         calculate D2E/DX2 analytically  !
 ! D79   D(30,29,31,35)       -179.7698         calculate D2E/DX2 analytically  !
 ! D80   D(29,30,32,36)          0.141          calculate D2E/DX2 analytically  !
 ! D81   D(29,30,32,37)        179.4728         calculate D2E/DX2 analytically  !
 ! D82   D(33,30,32,36)       -179.4924         calculate D2E/DX2 analytically  !
 ! D83   D(33,30,32,37)         -0.1606         calculate D2E/DX2 analytically  !
 ! D84   D(29,31,34,36)          0.1011         calculate D2E/DX2 analytically  !
 ! D85   D(29,31,34,40)       -176.7072         calculate D2E/DX2 analytically  !
 ! D86   D(35,31,34,36)        179.2836         calculate D2E/DX2 analytically  !
 ! D87   D(35,31,34,40)          2.4753         calculate D2E/DX2 analytically  !
 ! D88   D(30,32,36,34)         -0.6722         calculate D2E/DX2 analytically  !
 ! D89   D(30,32,36,38)        178.5964         calculate D2E/DX2 analytically  !
 ! D90   D(37,32,36,34)        179.9907         calculate D2E/DX2 analytically  !
 ! D91   D(37,32,36,38)         -0.7407         calculate D2E/DX2 analytically  !
 ! D92   D(31,34,36,32)          0.551          calculate D2E/DX2 analytically  !
 ! D93   D(31,34,36,38)       -178.7561         calculate D2E/DX2 analytically  !
 ! D94   D(40,34,36,32)        177.294          calculate D2E/DX2 analytically  !
 ! D95   D(40,34,36,38)         -2.0131         calculate D2E/DX2 analytically  !
 ! D96   D(31,34,40,41)       -112.2507         calculate D2E/DX2 analytically  !
 ! D97   D(36,34,40,41)         70.9967         calculate D2E/DX2 analytically  !
 ! D98   D(32,36,38,39)          0.3674         calculate D2E/DX2 analytically  !
 ! D99   D(34,36,38,39)        179.648          calculate D2E/DX2 analytically  !
 ! D100  D(34,40,41,42)         58.6031         calculate D2E/DX2 analytically  !
 ! D101  D(34,40,41,43)        177.0296         calculate D2E/DX2 analytically  !
 ! D102  D(34,40,41,44)        -63.9022         calculate D2E/DX2 analytically  !
 ! D103  D(5,45,47,48)          86.0653         calculate D2E/DX2 analytically  !
 ! D104  D(27,45,47,48)        -36.1011         calculate D2E/DX2 analytically  !
 ! D105  D(46,45,47,48)       -156.2604         calculate D2E/DX2 analytically  !
 ! D106  D(45,47,48,50)        -15.5692         calculate D2E/DX2 analytically  !
 ! D107  D(47,48,50,28)         34.9598         calculate D2E/DX2 analytically  !
 ! D108  D(47,48,50,49)        149.7417         calculate D2E/DX2 analytically  !
 --------------------------------------------------------------------------------
 Trust Radius=3.00D-01 FncErr=1.00D-07 GrdErr=1.00D-06 EigMax=2.50D+02 EigMin=1.00D-04
 Number of steps in this run=    252 maximum allowed number of steps=    300.
 GradGradGradGradGradGradGradGradGradGradGradGradGradGradGradGradGradGrad

                          Input orientation:                          
 ---------------------------------------------------------------------
 Center     Atomic      Atomic             Coordinates (Angstroms)
 Number     Number       Type             X           Y           Z
 ---------------------------------------------------------------------
      1          6           0       -2.751630    0.256060   -0.312560
      2          1           0       -2.341340    0.675130   -1.228230
      3          6           0       -1.998280    0.298420    0.805510
      4          1           0       -2.364680   -0.091340    1.750990
      5          6           0       -0.643950    0.861900    0.897690
      6          8           0       -0.060410    0.887350    1.971460
      7          6           0       -4.093930   -0.293820   -0.457350
      8          6           0       -4.730160   -0.207510   -1.705360
      9          6           0       -4.790890   -0.921730    0.593890
     10          6           0       -6.010940   -0.711450   -1.895170
     11          1           0       -4.217900    0.267620   -2.535690
     12          6           0       -6.067010   -1.429180    0.419890
     13          1           0       -4.350050   -1.019210    1.579530
     14          6           0       -6.694030   -1.318930   -0.841560
     15          1           0       -6.493820   -0.624670   -2.864910
     16          8           0       -7.954730   -1.806720   -0.962210
     17          1           0       -8.273580   -1.668120   -1.865240
     18          8           0       -6.723110   -1.972090    1.492620
     19          6           0       -6.944530   -3.389980    1.434550
     20          1           0       -5.993450   -3.925580    1.348120
     21          1           0       -7.425350   -3.658790    2.374680
     22          1           0       -7.597480   -3.659900    0.602580
     23          6           0        2.698310   -0.003740   -0.184980
     24          1           0        1.792460   -0.578050   -0.363150
     25          6           0        2.594080    1.332350   -0.030500
     26          1           0        3.468270    1.947960    0.161070
     27          6           0        1.345820    2.098570   -0.086870
     28          8           0        1.368920    3.312770    0.082080
     29          6           0        3.912520   -0.808800   -0.139370
     30          6           0        3.815160   -2.194820   -0.338400
     31          6           0        5.193130   -0.265820    0.084830
     32          6           0        4.942380   -3.006370   -0.305060
     33          1           0        2.842950   -2.643300   -0.515700
     34          6           0        6.324960   -1.061670    0.123270
     35          1           0        5.330340    0.796860    0.248580
     36          6           0        6.202150   -2.456060   -0.068480
     37          1           0        4.848110   -4.078900   -0.452680
     38          8           0        7.332900   -3.203540    0.002460
     39          1           0        7.117120   -4.136040   -0.139480
     40          8           0        7.535270   -0.489050    0.412320
     41          6           0        8.484970   -0.462870   -0.664540
     42          1           0        8.078630    0.079820   -1.524390
     43          1           0        9.357780    0.066920   -0.283890
     44          1           0        8.775370   -1.470510   -0.967490
     45          6           0        0.018590    1.406100   -0.372510
     46          1           0        0.130300    0.590510   -1.092460
     47          1           0       -0.640620    2.145100   -0.832420
     48          8           0       -1.356700    4.806170   -0.822510
     49          8           0       -0.285700    5.932410    0.728620
     50          7           0       -0.819260    4.988890    0.231430
 ---------------------------------------------------------------------
                    Distance matrix (angstroms):
                    1          2          3          4          5
     1  C    0.000000
     2  H    1.087386   0.000000
     3  C    1.348855   2.096592   0.000000
     4  H    2.128064   3.076325   1.086321   0.000000
     5  C    2.504808   2.726821   1.469768   2.144225   0.000000
     6  O    3.585797   3.935187   2.337011   2.513186   1.222354
     7  C    1.457773   2.145855   2.517402   2.812129   3.882549
     8  C    2.463609   2.590978   3.744810   4.189910   4.961514
     9  C    2.523375   3.445342   3.054868   2.813347   4.524460
    10  C    3.750178   3.979118   4.941149   5.193672   6.251406
    11  H    2.663154   2.323143   4.011394   4.683898   4.991431
    12  C    3.790549   4.585307   4.437101   4.155585   5.906515
    13  H    2.785905   3.845676   2.804653   2.198189   4.211729
    14  C    4.278195   4.803301   5.232469   5.193415   6.662168
    15  H    4.614560   4.648795   5.876560   6.216170   7.112526
    16  O    5.634657   6.143329   6.560163   6.446134   8.001766
    17  H    6.050224   6.409998   7.097857   7.104819   8.499767
    18  O    4.898569   5.797474   5.286904   4.753934   6.733619
    19  C    5.824638   6.693644   6.202046   5.652980   7.619974
    20  H    5.545572   6.414204   5.839348   5.294495   7.193052
    21  H    6.662655   7.590190   6.897456   6.223027   8.282845
    22  H    6.297181   7.054882   6.860067   6.437054   8.299720
    23  C    5.457620   5.191080   4.809400   5.421210   3.618316
    24  H    4.620287   4.405352   4.062472   4.689167   3.098268
    25  C    5.460272   5.121022   4.780972   5.458013   3.401132
    26  H    6.463281   6.107522   5.746256   6.380431   4.316537
    27  C    4.498319   4.113883   3.901267   4.684148   2.541239
    28  O    5.145692   4.737097   4.576865   5.320996   3.274695
    29  C    6.750912   6.519082   6.087388   6.594805   4.962676
    30  C    7.009295   6.850613   6.428130   6.854240   5.545730
    31  C    7.971793   7.705696   7.249422   7.741255   6.000333
    32  C    8.357110   8.213298   7.767095   8.131289   6.900522
    33  H    6.304513   6.196494   5.816943   6.226539   5.142234
    34  C    9.182094   8.941352   8.461183   8.893866   7.270870
    35  H    8.119457   7.813479   7.366633   7.890467   6.009802
    36  C    9.358704   9.172818   8.694715   9.071546   7.668861
    37  H    8.750289   8.653928   8.222957   8.531186   7.509842
    38  O   10.666106  10.495218   9.998977  10.333741   8.997743
    39  H   10.803366  10.667483  10.180764  10.480363   9.289205
    40  O   10.339292  10.079392   9.574094   9.997961   8.304233
    41  C   11.265076  10.900540  10.613159  11.121498   9.355894
    42  H   10.899272  10.441163  10.345063  10.946238   9.086337
    43  H   12.110921  11.752919  11.410543  11.898817  10.102610
    44  H   11.673976  11.324884  11.060930  11.549587   9.881428
    45  C    3.000051   2.614545   2.585044   3.525841   1.532488
    46  H    3.004267   2.476812   2.866786   3.843833   2.152629
    47  H    2.880120   2.282526   2.817141   3.827278   2.154041
    48  O    4.786374   4.266101   4.835482   5.623569   4.361693
    49  O    6.275812   5.974438   5.889031   6.453911   5.085961
    50  N    5.140978   4.801652   4.870335   5.523235   4.184099
                    6          7          8          9         10
     6  O    0.000000
     7  C    4.854232   0.000000
     8  C    6.043533   1.403484   0.000000
     9  C    5.248610   1.408946   2.408391   0.000000
    10  C    7.274324   2.432420   1.389381   2.779957   0.000000
    11  H    6.163050   2.156405   1.085176   3.396637   2.140990
    12  C    6.622154   2.439598   2.792191   1.384292   2.424414
    13  H    4.710583   2.177308   3.404973   1.084126   3.863523
    14  C    7.535627   2.821168   2.416235   2.416656   1.394897
    15  H    8.189349   3.415447   2.151529   3.866719   1.086784
    16  O    8.842212   4.177263   3.675268   3.635181   2.418336
    17  H    9.418432   4.619559   3.835983   4.328227   2.456757
    18  O    7.266172   3.678527   4.160849   2.375804   3.684226
    19  C    8.122495   4.614262   4.989046   3.381883   4.374145
    20  H    7.665103   4.478569   4.974303   3.322368   4.566166
    21  H    8.664428   5.517407   5.985157   4.195604   5.377638
    22  H    8.908352   4.972807   5.046495   3.921046   4.177227
    23  C    3.613144   6.803885   7.585199   7.585345   8.903743
    24  H    3.321284   5.894001   6.669588   6.661422   7.953486
    25  C    3.354428   6.896094   7.669473   7.746517   9.038832
    26  H    4.105361   7.911693   8.680084   8.754209  10.057634
    27  C    2.771508   5.954130   6.697391   6.873489   8.080104
    28  O    3.390487   6.568197   7.265404   7.492409   8.635172
    29  C    4.807983   8.029294   8.803965   8.734974  10.078064
    30  C    5.463997   8.135211   8.879216   8.749515  10.058636
    31  C    5.699900   9.302915  10.083643  10.018484  11.386403
    32  C    6.735837   9.435890  10.166243   9.994517  11.303554
    33  H    5.203936   7.324190   8.043653   7.903829   9.166589
    34  C    6.927296  10.463268  11.237845  11.126688  12.504846
    35  H    5.660096   9.513400  10.297587  10.271908  11.640245
    36  C    7.386434  10.527857  11.280548  11.119345  12.471569
    37  H    7.391459   9.710146  10.406735  10.196732  11.460343
    38  O    8.676023  11.800438  12.546325  12.350819  13.706552
    39  H    9.011518  11.855435  12.579482  12.355983  13.680505
    40  O    7.875262  11.663307  12.450085  12.335088  13.743136
    41  C    9.044065  12.581742  13.258513  13.343263  14.550177
    42  H    8.894776  12.224950  12.813290  13.081084  14.116642
    43  H    9.719157  13.457664  14.162131  14.210306  15.472545
    44  H    9.605620  12.933048  13.584512  13.666839  14.834815
    45  C    2.401986   4.450814   5.189494   5.429900   6.569455
    46  H    3.084168   4.362284   4.963522   5.417449   6.328844
    47  H    3.127351   4.244332   4.798035   5.353928   6.174921
    48  O    4.984354   5.799627   6.107098   6.827056   7.297717
    49  O    5.200773   7.394260   7.960911   8.203300   9.154426
    50  N    4.519534   6.253392   6.785932   7.130263   7.998115
                   11         12         13         14         15
    11  H    0.000000
    12  C    3.877343   0.000000
    13  H    4.313749   2.112059   0.000000
    14  C    3.393882   1.412999   3.383157   0.000000
    15  H    2.466653   3.408712   4.950198   2.148494   0.000000
    16  O    4.554407   2.369857   4.480439   1.357151   2.674279
    17  H    4.543692   3.185571   5.261332   1.914375   2.292526
    18  O    5.245918   1.369660   2.558700   2.424017   4.566857
    19  C    6.047756   2.375776   3.517513   3.087503   5.131806
    20  H    5.984938   2.664401   3.346834   3.475649   5.375500
    21  H    7.058057   3.261511   4.130026   4.044005   6.125923
    22  H    6.057699   2.711425   4.298078   2.895152   4.738583
    23  C    7.309818   8.901044   7.336488   9.506675   9.594938
    24  H    6.446667   7.944107   6.457481   8.532192   8.655831
    25  C    7.335714   9.101834   7.506196   9.693095   9.718731
    26  H    8.317047  10.118974   8.481878  10.721482  10.724655
    27  C    6.348549   8.225076   6.703758   8.768583   8.751771
    28  O    6.880277   8.825716   7.329053   9.344352   9.274204
    29  C    8.544282  10.014423   8.442094  10.642002  10.758921
    30  C    8.684569   9.940749   8.469426  10.557624  10.729571
    31  C    9.783617  11.325035   9.688860  11.969620  12.058795
    32  C    9.980253  11.145391   9.687608  11.770358  11.958762
    33  H    7.899963   9.040841   7.665958   9.634009   9.837120
    34  C   10.953948  12.400966  10.773966  13.057227  13.169712
    35  H    9.959977  11.613965   9.938787  12.257669  12.309562
    36  C   11.049118  12.321740  10.776335  12.969278  13.128658
    37  H   10.267605  11.265977   9.904430  11.873907  12.099171
    38  O   12.325264  13.523320  11.989569  14.178113  14.354462
    39  H   12.394221  13.470756  12.006899  14.113004  14.318358
    40  O   12.140853  13.634732  11.954258  14.308525  14.407428
    41  C   12.860705  14.624290  13.041591  15.204151  15.140408
    42  H   12.339475  14.358149  12.857460  14.854435  14.650925
    43  H   13.762630  15.513148  13.876477  16.121172  16.075235
    44  H   13.202478  14.907138  13.377878  15.470655  15.409861
    45  C    4.891148   6.760269   5.364476   7.259825   7.262752
    46  H    4.592822   6.691263   5.459328   7.090867   6.963994
    47  H    4.384403   6.617361   5.439690   6.974479   6.786943
    48  O    5.632041   7.912659   6.976030   8.124303   7.749543
    49  O    7.629401   9.365461   8.097408   9.803779   9.718514
    50  N    6.441902   8.292528   7.097966   8.686358   8.561542
                   16         17         18         19         20
    16  O    0.000000
    17  H    0.967646   0.000000
    18  O    2.751441   3.711008   0.000000
    19  C    3.044942   3.952188   1.436249   0.000000
    20  H    3.697812   4.541013   2.090313   1.094939   0.000000
    21  H    3.852952   4.760166   2.028824   1.089629   1.781948
    22  H    2.451626   3.242597   2.098904   1.091501   1.788667
    23  C   10.832455  11.223894   9.769949  10.347650   9.658049
    24  H    9.842572  10.235707   8.826220   9.352736   8.646086
    25  C   11.045326  11.422571  10.002462  10.743922  10.163272
    26  H   12.076602  12.452028  11.000184  11.770376  11.199630
    27  C   10.125104  10.482529   9.174568  10.058270   9.602836
    28  O   10.687851  11.026293   9.767309  10.764269  10.401974
    29  C   11.937526  12.337670  10.822812  11.270104  10.490719
    30  C   11.792797  12.196159  10.698475  10.970081  10.101916
    31  C   13.279190  13.679236  12.119819  12.605749  11.837623
    32  C   12.969443  13.374852  11.848420  12.019652  11.098213
    33  H   10.839240  11.240528   9.797621  10.007786   9.121405
    34  C   14.340255  14.745824  13.151278  13.535873  12.706119
    35  H   13.591826  13.986100  12.429818  13.023386  12.318224
    36  C   14.199917  14.608078  13.028185  13.265237  12.365230
    37  H   13.012883  13.415884  11.921240  11.962550  10.991170
    38  O   15.381590  15.792658  14.188321  14.350284  13.413566
    39  H   15.272959  15.682555  14.103134  14.169128  13.196374
    40  O   15.606591  16.015531  14.375947  14.802870  13.989701
    41  C   16.497220  16.844682  15.434273  15.844356  15.022177
    42  H   16.153752  16.448898  15.244809  15.700006  14.910331
    43  H   17.426808  17.786958  16.306703  16.753164  15.945651
    44  H   16.733479  17.073714  15.700529  16.017784  15.149504
    45  C    8.616484   8.968788   7.767972   8.645975   8.217786
    46  H    8.433943   8.736349   7.760076   8.501959   7.990733
    47  H    8.314441   8.594733   7.704138   8.689968   8.382166
    48  O    9.342582   9.531366   8.950027  10.173251  10.121983
    49  O   11.025745  11.327065  10.222772  11.478036  11.407987
    50  N    9.925725  10.211694   9.214189  10.448535  10.367594
                   21         22         23         24         25
    21  H    0.000000
    22  H    1.780441   0.000000
    23  C   11.063442  10.954043   0.000000
    24  H   10.097262   9.929824   1.087263   0.000000
    25  C   11.449251  11.366233   1.349024   2.098304   0.000000
    26  H   12.450168  12.413454   2.126434   3.076341   1.086224
    27  C   10.776820  10.659171   2.501712   2.727657   1.465750
    28  O   11.454163  11.370373   3.582993   3.939048   2.331470
    29  C   11.957850  11.881051   1.457569   2.144289   2.516875
    30  C   11.655603  11.544707   2.464087   2.589570   3.745233
    31  C   13.265809  13.243396   2.523016   3.444231   3.053278
    32  C   12.671519  12.589639   3.750474   3.977701   4.941092
    33  H   10.715573  10.549247   2.664127   2.322081   4.012873
    34  C   14.173387  14.170916   3.790359   4.584108   4.435588
    35  H   13.677746  13.679055   2.785052   3.844631   2.802098
    36  C   13.896919  13.868285   4.278357   4.801991   5.231793
    37  H   12.601916  12.497274   4.615217   4.647684   5.877118
    38  O   14.954619  14.949403   5.635005   6.141933   6.559863
    39  H   14.765914  14.740991   6.050112   6.407911   7.097398
    40  O   15.418115  15.462555   4.897803   5.795614   5.284784
    41  C   16.510271  16.446027   5.824621   6.700283   6.190913
    42  H   16.418080  16.255766   5.545164   6.426290   5.820724
    43  H   17.396044  17.382631   6.660579   7.593177   6.885721
    44  H   16.685982  16.593034   6.300349   7.065603   6.851447
    45  C    9.413416   9.198896   3.033763   2.661495   2.599146
    46  H    9.336244   8.980965   2.787710   2.158750   2.783576
    47  H    9.487001   9.173612   4.023077   3.681798   3.430295
    48  O   10.895232  10.613791   6.323352   6.254442   5.320091
    49  O   12.069600  12.061941   6.706479   6.920751   5.479959
    50  N   11.091272  10.994707   6.121524   6.177817   5.008970
                   26         27         28         29         30
    26  H    0.000000
    27  C    2.142184   0.000000
    28  O    2.505238   1.226116   0.000000
    29  C    2.808442   3.878596   4.848328   0.000000
    30  C    4.187174   4.959244   6.041063   1.403618   0.000000
    31  C    2.807450   4.519028   5.237451   1.408920   2.408104
    32  C    5.189958   6.248461   7.269871   2.432566   1.389370
    33  H    4.682810   4.991054   6.164809   2.156616   1.085247
    34  C    4.149696   5.901111   6.610579   2.439834   2.792179
    35  H    2.190889   4.205161   4.695783   2.176893   3.404477
    36  C    5.188659   6.657998   7.527429   2.821506   2.416366
    37  H    6.213187   7.110625   8.187033   3.415706   2.151698
    38  O    6.441931   7.997842   8.833895   4.177786   3.675350
    39  H    7.100668   8.495942   9.411464   4.619522   3.835472
    40  O    4.747908   6.727129   7.251673   3.678440   4.160823
    41  C    5.626812   7.606717   8.090183   4.615492   4.991307
    42  H    5.252251   7.174437   7.619247   4.479330   4.975715
    43  H    6.198599   8.267885   8.630838   5.517121   5.986575
    44  H    6.412870   8.289272   8.879013   4.977043   5.052134
    45  C    3.532508   1.524022   2.380217   4.485847   5.232756
    46  H    3.815239   2.182417   3.213164   4.143867   4.680263
    47  H    4.231887   2.122252   2.497602   5.471465   6.239626
    48  O    5.693604   3.895623   3.236901   7.730411   8.717589
    49  O    5.503657   4.245611   3.165169   7.988890   9.165558
    50  N    5.256912   3.625305   2.760401   7.492693   8.567861
                   31         32         33         34         35
    31  C    0.000000
    32  C    2.779479   0.000000
    33  H    3.396527   2.140980   0.000000
    34  C    1.384158   2.424222   3.877400   0.000000
    35  H    1.083942   3.862847   4.313460   2.111659   0.000000
    36  C    2.416356   1.394931   3.394008   1.412860   3.382613
    37  H    3.866204   1.086738   2.466898   3.408296   4.949479
    38  O    3.635327   2.418270   4.554340   2.370263   4.480404
    39  H    4.327893   2.456230   4.542944   3.185641   5.260863
    40  O    2.375437   3.684374   5.245939   1.369779   2.557751
    41  C    3.381803   4.375907   6.050522   2.375889   3.517442
    42  H    3.321922   4.565895   5.987085   2.663295   3.348233
    43  H    4.194160   5.379713   7.059889   3.261517   4.127543
    44  H    3.923149   4.182044   6.064088   2.713193   4.299770
    45  C    5.457137   6.611970   4.939145   6.790139   5.382529
    46  H    5.267975   6.059180   4.260123   6.525451   5.374140
    47  H    6.378599   7.614830   5.929953   7.727614   6.216002
    48  O    8.333584  10.048977   8.557207   9.712566   7.870089
    49  O    8.297596  10.406878   9.213012   9.642843   7.625236
    50  N    7.986382   9.869574   8.498253   9.362738   7.442512
                   36         37         38         39         40
    36  C    0.000000
    37  H    2.148172   0.000000
    38  O    1.357334   2.673498   0.000000
    39  H    1.914300   2.291237   0.967607   0.000000
    40  O    2.424357   4.566845   2.752707   3.712125   0.000000
    41  C    3.088586   5.132963   3.046872   3.954602   1.436051
    42  H    3.474412   5.373990   3.697004   4.540479   2.090382
    43  H    4.045965   6.128086   3.857207   4.765111   2.028633
    44  H    2.898446   4.742584   2.454570   3.246605   2.098806
    45  C    7.296926   7.308619   8.653815   9.008815   7.791536
    46  H    6.870043   6.668616   8.214080   8.489058   7.633046
    47  H    8.281170   8.307138   9.637531  10.005769   8.679476
    48  O   10.509270  10.843473  11.846737  12.338366  10.422634
    49  O   10.634566  11.312727  11.917884  12.527132  10.124365
    50  N   10.238038  10.715032  11.559673  12.099093   9.991933
                   41         42         43         44         45
    41  C    0.000000
    42  H    1.094973   0.000000
    43  H    1.089665   1.781918   0.000000
    44  H    1.091535   1.788605   1.780506   0.000000
    45  C    8.675132   8.249248   9.435133   9.236346   0.000000
    46  H    8.431680   7.976423   9.277625   8.888231   1.093615
    47  H    9.492422   8.987187  10.226814  10.087207   1.091877
    48  O   11.164507  10.576222  11.728200  11.919588   3.695186
    49  O   10.943727  10.454228  11.332513  11.822986   4.668250
    50  N   10.820959  10.312823  11.316514  11.628335   3.728689
                   46         47         48         49         50
    46  H    0.000000
    47  H    1.754619   0.000000
    48  O    4.478374   2.755751   0.000000
    49  O    5.659089   4.111755   2.195783   0.000000
    50  N    4.690426   3.041518   1.197087   1.192524   0.000000
 Stoichiometry    C21H20NO8(2)
 Framework group  C1[X(C21H20NO8)]
 Deg. of freedom   144
 Full point group                 C1      NOp   1
 Largest Abelian subgroup         C1      NOp   1
 Largest concise Abelian subgroup C1      NOp   1
                         Standard orientation:                         
 ---------------------------------------------------------------------
 Center     Atomic      Atomic             Coordinates (Angstroms)
 Number     Number       Type             X           Y           Z
 ---------------------------------------------------------------------
      1          6           0       -2.751630    0.256060   -0.312560
      2          1           0       -2.341340    0.675130   -1.228230
      3          6           0       -1.998280    0.298420    0.805510
      4          1           0       -2.364680   -0.091340    1.750990
      5          6           0       -0.643950    0.861900    0.897690
      6          8           0       -0.060410    0.887350    1.971460
      7          6           0       -4.093930   -0.293820   -0.457350
      8          6           0       -4.730160   -0.207510   -1.705360
      9          6           0       -4.790890   -0.921730    0.593890
     10          6           0       -6.010940   -0.711450   -1.895170
     11          1           0       -4.217900    0.267620   -2.535690
     12          6           0       -6.067011   -1.429180    0.419890
     13          1           0       -4.350050   -1.019210    1.579530
     14          6           0       -6.694030   -1.318930   -0.841560
     15          1           0       -6.493820   -0.624670   -2.864910
     16          8           0       -7.954731   -1.806719   -0.962210
     17          1           0       -8.273581   -1.668119   -1.865240
     18          8           0       -6.723111   -1.972090    1.492620
     19          6           0       -6.944531   -3.389980    1.434550
     20          1           0       -5.993451   -3.925580    1.348120
     21          1           0       -7.425351   -3.658789    2.374680
     22          1           0       -7.597481   -3.659899    0.602580
     23          6           0        2.698310   -0.003740   -0.184980
     24          1           0        1.792460   -0.578050   -0.363150
     25          6           0        2.594080    1.332350   -0.030500
     26          1           0        3.468270    1.947959    0.161070
     27          6           0        1.345820    2.098570   -0.086870
     28          8           0        1.368920    3.312770    0.082080
     29          6           0        3.912520   -0.808801   -0.139370
     30          6           0        3.815159   -2.194821   -0.338400
     31          6           0        5.193130   -0.265821    0.084830
     32          6           0        4.942379   -3.006371   -0.305060
     33          1           0        2.842949   -2.643300   -0.515700
     34          6           0        6.324960   -1.061671    0.123270
     35          1           0        5.330340    0.796859    0.248580
     36          6           0        6.202149   -2.456061   -0.068480
     37          1           0        4.848109   -4.078901   -0.452680
     38          8           0        7.332899   -3.203541    0.002460
     39          1           0        7.117119   -4.136041   -0.139480
     40          8           0        7.535270   -0.489051    0.412320
     41          6           0        8.484970   -0.462871   -0.664540
     42          1           0        8.078630    0.079819   -1.524390
     43          1           0        9.357780    0.066919   -0.283890
     44          1           0        8.775369   -1.470511   -0.967490
     45          6           0        0.018590    1.406100   -0.372510
     46          1           0        0.130300    0.590510   -1.092460
     47          1           0       -0.640620    2.145100   -0.832420
     48          8           0       -1.356700    4.806170   -0.822510
     49          8           0       -0.285700    5.932410    0.728620
     50          7           0       -0.819260    4.988890    0.231430
 ---------------------------------------------------------------------
 Rotational constants (GHZ):           0.1839382           0.0485142           0.0403748
 Standard basis: 6-311+G(d) (5D, 7F)
 There are   750 symmetry adapted cartesian basis functions of A   symmetry.
 There are   720 symmetry adapted basis functions of A   symmetry.
   720 basis functions,  1180 primitive gaussians,   750 cartesian basis functions
   109 alpha electrons      108 beta electrons
       nuclear repulsion energy      2550.8502090801 Hartrees.
 NAtoms=   50 NActive=   50 NUniq=   50 SFac= 1.00D+00 NAtFMM=   60 NAOKFM=F Big=F
 Integral buffers will be    131072 words long.
 Raffenetti 2 integral format.
 Two-electron integral symmetry is turned on.
 Force inversion solution in PCM.
 Using the following non-standard input for PCM:
 Eps=7
 EpsInf=1.85341
 HbondAcidity=0
 HbondBasicity=0.48
 SurfaceTensionAtInterface=60.62
 CarbonAromaticity=0
 ElectronegativeHalogenicity=0
 --- end of non-standard input.
 Force inversion solution in PCM.
 ------------------------------------------------------------------------------
 Polarizable Continuum Model (PCM)
 =================================
 Model                : PCM.
 Atomic radii         : SMD-Coulomb.
 Polarization charges : Total charges.
 Charge compensation  : None.
 Solution method      : Matrix inversion.
 Cavity type          : VdW (van der Waals Surface) (Alpha=1.000).
 Cavity algorithm     : GePol (No added spheres)
                        Default sphere list used, NSphG=   50.
                        Lebedev-Laikov grids with approx.  5.0 points / Ang**2.
                        Smoothing algorithm: York/Karplus (Gamma=1.0000).
                        Polarization charges: spherical gaussians, with
                                              point-specific exponents (IZeta= 3).
                        Self-potential: point-specific (ISelfS= 7).
                        Self-field    : sphere-specific E.n sum rule (ISelfD= 2).
 1st derivatives      : Analytical E(r).r(x)/FMM algorithm (CHGder, D1EAlg=3).
                        Cavity 1st derivative terms included.
 2nd derivatives      : Analytical E(r).r(xy)/FMM algorithm (CHGder, D2EAlg=3).
                        Cavity 2nd derivative terms included.
 Solvent              : Generic,
                        Eps                           =   7.000000
                        Eps(infinity)                 =   1.853410
                        RSolv                         =   0.000000 Ang.
                        Molar volume                  =   0.000000 cm**3/mol
                        Thermal expansion coefficient =   0.000000 K**-1
                        Absolute temperature          = 298.150000 K
                        Numeral density               =   0.000000 Ang**-3
                        Hydrogen bond acidity         =   0.000000
                        Hydrogen bond basicity        =   0.480000
                        Surface tension at interface  =  60.620000 (cal/mol)*Ang**-2
                        Carbon aromaticity            =   0.000000
                        Electronegative halogenicity  =   0.000000
 ------------------------------------------------------------------------------
 ------------------------------------------------------------------------------
 Atomic radii for non-electrostatic terms: SMD-CDS.
 ------------------------------------------------------------------------------
 Nuclear repulsion after PCM non-electrostatic terms =     2550.8472622794 Hartrees.
 One-electron integrals computed using PRISM.
 NBasis=   720 RedAO= T EigKep=  1.22D-06  NBF=   720
 NBsUse=   715 1.00D-06 EigRej=  8.78D-07 NBFU=   715
 ExpMin= 4.38D-02 ExpMax= 8.59D+03 ExpMxC= 1.30D+03 IAcc=3 IRadAn=         5 AccDes= 0.00D+00
 Harris functional with IExCor=  402 and IRadAn=       5 diagonalized for initial guess.
 HarFok:  IExCor=  402 AccDes= 0.00D+00 IRadAn=         5 IDoV= 1 UseB2=F ITyADJ=14
 ICtDFT=  3500011 ScaDFX=  1.000000  1.000000  1.000000  1.000000
 FoFCou: FMM=F IPFlag=           0 FMFlag=      100000 FMFlg1=           0
         NFxFlg=           0 DoJE=T BraDBF=F KetDBF=T FulRan=T
         wScrn=  0.000000 ICntrl=       500 IOpCl=  0 I1Cent=   200000004 NGrid=           0
         NMat0=    1 NMatS0=      1 NMatT0=    0 NMatD0=    1 NMtDS0=    0 NMtDT0=    0
 Petite list used in FoFCou.
 Initial guess <Sx>= 0.0000 <Sy>= 0.0000 <Sz>= 0.5000 <S**2>= 0.7500 S= 0.5000
 Requested convergence on RMS density matrix=1.00D-08 within 500 cycles.
 Requested convergence on MAX density matrix=1.00D-06.
 Requested convergence on             energy=1.00D-06.
 No special actions if energy rises.
 Inv3:  Mode=1 IEnd=    57605772.
 Iteration    1 A*A^-1 deviation from unit magnitude is 3.66D-15 for   3884.
 Iteration    1 A*A^-1 deviation from orthogonality  is 2.28D-15 for   2170    573.
 Iteration    1 A^-1*A deviation from unit magnitude is 3.55D-15 for   1641.
 Iteration    1 A^-1*A deviation from orthogonality  is 3.95D-15 for   1842   1803.
 Restarting incremental Fock formation.
 Error on total polarization charges =  0.04082
 SCF Done:  E(UB3LYP) =  -1469.04492261     A.U. after   23 cycles
            NFock= 23  Conv=0.56D-08     -V/T= 2.0037
 <Sx>= 0.0000 <Sy>= 0.0000 <Sz>= 0.5000 <S**2>= 0.7534 S= 0.5017
 <L.S>=  0.00000000000    
 SMD-CDS (non-electrostatic) energy       (kcal/mol) =      -1.85
 (included in total energy above)
 Annihilation of the first spin contaminant:
 S**2 before annihilation     0.7534,   after     0.7500
 DoSCS=F DFT=T ScalE2(SS,OS)=  1.000000  1.000000
 Range of M.O.s used for correlation:     1   715
 NBasis=   720 NAE=   109 NBE=   108 NFC=     0 NFV=     0
 NROrb=    715 NOA=   109 NOB=   108 NVA=   606 NVB=   607

 **** Warning!!: The largest alpha MO coefficient is  0.12342337D+03


 **** Warning!!: The largest beta MO coefficient is  0.11705268D+03


 **** Warning!!: The smallest beta delta epsilon is  0.80871040D-01

 Symmetrizing basis deriv contribution to polar:
 IMax=3 JMax=2 DiffMx= 0.00D+00
 G2DrvN: will do    26 centers at a time, making    2 passes.
 Calling FoFCou, ICntrl=  3107 FMM=F I1Cent=   0 AccDes= 0.00D+00.
 Calling FoFCou, ICntrl=  3107 FMM=F I1Cent=   0 AccDes= 0.00D+00.
 NEqPCM:  Using equilibrium solvation (IEInf=0, Eps=   7.0000, EpsInf=   1.8534)
 G2PCM: DoFxE=T DoFxN=T DoGrad=T DoDP/DQ/DG/TGxP=FFFF NFrqRd=   0 IEInf=0 SqF1=F DoCFld=F IF1Alg=4.
 End of G2Drv F.D. properties file   721 does not exist.
 End of G2Drv F.D. properties file   722 does not exist.
 End of G2Drv F.D. properties file   788 does not exist.
          IDoAtm=11111111111111111111111111111111111111111111111111
 NEqPCM:  Using equilibrium solvation (IEInf=0, Eps=   7.0000, EpsInf=   1.8534)
          Differentiating once with respect to nuclear coordinates.
 CalDSu exits because no D1Ps are significant.
          There are   153 degrees of freedom in the 1st order CPHF.  IDoFFX=6 NUNeed=     0.
    150 vectors produced by pass  0 Test12= 1.32D-13 1.00D-09 XBig12= 5.96D-01 1.98D-01.
 AX will form    30 AO Fock derivatives at one time.
    150 vectors produced by pass  1 Test12= 1.32D-13 1.00D-09 XBig12= 5.55D-02 4.10D-02.
    147 vectors produced by pass  2 Test12= 1.32D-13 1.00D-09 XBig12= 7.26D-04 3.01D-03.
    147 vectors produced by pass  3 Test12= 1.32D-13 1.00D-09 XBig12= 3.46D-06 4.67D-04.
    147 vectors produced by pass  4 Test12= 1.32D-13 1.00D-09 XBig12= 2.13D-08 2.23D-05.
    145 vectors produced by pass  5 Test12= 1.32D-13 1.00D-09 XBig12= 1.11D-10 1.53D-06.
    101 vectors produced by pass  6 Test12= 1.32D-13 1.00D-09 XBig12= 9.85D-13 8.04D-08.
     51 vectors produced by pass  7 Test12= 1.32D-13 1.00D-09 XBig12= 7.48D-14 1.39D-08.
     42 vectors produced by pass  8 Test12= 1.32D-13 1.00D-09 XBig12= 9.26D-14 1.31D-08.
     41 vectors produced by pass  9 Test12= 1.32D-13 1.00D-09 XBig12= 1.48D-13 1.55D-08.
     41 vectors produced by pass 10 Test12= 1.32D-13 1.00D-09 XBig12= 1.99D-13 1.42D-08.
     34 vectors produced by pass 11 Test12= 1.32D-13 1.00D-09 XBig12= 7.54D-14 1.14D-08.
     26 vectors produced by pass 12 Test12= 1.32D-13 1.00D-09 XBig12= 3.09D-14 7.50D-09.
     26 vectors produced by pass 13 Test12= 1.32D-13 1.00D-09 XBig12= 6.72D-14 9.20D-09.
     26 vectors produced by pass 14 Test12= 1.32D-13 1.00D-09 XBig12= 6.62D-14 7.96D-09.
     26 vectors produced by pass 15 Test12= 1.32D-13 1.00D-09 XBig12= 6.60D-14 9.92D-09.
     26 vectors produced by pass 16 Test12= 1.32D-13 1.00D-09 XBig12= 6.10D-14 8.92D-09.
     22 vectors produced by pass 17 Test12= 1.32D-13 1.00D-09 XBig12= 3.92D-14 6.50D-09.
     21 vectors produced by pass 18 Test12= 1.32D-13 1.00D-09 XBig12= 4.40D-14 6.09D-09.
     17 vectors produced by pass 19 Test12= 1.32D-13 1.00D-09 XBig12= 2.04D-14 4.14D-09.
     14 vectors produced by pass 20 Test12= 1.32D-13 1.00D-09 XBig12= 2.06D-14 4.35D-09.
     14 vectors produced by pass 21 Test12= 1.32D-13 1.00D-09 XBig12= 5.49D-14 7.36D-09.
     14 vectors produced by pass 22 Test12= 1.32D-13 1.00D-09 XBig12= 4.21D-14 7.04D-09.
     13 vectors produced by pass 23 Test12= 1.32D-13 1.00D-09 XBig12= 2.11D-14 4.68D-09.
     13 vectors produced by pass 24 Test12= 1.32D-13 1.00D-09 XBig12= 4.69D-14 6.60D-09.
     13 vectors produced by pass 25 Test12= 1.32D-13 1.00D-09 XBig12= 5.04D-14 6.90D-09.
     13 vectors produced by pass 26 Test12= 1.32D-13 1.00D-09 XBig12= 5.91D-14 8.25D-09.
     13 vectors produced by pass 27 Test12= 1.32D-13 1.00D-09 XBig12= 2.71D-14 4.65D-09.
     13 vectors produced by pass 28 Test12= 1.32D-13 1.00D-09 XBig12= 3.41D-14 6.94D-09.
     13 vectors produced by pass 29 Test12= 1.32D-13 1.00D-09 XBig12= 4.82D-14 6.64D-09.
     11 vectors produced by pass 30 Test12= 1.32D-13 1.00D-09 XBig12= 3.48D-14 5.31D-09.
     11 vectors produced by pass 31 Test12= 1.32D-13 1.00D-09 XBig12= 4.43D-14 7.81D-09.
     11 vectors produced by pass 32 Test12= 1.32D-13 1.00D-09 XBig12= 2.87D-14 5.74D-09.
     11 vectors produced by pass 33 Test12= 1.32D-13 1.00D-09 XBig12= 2.70D-14 5.00D-09.
     11 vectors produced by pass 34 Test12= 1.32D-13 1.00D-09 XBig12= 3.90D-14 6.35D-09.
      7 vectors produced by pass 35 Test12= 1.32D-13 1.00D-09 XBig12= 1.52D-14 3.40D-09.
      7 vectors produced by pass 36 Test12= 1.32D-13 1.00D-09 XBig12= 3.37D-14 6.20D-09.
      7 vectors produced by pass 37 Test12= 1.32D-13 1.00D-09 XBig12= 1.76D-14 3.84D-09.
      7 vectors produced by pass 38 Test12= 1.32D-13 1.00D-09 XBig12= 3.98D-14 5.93D-09.
      7 vectors produced by pass 39 Test12= 1.32D-13 1.00D-09 XBig12= 4.39D-14 7.45D-09.
      7 vectors produced by pass 40 Test12= 1.32D-13 1.00D-09 XBig12= 2.74D-14 5.45D-09.
      7 vectors produced by pass 41 Test12= 1.32D-13 1.00D-09 XBig12= 4.45D-14 6.13D-09.
      7 vectors produced by pass 42 Test12= 1.32D-13 1.00D-09 XBig12= 2.61D-14 5.98D-09.
      7 vectors produced by pass 43 Test12= 1.32D-13 1.00D-09 XBig12= 1.49D-14 4.37D-09.
      7 vectors produced by pass 44 Test12= 1.32D-13 1.00D-09 XBig12= 1.56D-14 4.09D-09.
      7 vectors produced by pass 45 Test12= 1.32D-13 1.00D-09 XBig12= 3.24D-14 5.57D-09.
      7 vectors produced by pass 46 Test12= 1.32D-13 1.00D-09 XBig12= 4.24D-14 6.79D-09.
      7 vectors produced by pass 47 Test12= 1.32D-13 1.00D-09 XBig12= 2.43D-14 5.51D-09.
      7 vectors produced by pass 48 Test12= 1.32D-13 1.00D-09 XBig12= 1.83D-14 4.30D-09.
      7 vectors produced by pass 49 Test12= 1.32D-13 1.00D-09 XBig12= 1.88D-14 5.20D-09.
      7 vectors produced by pass 50 Test12= 1.32D-13 1.00D-09 XBig12= 2.92D-14 6.39D-09.
      7 vectors produced by pass 51 Test12= 1.32D-13 1.00D-09 XBig12= 4.54D-14 6.63D-09.
      7 vectors produced by pass 52 Test12= 1.32D-13 1.00D-09 XBig12= 2.67D-14 5.08D-09.
      7 vectors produced by pass 53 Test12= 1.32D-13 1.00D-09 XBig12= 3.11D-14 4.84D-09.
      7 vectors produced by pass 54 Test12= 1.32D-13 1.00D-09 XBig12= 6.13D-14 8.29D-09.
      7 vectors produced by pass 55 Test12= 1.32D-13 1.00D-09 XBig12= 1.84D-14 3.90D-09.
      7 vectors produced by pass 56 Test12= 1.32D-13 1.00D-09 XBig12= 3.36D-14 5.68D-09.
      7 vectors produced by pass 57 Test12= 1.32D-13 1.00D-09 XBig12= 4.75D-14 6.75D-09.
      7 vectors produced by pass 58 Test12= 1.32D-13 1.00D-09 XBig12= 1.81D-14 4.52D-09.
      7 vectors produced by pass 59 Test12= 1.32D-13 1.00D-09 XBig12= 1.56D-14 3.89D-09.
      7 vectors produced by pass 60 Test12= 1.32D-13 1.00D-09 XBig12= 2.32D-14 4.21D-09.
      7 vectors produced by pass 61 Test12= 1.32D-13 1.00D-09 XBig12= 2.24D-14 4.30D-09.
      7 vectors produced by pass 62 Test12= 1.32D-13 1.00D-09 XBig12= 3.04D-14 5.79D-09.
      7 vectors produced by pass 63 Test12= 1.32D-13 1.00D-09 XBig12= 1.50D-14 3.54D-09.
      7 vectors produced by pass 64 Test12= 1.32D-13 1.00D-09 XBig12= 1.45D-14 3.88D-09.
      7 vectors produced by pass 65 Test12= 1.32D-13 1.00D-09 XBig12= 1.82D-14 4.21D-09.
      7 vectors produced by pass 66 Test12= 1.32D-13 1.00D-09 XBig12= 1.94D-14 3.93D-09.
      7 vectors produced by pass 67 Test12= 1.32D-13 1.00D-09 XBig12= 3.01D-14 5.19D-09.
      7 vectors produced by pass 68 Test12= 1.32D-13 1.00D-09 XBig12= 2.21D-14 4.54D-09.
      7 vectors produced by pass 69 Test12= 1.32D-13 1.00D-09 XBig12= 2.21D-14 4.77D-09.
      7 vectors produced by pass 70 Test12= 1.32D-13 1.00D-09 XBig12= 1.84D-14 4.02D-09.
      7 vectors produced by pass 71 Test12= 1.32D-13 1.00D-09 XBig12= 3.79D-14 5.82D-09.
      6 vectors produced by pass 72 Test12= 1.32D-13 1.00D-09 XBig12= 1.16D-14 3.06D-09.
      6 vectors produced by pass 73 Test12= 1.32D-13 1.00D-09 XBig12= 2.46D-14 4.27D-09.
      6 vectors produced by pass 74 Test12= 1.32D-13 1.00D-09 XBig12= 1.18D-14 3.30D-09.
      6 vectors produced by pass 75 Test12= 1.32D-13 1.00D-09 XBig12= 1.36D-14 3.34D-09.
      6 vectors produced by pass 76 Test12= 1.32D-13 1.00D-09 XBig12= 2.65D-14 4.34D-09.
      6 vectors produced by pass 77 Test12= 1.32D-13 1.00D-09 XBig12= 2.17D-14 5.28D-09.
      6 vectors produced by pass 78 Test12= 1.32D-13 1.00D-09 XBig12= 1.20D-14 3.30D-09.
      6 vectors produced by pass 79 Test12= 1.32D-13 1.00D-09 XBig12= 2.01D-14 4.11D-09.
      6 vectors produced by pass 80 Test12= 1.32D-13 1.00D-09 XBig12= 1.68D-14 3.58D-09.
      6 vectors produced by pass 81 Test12= 1.32D-13 1.00D-09 XBig12= 6.51D-15 2.42D-09.
      6 vectors produced by pass 82 Test12= 1.32D-13 1.00D-09 XBig12= 1.39D-14 3.65D-09.
      6 vectors produced by pass 83 Test12= 1.32D-13 1.00D-09 XBig12= 6.65D-15 2.89D-09.
      6 vectors produced by pass 84 Test12= 1.32D-13 1.00D-09 XBig12= 2.03D-14 4.87D-09.
      6 vectors produced by pass 85 Test12= 1.32D-13 1.00D-09 XBig12= 1.49D-14 4.21D-09.
      6 vectors produced by pass 86 Test12= 1.32D-13 1.00D-09 XBig12= 2.29D-14 4.47D-09.
      6 vectors produced by pass 87 Test12= 1.32D-13 1.00D-09 XBig12= 7.79D-15 2.74D-09.
      6 vectors produced by pass 88 Test12= 1.32D-13 1.00D-09 XBig12= 5.86D-15 2.27D-09.
      6 vectors produced by pass 89 Test12= 1.32D-13 1.00D-09 XBig12= 2.39D-14 4.56D-09.
      6 vectors produced by pass 90 Test12= 1.32D-13 1.00D-09 XBig12= 1.58D-14 4.82D-09.
      6 vectors produced by pass 91 Test12= 1.32D-13 1.00D-09 XBig12= 1.60D-14 3.94D-09.
      6 vectors produced by pass 92 Test12= 1.32D-13 1.00D-09 XBig12= 9.56D-15 2.88D-09.
      6 vectors produced by pass 93 Test12= 1.32D-13 1.00D-09 XBig12= 1.80D-14 4.24D-09.
      6 vectors produced by pass 94 Test12= 1.32D-13 1.00D-09 XBig12= 1.35D-14 4.01D-09.
      6 vectors produced by pass 95 Test12= 1.32D-13 1.00D-09 XBig12= 1.44D-14 3.74D-09.
      6 vectors produced by pass 96 Test12= 1.32D-13 1.00D-09 XBig12= 6.76D-15 2.42D-09.
      6 vectors produced by pass 97 Test12= 1.32D-13 1.00D-09 XBig12= 1.87D-14 3.66D-09.
      6 vectors produced by pass 98 Test12= 1.32D-13 1.00D-09 XBig12= 1.61D-14 3.91D-09.
      6 vectors produced by pass 99 Test12= 1.32D-13 1.00D-09 XBig12= 2.06D-14 4.46D-09.
      6 vectors produced by pass100 Test12= 1.32D-13 1.00D-09 XBig12= 1.08D-14 3.05D-09.
      6 vectors produced by pass101 Test12= 1.32D-13 1.00D-09 XBig12= 1.59D-14 3.82D-09.
      6 vectors produced by pass102 Test12= 1.32D-13 1.00D-09 XBig12= 1.44D-14 4.28D-09.
      6 vectors produced by pass103 Test12= 1.32D-13 1.00D-09 XBig12= 8.69D-15 2.57D-09.
      6 vectors produced by pass104 Test12= 1.32D-13 1.00D-09 XBig12= 1.18D-14 3.46D-09.
      6 vectors produced by pass105 Test12= 1.32D-13 1.00D-09 XBig12= 2.08D-14 4.27D-09.
      6 vectors produced by pass106 Test12= 1.32D-13 1.00D-09 XBig12= 7.11D-15 2.61D-09.
      6 vectors produced by pass107 Test12= 1.32D-13 1.00D-09 XBig12= 1.24D-14 3.43D-09.
      6 vectors produced by pass108 Test12= 1.32D-13 1.00D-09 XBig12= 1.55D-14 3.73D-09.
      6 vectors produced by pass109 Test12= 1.32D-13 1.00D-09 XBig12= 2.04D-14 3.65D-09.
      6 vectors produced by pass110 Test12= 1.32D-13 1.00D-09 XBig12= 7.55D-15 2.60D-09.
      6 vectors produced by pass111 Test12= 1.32D-13 1.00D-09 XBig12= 1.31D-14 3.17D-09.
      6 vectors produced by pass112 Test12= 1.32D-13 1.00D-09 XBig12= 4.56D-15 2.22D-09.
      6 vectors produced by pass113 Test12= 1.32D-13 1.00D-09 XBig12= 1.96D-14 3.98D-09.
      6 vectors produced by pass114 Test12= 1.32D-13 1.00D-09 XBig12= 1.08D-14 2.88D-09.
      6 vectors produced by pass115 Test12= 1.32D-13 1.00D-09 XBig12= 6.24D-15 2.34D-09.
      6 vectors produced by pass116 Test12= 1.32D-13 1.00D-09 XBig12= 1.92D-14 4.19D-09.
      6 vectors produced by pass117 Test12= 1.32D-13 1.00D-09 XBig12= 1.12D-14 3.02D-09.
      6 vectors produced by pass118 Test12= 1.32D-13 1.00D-09 XBig12= 1.77D-14 4.83D-09.
      6 vectors produced by pass119 Test12= 1.32D-13 1.00D-09 XBig12= 8.49D-15 3.03D-09.
      6 vectors produced by pass120 Test12= 1.32D-13 1.00D-09 XBig12= 1.49D-14 3.50D-09.
      4 vectors produced by pass121 Test12= 1.32D-13 1.00D-09 XBig12= 5.37D-15 2.04D-09.
      4 vectors produced by pass122 Test12= 1.32D-13 1.00D-09 XBig12= 9.08D-15 3.06D-09.
      4 vectors produced by pass123 Test12= 1.32D-13 1.00D-09 XBig12= 1.10D-14 3.85D-09.
      4 vectors produced by pass124 Test12= 1.32D-13 1.00D-09 XBig12= 1.58D-14 4.50D-09.
      4 vectors produced by pass125 Test12= 1.32D-13 1.00D-09 XBig12= 6.82D-15 2.62D-09.
      4 vectors produced by pass126 Test12= 1.32D-13 1.00D-09 XBig12= 9.51D-15 3.18D-09.
      4 vectors produced by pass127 Test12= 1.32D-13 1.00D-09 XBig12= 2.02D-14 4.34D-09.
      4 vectors produced by pass128 Test12= 1.32D-13 1.00D-09 XBig12= 7.50D-15 2.62D-09.
      4 vectors produced by pass129 Test12= 1.32D-13 1.00D-09 XBig12= 8.33D-15 2.66D-09.
      4 vectors produced by pass130 Test12= 1.32D-13 1.00D-09 XBig12= 1.93D-14 4.17D-09.
      4 vectors produced by pass131 Test12= 1.32D-13 1.00D-09 XBig12= 1.34D-14 3.38D-09.
      4 vectors produced by pass132 Test12= 1.32D-13 1.00D-09 XBig12= 1.21D-14 3.58D-09.
      4 vectors produced by pass133 Test12= 1.32D-13 1.00D-09 XBig12= 3.30D-15 1.77D-09.
      4 vectors produced by pass134 Test12= 1.32D-13 1.00D-09 XBig12= 1.57D-14 3.38D-09.
      4 vectors produced by pass135 Test12= 1.32D-13 1.00D-09 XBig12= 1.01D-14 2.86D-09.
      4 vectors produced by pass136 Test12= 1.32D-13 1.00D-09 XBig12= 9.20D-15 3.05D-09.
      4 vectors produced by pass137 Test12= 1.32D-13 1.00D-09 XBig12= 1.13D-14 3.25D-09.
      4 vectors produced by pass138 Test12= 1.32D-13 1.00D-09 XBig12= 6.45D-15 2.32D-09.
      4 vectors produced by pass139 Test12= 1.32D-13 1.00D-09 XBig12= 1.11D-14 2.94D-09.
      4 vectors produced by pass140 Test12= 1.32D-13 1.00D-09 XBig12= 8.49D-15 2.84D-09.
      4 vectors produced by pass141 Test12= 1.32D-13 1.00D-09 XBig12= 1.21D-14 3.16D-09.
      4 vectors produced by pass142 Test12= 1.32D-13 1.00D-09 XBig12= 7.32D-15 2.34D-09.
      4 vectors produced by pass143 Test12= 1.32D-13 1.00D-09 XBig12= 1.65D-14 4.13D-09.
      4 vectors produced by pass144 Test12= 1.32D-13 1.00D-09 XBig12= 1.50D-14 3.37D-09.
      4 vectors produced by pass145 Test12= 1.32D-13 1.00D-09 XBig12= 6.51D-15 2.32D-09.
      4 vectors produced by pass146 Test12= 1.32D-13 1.00D-09 XBig12= 1.28D-14 3.48D-09.
      4 vectors produced by pass147 Test12= 1.32D-13 1.00D-09 XBig12= 7.50D-15 2.57D-09.
      4 vectors produced by pass148 Test12= 1.32D-13 1.00D-09 XBig12= 2.17D-14 4.25D-09.
      4 vectors produced by pass149 Test12= 1.32D-13 1.00D-09 XBig12= 1.06D-14 2.88D-09.
      4 vectors produced by pass150 Test12= 1.32D-13 1.00D-09 XBig12= 2.13D-14 4.24D-09.
      4 vectors produced by pass151 Test12= 1.32D-13 1.00D-09 XBig12= 2.44D-14 4.32D-09.
      4 vectors produced by pass152 Test12= 1.32D-13 1.00D-09 XBig12= 6.20D-15 2.09D-09.
      4 vectors produced by pass153 Test12= 1.32D-13 1.00D-09 XBig12= 1.02D-14 2.77D-09.
      4 vectors produced by pass154 Test12= 1.32D-13 1.00D-09 XBig12= 1.35D-14 3.38D-09.
      4 vectors produced by pass155 Test12= 1.32D-13 1.00D-09 XBig12= 1.53D-14 3.51D-09.
      4 vectors produced by pass156 Test12= 1.32D-13 1.00D-09 XBig12= 1.89D-14 4.02D-09.
      4 vectors produced by pass157 Test12= 1.32D-13 1.00D-09 XBig12= 6.02D-15 2.58D-09.
      4 vectors produced by pass158 Test12= 1.32D-13 1.00D-09 XBig12= 1.61D-14 3.85D-09.
      4 vectors produced by pass159 Test12= 1.32D-13 1.00D-09 XBig12= 1.29D-14 3.35D-09.
      4 vectors produced by pass160 Test12= 1.32D-13 1.00D-09 XBig12= 5.81D-15 2.14D-09.
      4 vectors produced by pass161 Test12= 1.32D-13 1.00D-09 XBig12= 1.31D-14 3.35D-09.
      4 vectors produced by pass162 Test12= 1.32D-13 1.00D-09 XBig12= 6.68D-15 2.43D-09.
      4 vectors produced by pass163 Test12= 1.32D-13 1.00D-09 XBig12= 1.86D-14 3.89D-09.
      4 vectors produced by pass164 Test12= 1.32D-13 1.00D-09 XBig12= 9.14D-15 2.88D-09.
      4 vectors produced by pass165 Test12= 1.32D-13 1.00D-09 XBig12= 1.56D-14 4.05D-09.
      4 vectors produced by pass166 Test12= 1.32D-13 1.00D-09 XBig12= 1.02D-14 2.85D-09.
      4 vectors produced by pass167 Test12= 1.32D-13 1.00D-09 XBig12= 1.57D-14 3.55D-09.
      4 vectors produced by pass168 Test12= 1.32D-13 1.00D-09 XBig12= 1.40D-14 3.57D-09.
      4 vectors produced by pass169 Test12= 1.32D-13 1.00D-09 XBig12= 1.20D-14 3.24D-09.
      4 vectors produced by pass170 Test12= 1.32D-13 1.00D-09 XBig12= 4.67D-15 2.40D-09.
      4 vectors produced by pass171 Test12= 1.32D-13 1.00D-09 XBig12= 7.77D-15 2.89D-09.
      4 vectors produced by pass172 Test12= 1.32D-13 1.00D-09 XBig12= 1.64D-14 3.55D-09.
      4 vectors produced by pass173 Test12= 1.32D-13 1.00D-09 XBig12= 6.66D-15 2.49D-09.
      4 vectors produced by pass174 Test12= 1.32D-13 1.00D-09 XBig12= 8.60D-15 2.43D-09.
      4 vectors produced by pass175 Test12= 1.32D-13 1.00D-09 XBig12= 1.85D-14 3.60D-09.
      4 vectors produced by pass176 Test12= 1.32D-13 1.00D-09 XBig12= 1.03D-14 2.99D-09.
      4 vectors produced by pass177 Test12= 1.32D-13 1.00D-09 XBig12= 7.00D-15 2.78D-09.
      4 vectors produced by pass178 Test12= 1.32D-13 1.00D-09 XBig12= 1.05D-14 3.04D-09.
      4 vectors produced by pass179 Test12= 1.32D-13 1.00D-09 XBig12= 1.22D-14 3.16D-09.
      4 vectors produced by pass180 Test12= 1.32D-13 1.00D-09 XBig12= 8.89D-15 3.24D-09.
      4 vectors produced by pass181 Test12= 1.32D-13 1.00D-09 XBig12= 1.21D-14 2.81D-09.
      4 vectors produced by pass182 Test12= 1.32D-13 1.00D-09 XBig12= 1.52D-14 3.38D-09.
      4 vectors produced by pass183 Test12= 1.32D-13 1.00D-09 XBig12= 1.22D-14 2.79D-09.
      4 vectors produced by pass184 Test12= 1.32D-13 1.00D-09 XBig12= 7.30D-15 2.77D-09.
      4 vectors produced by pass185 Test12= 1.32D-13 1.00D-09 XBig12= 6.41D-15 2.19D-09.
      4 vectors produced by pass186 Test12= 1.32D-13 1.00D-09 XBig12= 9.91D-15 2.85D-09.
      4 vectors produced by pass187 Test12= 1.32D-13 1.00D-09 XBig12= 7.62D-15 2.50D-09.
      4 vectors produced by pass188 Test12= 1.32D-13 1.00D-09 XBig12= 1.62D-14 3.37D-09.
      4 vectors produced by pass189 Test12= 1.32D-13 1.00D-09 XBig12= 9.39D-15 2.96D-09.
      4 vectors produced by pass190 Test12= 1.32D-13 1.00D-09 XBig12= 8.93D-15 2.45D-09.
      4 vectors produced by pass191 Test12= 1.32D-13 1.00D-09 XBig12= 8.07D-15 2.52D-09.
      4 vectors produced by pass192 Test12= 1.32D-13 1.00D-09 XBig12= 1.68D-14 4.34D-09.
      4 vectors produced by pass193 Test12= 1.32D-13 1.00D-09 XBig12= 8.08D-15 2.41D-09.
      3 vectors produced by pass194 Test12= 1.32D-13 1.00D-09 XBig12= 5.66D-15 2.00D-09.
      3 vectors produced by pass195 Test12= 1.32D-13 1.00D-09 XBig12= 8.75D-15 2.62D-09.
      3 vectors produced by pass196 Test12= 1.32D-13 1.00D-09 XBig12= 4.72D-15 1.88D-09.
      3 vectors produced by pass197 Test12= 1.32D-13 1.00D-09 XBig12= 1.10D-14 3.21D-09.
      3 vectors produced by pass198 Test12= 1.32D-13 1.00D-09 XBig12= 1.56D-14 3.26D-09.
      3 vectors produced by pass199 Test12= 1.32D-13 1.00D-09 XBig12= 1.65D-14 3.79D-09.
      3 vectors produced by pass200 Test12= 1.32D-13 1.00D-09 XBig12= 7.22D-15 2.44D-09.
      2 vectors produced by pass201 Test12= 1.32D-13 1.00D-09 XBig12= 6.03D-15 2.23D-09.
 InvSVY:  IOpt=1 It=  1 EMax= 1.11D-15
 Solved reduced A of dimension  2442 with   153 vectors.
 End of Minotr F.D. properties file   721 does not exist.
 End of Minotr F.D. properties file   722 does not exist.
 End of Minotr F.D. properties file   788 does not exist.

 **********************************************************************

            Population analysis using the SCF density.

 **********************************************************************

 Orbital symmetries:
 Alpha Orbitals:
       Occupied  (A) (A) (A) (A) (A) (A) (A) (A) (A) (A) (A) (A)
                 (A) (A) (A) (A) (A) (A) (A) (A) (A) (A) (A) (A)
                 (A) (A) (A) (A) (A) (A) (A) (A) (A) (A) (A) (A)
                 (A) (A) (A) (A) (A) (A) (A) (A) (A) (A) (A) (A)
                 (A) (A) (A) (A) (A) (A) (A) (A) (A) (A) (A) (A)
                 (A) (A) (A) (A) (A) (A) (A) (A) (A) (A) (A) (A)
                 (A) (A) (A) (A) (A) (A) (A) (A) (A) (A) (A) (A)
[...]
 165674,0.00023882,0.00009581,0.00018691,-0.00001546,-0.00001056,0.0000
 0058,0.00000829,0.00002487,-0.00006553,-0.00001267,0.00000206,-0.00000
 304,-0.00000146,-0.00000357,0.00001219,0.00000187,0.00000047,0.0000097
 6,-0.00000652,0.00000954,0.00000778,0.00001080,-0.00001104,0.00001609,
 -0.00000333,0.00000193,-0.00000275,0.00000127,0.00001682,-0.00001445,0
 .00000101,-0.00000176,0.00000382,0.00000216,0.00003552,0.00000315,-0.0
 0000041,-0.00000779,-0.00000021,0.00001080,-0.00000027,0.00000025,-0.0
 0000211,0.00000180,0.00000044,-0.00000050,-0.00000015,-0.00000049,-0.0
 0000088,0.11577693,-0.18408040,0.06922304,0.01256795,-0.01567784,0.008
 26044,-0.12144365,0.19895760,-0.00009749,-0.00006033,0.00053788,0.0000
 9732,-0.00005884,0.00019641,0.00098866,-0.00180858,0.00020428,0.000016
 51,-0.00032780,-0.00010759,-0.01877190,0.02072262,-0.01171970,0.004239
 94,-0.00124011,-0.00398038,0.00015688,0.00023189,0.00005858,-0.0000493
 3,-0.00001501,-0.00003389,-0.00006143,-0.00006923,0.00003588,0.0000254
 0,0.00000567,-0.00002444,-0.00000796,0.00000018,-0.00000381,0.00002306
 ,0.00002723,0.00003657,0.00000558,-0.00000205,-0.00001637,-0.00003156,
 0.00000145,-0.00000624,-0.00000134,-0.00000444,0.00000005,0.00002127,0
 .00000250,-0.00000100,-0.00000146,0.00000055,-0.00000123,0.00000482,0.
 00000036,-0.00001239,-0.00000006,0.00000185,0.00000048,0.00000097,0.00
 000027,0.00000071,0.00000023,0.00000047,-0.00000057,-0.00000137,-0.000
 00125,0.00000031,0.00029013,-0.00083292,-0.00011939,0.00013780,0.00025
 550,-0.00000806,-0.00060410,-0.00024390,0.00046804,-0.00013654,0.00009
 854,0.00020624,-0.00234311,0.00536457,-0.00178416,0.00100757,-0.000489
 02,0.00012585,0.00001898,0.00024591,0.00003526,-0.00000446,-0.00005350
 ,-0.00001740,0.00008639,-0.00004259,0.00000110,-0.00005028,-0.00000345
 ,-0.00000345,0.00000138,0.00000486,0.00000209,0.00002591,0.00005752,-0
 .00000463,0.00000417,-0.00000318,0.00001290,0.00004458,-0.00002582,0.0
 0000094,-0.00000049,0.00000175,0.00000149,-0.00004677,0.00004160,-0.00
 000108,-0.00000034,-0.00000798,0.00000137,-0.00000646,-0.00000785,-0.0
 0000025,0.00000544,-0.00000145,-0.00000100,-0.00000054,0.00000066,-0.0
 0000005,-0.00000143,-0.00000092,-0.00000031,0.00000087,0.00000090,-0.0
 0000040,-0.06016072,0.07080549,-0.07604579,0.01390851,-0.01676093,0.00
 974188,0.06125137,-0.07583520,0.08223785,-0.00000102,0.00002076,0.0000
 2447,-0.00000738,0.00002281,0.00001460,-0.00000310,-0.00000944,-0.0000
 1422,-0.00000773,0.00000018,0.00000706,0.00005864,0.00007807,-0.000146
 37,0.00000708,0.00000150,0.00011194,-0.00000438,-0.00001002,-0.0000214
 1,0.00003571,-0.00002233,-0.00002133,0.00000060,0.00000248,0.00001729,
 -0.00001375,0.00001966,0.00001974,-0.00000261,0.00000732,0.00001248,-0
 .00000331,0.00002351,-0.00002139,0.00000362,-0.00000113,-0.00000022,0.
 00001846,-0.00001429,-0.00001831,-0.00000132,0.00000454,0.00000105,-0.
 00002006,-0.00000514,0.00000005,-0.00000324,-0.00000479,0.00000070,-0.
 00000824,-0.00002325,0.00002084,0.00000716,0.00001350,0.00000064,-0.00
 000182,-0.00000258,-0.00000166,0.00000034,-0.00000200,0.00000163,-0.00
 000127,0.00000130,-0.00000142,-0.00000058,0.00000181,0.00010869,-0.000
 00001,0.00000882,0.00000556,0.00006609,-0.00004358,0.00017408,0.000020
 31,-0.00001227,-0.00000973,-0.00043276,0.00020513,-0.00012701,0.000661
 22,0.00037841,-0.00079076,0.00002172,0.00001277,-0.00003583,0.00001140
 ,-0.00001478,-0.00003936,-0.00000610,-0.00004189,-0.00001258,0.0000223
 6,0.00003085,0.00003117,0.00000031,0.00000197,-0.00000477,-0.00003064,
 0.00000915,-0.00001418,0.00000050,0.00000324,-0.00000293,-0.00001589,0
 .00000025,-0.00000856,-0.00000263,-0.00000150,-0.00000139,0.00001557,0
 .00000348,0.00000783,-0.00001162,0.00000127,-0.00000199,0.00001089,0.0
 0000999,0.00000595,-0.00000521,-0.00000478,0.00001281,0.00000039,-0.00
 000132,-0.00000226,0.00000243,0.00000178,-0.00000378,0.00000180,0.0000
 0194,-0.00000125,-0.00009462,0.00001132,-0.00016347,0.00003607,-0.0000
 2885,0.00002035,-0.00009354,0.00019292,0.00005198,0.03727105,0.0000753
 8,0.00001821,0.00008538,0.00001425,0.00000792,0.00001302,-0.00012535,-
 0.00007200,0.00002837,-0.00003920,-0.00001713,-0.00000099,0.00012074,0
 .00014352,-0.00021029,-0.00009266,-0.00009443,0.00000243,-0.00004433,-
 0.00002071,-0.00002736,0.00001818,-0.00001175,0.00003124,0.00000506,0.
 00001174,-0.00000405,-0.00002574,0.00000118,0.00001529,0.00000594,-0.0
 0000148,-0.00000057,-0.00000913,0.00001005,-0.00003354,0.00000619,0.00
 000233,-0.00000506,0.00003681,0.00000191,-0.00000108,-0.00000443,-0.00
 000316,-0.00000245,-0.00005140,-0.00001539,-0.00001264,0.00000369,-0.0
 0000616,0.00000681,-0.00001099,-0.00001252,0.00000906,0.00000512,0.000
 00887,0.00000040,-0.00000162,-0.00000025,0.00000016,0.00000121,-0.0000
 0159,0.00000155,-0.00000128,0.00000045,-0.00000129,0.00010592,0.000422
 03,0.00004708,-0.00002355,0.00000253,0.00000849,-0.00009609,-0.0010144
 6,-0.00024796,0.00001184,0.00004073,0.00001725,0.00083592,0.00161943,0
 .00045276,0.00085186,-0.00207536,0.00001438,0.00012890,-0.00021983,-0.
 00000917,0.00003994,0.00012066,0.00002224,-0.00009920,-0.00004442,-0.0
 0002858,0.00012724,-0.00000446,0.00000473,-0.00001189,0.00000252,-0.00
 000045,-0.00006454,-0.00016023,-0.00002905,-0.00001307,0.00000635,0.00
 000407,-0.00013532,0.00012147,-0.00000361,0.00000770,-0.00001694,0.000
 00125,0.00017319,-0.00015675,0.00000514,-0.00000314,0.00003026,0.00000
 731,0.00010417,0.00003172,-0.00000957,-0.00003843,-0.00000145,0.000044
 52,0.,0.00000254,-0.00000686,0.00000820,0.00000391,-0.00000323,-0.0000
 0087,-0.00000481,-0.00000284,0.00007732,-0.00007089,0.00016915,-0.0001
 2108,-0.00004420,-0.00004499,0.00006298,-0.00090865,0.00012099,0.00711
 511,0.07663259,0.00004370,-0.00000170,-0.00014196,-0.00004808,0.000052
 62,0.00003621,0.00012505,-0.00000097,0.00000429,0.00000551,0.00000472,
 0.00001886,-0.00007243,-0.00003632,-0.00055740,0.00014235,0.00019465,0
 .00053746,0.00003153,-0.00001419,0.00007991,-0.00001559,0.00001608,-0.
 00001941,-0.00003978,0.00000917,-0.00006480,0.00002665,-0.00005464,-0.
 00000164,-0.00001006,0.00001636,0.00002261,0.00006321,-0.00001673,-0.0
 0006953,-0.00000273,0.00000875,0.00000886,0.00004430,0.00008551,0.0000
 6843,0.00000244,0.00000853,-0.00000454,-0.00003945,-0.00004325,-0.0000
 1238,0.00001161,0.00002730,0.00000511,-0.00005257,-0.00005148,0.000072
 28,-0.00001106,0.00005212,-0.00000839,0.00001178,-0.00000627,-0.000003
 32,-0.00000647,-0.00000530,0.00000454,0.00000453,-0.00000745,-0.000001
 37,-0.00017638,-0.00018287,-0.00017496,0.00002807,0.00003370,-0.000032
 05,0.00031323,0.00064805,-0.00019870,0.00003526,-0.00003345,-0.0000370
 1,-0.00106644,-0.00068742,-0.00031306,0.00043449,0.00090831,0.00288496
 ,-0.00004467,0.00012850,0.00007812,-0.00006030,-0.00003048,0.00008040,
 0.00005010,0.00005651,0.00004464,-0.00009982,-0.00004074,-0.00004952,0
 .00000880,0.00000555,-0.00000209,0.00005948,0.00004175,0.00003050,0.00
 000792,-0.00000344,-0.00001945,0.00009005,-0.00006064,0.00000824,-0.00
 000186,0.00001374,-0.00000464,-0.00009940,0.00006330,-0.00000130,0.000
 02318,-0.00001636,-0.00000829,-0.00004858,-0.00000662,0.00002068,0.000
 03508,0.00001076,-0.00006572,-0.00000140,-0.00000722,0.00000922,-0.000
 00334,-0.00000523,0.00000847,-0.00000554,0.00000383,0.00000450,-0.0004
 5331,0.00026427,0.00009466,0.00015915,0.00003041,0.00005304,0.00023975
 ,0.00030205,0.00004944,0.12457144,-0.09857854,0.68696328,0.00002058,-0
 .00000411,-0.00001333,-0.00000168,0.00001741,0.00001566,-0.00002206,-0
 .00001182,0.00005535,-0.00002227,-0.00001726,0.00000928,0.00004060,0.0
 0003707,-0.00045001,0.00001621,0.00004813,0.00029218,-0.00000948,-0.00
 000708,0.00000240,0.00001960,-0.00000334,-0.00001853,-0.00001057,0.000
 00722,0.00000369,-0.00000951,0.00000506,0.00001369,-0.00000060,0.00000
 341,0.00001160,0.00000447,0.00001406,-0.00002570,0.00000431,-0.0000029
 5,0.00000113,0.00001946,-0.00000022,-0.00000562,0.00000090,0.00000294,
 -0.00000040,-0.00002035,-0.00000742,0.,-0.00000032,-0.00000157,-0.0000
 0013,-0.00001413,-0.00002024,0.00002645,0.00000399,0.00001170,-0.00000
 112,-0.00000020,-0.00000219,-0.00000222,-0.00000107,-0.00000217,0.0000
 0172,0.00000003,0.00000013,-0.00000052,0.00004784,0.00008743,0.0000415
 5,-0.00000252,0.00001627,-0.00001301,0.00000115,-0.00023738,-0.0001972
 3,0.00002906,0.00000248,-0.00001605,-0.00022182,0.00070058,0.00004122,
 0.00116932,0.00027572,0.00165235,0.00002966,-0.00004621,0.00002243,0.0
 0001564,0.00001773,-0.00000555,-0.00002664,-0.00003987,-0.00000521,0.0
 0003926,0.00001481,0.00002005,-0.00000164,0.00000393,-0.00000566,-0.00
 003541,-0.00003516,-0.00001443,-0.00000239,0.00000464,-0.00000947,-0.0
 0003986,0.00002669,-0.00001090,0.00000115,-0.00000359,-0.00000338,0.00
 004992,-0.00003598,0.00001102,-0.00000495,0.00000735,-0.00000416,0.000
 03131,0.00001765,0.00001050,-0.00000625,-0.00000116,0.00000469,0.00000
 028,-0.00000320,-0.00000111,0.00000411,0.00000133,-0.00000183,-0.00000
 066,0.00000162,-0.00000044,-0.00012741,-0.00001803,0.00012262,0.000002
 31,-0.00003207,0.00000391,0.00011900,0.00015158,0.00001045,-0.00728586
 ,0.01190238,-0.05285611,0.12365147,0.00010856,0.00001850,-0.00001201,-
 0.00000993,0.00001730,0.00003526,-0.00009923,-0.00008083,0.00006448,-0
 .00004731,-0.00002930,0.00001246,0.00011685,0.00013982,-0.00070969,-0.
 00002492,0.00000632,0.00036383,-0.00003661,-0.00002878,0.00006306,-0.0
 0002033,0.00003356,0.00002950,-0.00001433,0.00001584,-0.00007905,-0.00
 000290,-0.00006868,0.00000751,0.00000036,0.00000502,0.00000835,0.00003
 268,-0.00001942,-0.00008295,0.00000362,0.00000769,0.00000386,0.0000749
 9,0.00008862,0.00006580,-0.00000197,0.,-0.00000711,-0.00008502,-0.0000
 5427,-0.00002305,0.00001706,0.00002063,0.00000928,-0.00004691,-0.00003
 892,0.00005683,-0.00000628,0.00003689,-0.00000522,0.00000850,-0.000003
 58,-0.00000117,-0.00000558,-0.00000361,0.00000421,0.00000416,-0.000005
 66,-0.00000292,0.00003216,0.00046653,-0.00000030,-0.00001697,0.0000230
 2,0.00001564,-0.00008765,-0.00111630,-0.00004668,0.00004332,0.00004328
 ,-0.00000887,0.00084621,0.00158139,0.00004399,0.00022138,-0.00222622,-
 0.00052013,0.00015814,-0.00023923,-0.00003574,0.00001454,0.00016819,0.
 00007794,-0.00011344,-0.00000780,0.00000130,0.00010764,-0.00005220,-0.
 00001350,-0.00000971,0.00000773,-0.00000346,-0.00003487,-0.00020555,0.
 00000021,-0.00001351,0.00000497,-0.00000842,-0.00014136,0.00013368,-0.
 00001435,0.00001321,-0.00001410,0.00000009,0.00018524,-0.00019018,0.00
 000792,0.00001654,0.00003140,-0.00000186,0.00011975,0.00003463,-0.0000
 0453,-0.00002740,0.00000748,0.00001156,-0.00000139,-0.00000218,-0.0000
 0444,0.00000888,0.00000025,0.00000475,-0.00000685,-0.00000451,-0.00000
 098,0.00006245,-0.00009793,0.00022092,-0.00010159,-0.00008424,-0.00003
 960,0.00000886,0.00014067,0.00002310,0.00792671,0.04658057,-0.05063942
 ,0.15264771,0.21870141,-0.00000247,0.00000748,-0.00012552,-0.00002724,
 0.00002505,0.00002527,0.00009353,0.00001652,0.00010597,-0.00001023,-0.
 00002138,0.00001298,-0.00015882,-0.00010728,-0.00067165,0.00011219,0.0
 0020093,0.00053037,0.00003054,-0.00000565,0.00003208,-0.00000858,0.000
 00007,-0.00002231,-0.00003469,-0.00000288,-0.00002974,0.00002554,-0.00
 001854,-0.00000081,-0.00000663,0.00000749,0.00001635,0.00004127,0.0000
 0178,-0.00003380,0.00000096,-0.00000272,0.00000505,0.00000888,0.000030
 56,0.00002739,0.00000439,0.00000669,-0.00000125,-0.00000540,-0.0000124
 1,0.00000181,0.00000670,0.00001308,0.00000022,-0.00003486,-0.00002684,
 0.00004954,-0.00000835,0.00002680,-0.00000623,0.00000635,-0.00000289,-
 0.00000338,-0.00000387,-0.00000448,0.00000325,0.00000317,-0.00000365,0
 .00000152,0.00001513,-0.00000725,-0.00009545,0.00000553,0.00002156,-0.
 00002195,-0.00009394,0.00007167,-0.00020846,0.00003214,0.00001213,-0.0
 0002943,0.00014790,-0.00045693,-0.00018329,0.00000451,0.00041892,0.001
 43299,-0.00001927,-0.00000736,0.00005438,-0.00002095,0.00002363,0.0000
 8120,0.00000355,0.00003326,0.00002491,-0.00003273,-0.00004165,-0.00004
 916,0.00000148,0.00000474,-0.00000583,0.00002706,-0.00003640,0.0000092
 5,0.00000013,0.00000089,-0.00001621,0.00002563,0.00000471,0.00001357,0
 .00000233,0.00000273,-0.00000365,-0.00001594,-0.00001122,-0.00000252,0
 .00001895,-0.00000063,-0.00000034,-0.00000500,0.00000400,0.00001849,0.
 00001576,0.00001006,-0.00004093,-0.00000058,-0.00000451,0.00000731,0.0
 0000009,-0.00000204,0.00000468,-0.00000484,0.00000077,0.00000316,-0.00
 004214,0.00003667,0.00022754,-0.00000197,0.00001665,0.00000083,0.00008
 328,0.00015391,-0.00006592,-0.05034054,-0.03605947,-0.13409622,0.21965
 003,0.24466610,0.47071663,0.00000972,0.00002509,0.00002511,0.00001732,
 -0.00003877,-0.00001962,-0.00006356,-0.00001984,-0.00000998,0.00000331
 ,0.00000061,-0.00001390,0.00006482,-0.00002914,0.00036480,-0.00009170,
 -0.00010797,-0.00033736,-0.00000715,-0.00000639,0.00001829,-0.00005211
 ,0.00002941,0.00005776,0.00000629,0.00000722,-0.00003690,0.00001175,-0
 .00003675,-0.00002838,0.00000667,-0.00001236,-0.00002514,0.00000162,-0
 .00004408,0.00002456,-0.00000428,0.00000378,-0.00000161,-0.00001545,0.
 00003202,0.00003484,-0.00000101,-0.00000908,-0.00000292,0.00001068,-0.
 00000064,-0.00000777,0.00000716,0.00000730,0.00000259,0.00001332,0.000
 03718,-0.00003706,-0.00001099,-0.00002073,0.00000010,0.00000248,0.0000
 0478,0.00000395,0.00000035,0.00000358,-0.00000223,0.00000186,-0.000001
 80,0.00000100,-0.00003437,0.00025891,-0.00011353,-0.00000978,-0.000019
 01,0.00002128,0.00000922,-0.00057239,0.00000293,-0.00003186,0.00003288
 ,0.00002481,0.00094608,0.00086048,0.00032983,-0.00446571,0.00000314,-0
 .00116531,0.00007737,-0.00013255,-0.00000205,-0.00000965,0.00010549,0.
 00006366,-0.00005093,0.00005794,0.00000092,0.00003272,-0.00005559,-0.0
 0004421,-0.00000693,-0.00000405,0.00000973,0.00003052,-0.00010426,0.00
 001727,-0.00000638,-0.00000464,0.00001326,-0.00004728,0.00006328,0.000
 00960,0.00000776,-0.00000654,0.00000531,0.00006660,-0.00009105,-0.0000
 1420,0.00001850,0.00001406,0.00000940,0.00003525,-0.00000690,-0.000023
 86,-0.00001313,0.00000719,0.00000830,-0.00000089,0.00000559,-0.0000011
 9,-0.00000064,-0.00000112,0.00000497,-0.00000349,-0.00000719,0.0000002
 4,0.00026150,-0.00024419,0.00007523,-0.00013452,-0.00001695,-0.0000559
 1,-0.00014823,-0.00018226,-0.00004706,-0.03021506,-0.02083193,-0.07135
 328,-0.11745399,-0.16182347,-0.16948801,0.15123619,-0.00027575,-0.0000
 4301,-0.00014760,-0.00000980,-0.00002898,-0.00006801,0.00037349,0.0002
 1469,-0.00011836,0.00012650,0.00006867,-0.00001613,-0.00048106,-0.0004
 4938,0.00134245,0.00019986,0.00017857,-0.00053956,0.00012919,0.0000745
 1,-0.00003382,-0.00000089,-0.00003657,-0.00009586,0.00000413,-0.000038
 17,0.00011154,0.00004820,0.00009019,-0.00003580,-0.00001018,-0.0000018
 8,-0.00000763,-0.00001742,0.00000752,0.00015977,-0.00001420,-0.0000122
 1,0.00000269,-0.00015883,-0.00011438,-0.00008041,0.00000984,0.00000642
 ,0.00001350,0.00019454,0.00009502,0.00005056,-0.00002613,-0.00001517,-
 0.00002319,0.00007544,0.00006935,-0.00008444,-0.00000073,-0.00005933,0
 .00000463,-0.00000778,0.00000493,0.00000149,0.00000516,0.00000696,-0.0
 0000782,-0.00000348,0.00000576,0.00000664,-0.00014501,-0.00130616,-0.0
 0009344,0.00005266,-0.00004295,-0.00003534,0.00001441,0.00310429,0.000
 38720,-0.00008186,-0.00010042,-0.00001131,-0.00127183,-0.00570116,-0.0
 0080088,0.00038882,0.00328920,0.00035421,-0.00044081,0.00064465,0.0000
 4681,-0.00008164,-0.00041747,-0.00012257,0.00031093,0.00009108,0.00004
 780,-0.00035291,0.00007070,-0.00000113,0.00003121,-0.00001375,0.000004
 96,0.00014675,0.00052294,0.00004584,0.00003780,-0.00001664,0.00000315,
 0.00041322,-0.00037424,0.00003012,-0.00002871,0.00004567,-0.00000098,-
 0.00052421,0.00049912,-0.00002075,-0.00001436,-0.00008862,-0.00000782,
 -0.00032298,-0.00009405,0.00002245,0.00009815,-0.00000644,-0.00008987,
 0.00000143,-0.00000153,0.00001764,-0.00002504,-0.00000693,-0.00000065,
 0.00001033,0.00001380,0.00000604,-0.00015754,0.00047402,-0.00050783,0.
 00029487,0.00025472,0.00012679,-0.00002288,-0.00034563,-0.00012010,-0.
 01586865,-0.12084449,0.14754422,-0.16549402,-0.26374190,-0.20898266,0.
 18287174,0.38406866,-0.00005166,-0.00001449,0.00026242,0.00007404,-0.0
 0008205,-0.00006661,-0.00020208,0.00000437,-0.00013435,0.00001441,0.00
 002541,-0.00003352,0.00024168,0.00014197,0.00136171,-0.00025496,-0.000
 41029,-0.00112379,-0.00005588,0.00001978,-0.00011452,0.00002250,-0.000
 01527,0.00003742,0.00007470,-0.00000592,0.00010086,-0.00005069,0.00007
 664,0.00000185,0.00001649,-0.00002388,-0.00004011,-0.00010576,0.000015
 97,0.00010942,0.00000061,-0.00000559,-0.00001360,-0.00005825,-0.000121
 25,-0.00009899,-0.00000633,-0.00001484,0.00000605,0.00005241,0.0000588
 7,0.00001264,-0.00001927,-0.00004036,-0.00000637,0.00009081,0.00007948
 ,-0.00012579,0.00001950,-0.00007992,0.00001512,-0.00001821,0.00000897,
 0.00000672,0.00001032,0.00001011,-0.00000791,-0.00000773,0.00001129,-0
 .00000029,0.00015072,0.00012405,0.00031087,-0.00003221,-0.00005866,0.0
 0006919,-0.00025046,-0.00062963,0.00066166,-0.00006769,0.00001677,0.00
 005851,0.00095303,0.00080942,0.00033180,-0.00053034,-0.00146855,-0.005
 87400,0.00005162,-0.00009225,-0.00015508,0.00007826,-0.00000924,-0.000
 18095,-0.00003851,-0.00008625,-0.00007956,0.00011805,0.00008612,0.0001
 0533,-0.00000814,-0.00001039,0.00000603,-0.00008194,0.00002025,-0.0000
 2998,-0.00000529,0.00000203,0.00003454,-0.00010089,0.00004005,-0.00002
 066,-0.00000202,-0.00001451,0.00000922,0.00009255,-0.00002833,0.000003
 81,-0.00004300,0.00001249,0.00000657,0.00003912,-0.00000170,-0.0000363
 5,-0.00004664,-0.00002149,0.00010257,0.00000203,0.00001169,-0.00001622
 ,0.00000222,0.00000691,-0.00001308,0.00001117,-0.00000401,-0.00000722,
 0.00055516,-0.00030879,-0.00050961,-0.00016015,-0.00005438,-0.00004398
 ,-0.00039753,-0.00038211,0.00000387,-0.07341566,0.13421056,-0.55530095
 ,-0.16836185,-0.19353253,-0.33769270,0.24170172,0.06172348,0.89810802\
 \0.00000041,0.00000043,-0.00000088,-0.00000038,0.00000094,-0.00000080,
 0.00000032,0.00000164,-0.00000075,-0.00000020,0.00000187,-0.00000047,-
 0.00000038,0.00000040,-0.00000120,0.00000043,0.00000132,-0.00000134,-0
 .00000005,0.00000110,-0.00000046,0.00000021,0.00000128,-0.00000074,-0.
 00000050,0.00000210,-0.00000053,0.00000004,0.00000137,-0.00000055,0.00
 000032,0.00000003,-0.00000110,-0.00000012,0.00000200,-0.00000087,-0.00
 000031,0.00000229,-0.00000028,-0.00000019,0.00000203,-0.00000001,0.000
 00065,-0.00000007,-0.00000134,-0.00000075,0.00000324,0.00000039,-0.000
 00046,0.00000190,-0.00000064,-0.00000078,0.00000333,-0.00000005,-0.000
 00168,0.00000295,0.00000022,-0.00000157,0.00000288,0.00000077,-0.00000
 147,0.00000367,0.00000040,-0.00000133,0.00000279,0.00000008,-0.0000001
 4,-0.00000097,-0.00000005,-0.00000139,-0.00000012,0.00000109,0.0000007
 5,-0.00000091,-0.00000019,0.00000123,-0.00000182,0.00000007,0.00000360
 ,0.00000228,-0.00000110,-0.00000293,-0.00000530,-0.00000351,-0.0000002
 1,-0.00000138,0.00000069,-0.00000092,-0.00000177,0.00000141,0.00000032
 ,-0.00000159,0.00000042,-0.00000107,-0.00000168,0.00000158,-0.00000052
 ,-0.00000114,0.00000158,-0.00000034,-0.00000236,0.00000102,0.,-0.00000
 106,-0.00000009,-0.00000079,-0.00000137,0.00000186,-0.00000075,-0.0000
 0189,0.00000160,-0.00000092,-0.00000273,0.00000374,-0.00000127,-0.0000
 0253,0.00000276,-0.00000058,-0.00000255,0.00000108,0.00000036,-0.00000
 295,0.00000126,0.00000030,-0.00000348,0.00000105,0.00000008,-0.0000033
 2,0.00000133,-0.00000060,-0.00000324,0.00000216,0.00000058,0.00000475,
 -0.00000232,0.00000242,-0.00000114,-0.00000014,0.00000438,-0.00000335,
 0.00000193,0.00000187,0.00000153,-0.00000652,0.00000249,0.00000057,-0.
 00000235,0.00000187,0.00000007,-0.00000022\\\@


 IBM COMPATIBILITY IS LIKE PREGNANCY. YOU ARE OR
 OR YOU ARE NOT. -- ADAM OSBORNE
 Job cpu time:       0 days 13 hours  5 minutes 17.9 seconds.
 Elapsed time:       0 days 13 hours  6 minutes 42.0 seconds.
 File lengths (MBytes):  RWF=   9626 Int=      0 D2E=      0 Chk=     82 Scr=      1
 Normal termination of Gaussian 16 at Wed Nov 27 05:51:17 2024.
