
                                 *****************
                                 * O   R   C   A *
                                 *****************

                                            #,                                       
                                            ###                                      
                                            ####                                     
                                            #####                                    
                                            ######                                   
                                           ########,                                 
                                     ,,################,,,,,                         
                               ,,#################################,,                 
                          ,,##########################################,,             
                       ,#########################################, ''#####,          
                    ,#############################################,,   '####,        
                  ,##################################################,,,,####,       
                ,###########''''           ''''###############################       
              ,#####''   ,,,,##########,,,,          '''####'''          '####       
            ,##' ,,,,###########################,,,                        '##       
           ' ,,###''''                  '''############,,,                           
         ,,##''                                '''############,,,,        ,,,,,,###''
      ,#''                                            '''#######################'''  
     '                                                          ''''####''''         
             ,#######,   #######,   ,#######,      ##                                
            ,#'     '#,  ##    ##  ,#'     '#,    #''#        ,####,   ,####,        
            ##       ##  ##   ,#'  ##            #'  '#       #'       #'  '#        
            ##       ##  #######   ##           ,######,      #####,   #    #        
            '#,     ,#'  ##    ##  '#,     ,#' ,#      #,     #,   #   #,  ,#        
             '#######'   ##     ##  '#######'  #'      '#     '####' # '####'        



                #########################################################
                #                        -***-                          #
                #          Department of theory and spectroscopy        #
                #                                                       #
                #                      Frank Neese                      #
                #                                                       #
                #     Directorship, Architecture, Infrastructure        #
                #                    SHARK, DRIVERS                     #
                #        Core code/Algorithms in most modules           #
                #                                                       #
                #        Max Planck Institute fuer Kohlenforschung      #
                #                Kaiser Wilhelm Platz 1                 #
                #                 D-45470 Muelheim/Ruhr                 #
                #                      Germany                          #
                #                                                       #
                #                  All rights reserved                  #
                #                        -***-                          #
                #########################################################


                         Program Version 6.0.0  -   RELEASE  -


 With contributions from (in alphabetic order):
   Daniel Aravena         : Magnetic Suceptibility
   Michael Atanasov       : Ab Initio Ligand Field Theory (pilot matlab implementation)
   Alexander A. Auer      : GIAO ZORA, VPT2 properties, NMR spectrum
   Ute Becker             : All parallelization in ORCA, NUMFREQ, NUMCALC
   Giovanni Bistoni       : ED, misc. LED, open-shell LED, HFLD
   Martin Brehm           : Molecular dynamics
   Dmytro Bykov           : pre 5.0 version of the SCF Hessian
   Marcos Casanova-Páez   : Triplet and SCS-CIS(D). UHF-(DLPNO)-IP/EA/STEOM-CCSD. UHF-CVS-IP/STEOM-CCSD
   Vijay G. Chilkuri      : MRCI spin determinant printing, contributions to CSF-ICE
   Pauline Colinet        : FMM embedding
   Dipayan Datta          : RHF DLPNO-CCSD density
   Achintya Kumar Dutta   : EOM-CC, STEOM-CC
   Nicolas Foglia         : Exact transition moments, OPA infrastructure, MCD improvements
   Dmitry Ganyushin       : Spin-Orbit,Spin-Spin,Magnetic field MRCI
   Miquel Garcia          : C-PCM and meta-GGA Hessian, CCSD/C-PCM, Gaussian charge scheme
   Tiago L. C. Gouveia    : GS-ROHF, GS-ROCIS
   Yang Guo               : DLPNO-NEVPT2, F12-NEVPT2, CIM, IAO-localization
   Andreas Hansen         : Spin unrestricted coupled pair/coupled cluster methods
   Ingolf Harden          : AUTO-CI MPn and infrastructure 
   Benjamin Helmich-Paris : MC-RPA, TRAH-(SCF,CASSCF), AVAS, COSX integrals, SCF dyn. polar.
   Lee Huntington         : MR-EOM, pCC
   Robert Izsak           : Overlap fitted RIJCOSX, COSX-SCS-MP3, EOM
   Riya Kayal             : Wick's Theorem for AUTO-CI, AUTO-CI UHF-CCSDT
   Emily Kempfer          : AUTO-CI, RHF CISDT and CCSDT
   Christian Kollmar      : KDIIS, OOCD, Brueckner-CCSD(T), CCSD density, CASPT2, CASPT2-K, improved NEVPT2
   Axel Koslowski         : Symmetry handling
   Simone Kossmann        : Meta GGA functionals, TD-DFT gradient, OOMP2, (MP2 Hessian; deprecated post 5.0)
   Lucas Lang             : DCDCAS
   Marvin Lechner         : AUTO-CI (C++ implementation), FIC-MRCC
   Spencer Leger          : CASSCF response
   Dagmar Lenk            : GEPOL surface, SMD, ORCA-2-JSON
   Dimitrios Liakos       : Extrapolation schemes; Compound Job, initial MDCI parallelization
   Dimitrios Manganas     : Further ROCIS development; embedding schemes. LFT, Crystal Embedding
   Dimitrios Pantazis     : SARC Basis sets
   Anastasios Papadopoulos: AUTO-CI, single reference methods and gradients
   Taras Petrenko         : pre 6.0 DFT Hessian and TD-DFT gradient, (ASA, deprecated), ECA, 1-Electron XAS/XES, NRVS
   Peter Pinski           : DLPNO-MP2, DLPNO-MP2 Gradient
   Christoph Reimann      : Effective Core Potentials
   Marius Retegan         : Local ZFS, SOC
   Christoph Riplinger    : Optimizer, TS searches, QM/MM, DLPNO-CCSD(T), (RO)-DLPNO pert. Triples
   Michael Roemelt        : Original ROCIS implementation
   Masaaki Saitow         : Open-shell DLPNO-CCSD energy and density
   Barbara Sandhoefer     : DKH picture change effects
   Kantharuban Sivalingam : CASSCF convergence/infrastructure, NEVPT2 and variants, FIC-MRCI
   Bernardo de Souza      : ESD, SOC TD-DFT
   Georgi Stoychev        : AutoAux, RI-MP2 NMR, DLPNO-MP2 response, X2C
   Van Anh Tran           : RI-MP2 g-tensors
   Willem Van den Heuvel  : Paramagnetic NMR
   Zikuan Wang            : NOTCH, Electric field optimization 
   Frank Wennmohs         : Technical directorship and infrastructure
   Hang Xu                : AUTO-CI-Response properties 


 We gratefully acknowledge several colleagues who have allowed us to
 interface, adapt or use parts of their codes:
   Stefan Grimme, W. Hujo, H. Kruse, P. Pracht,  : VdW corrections, initial TS optimization,
                  C. Bannwarth, S. Ehlert,         DFT functionals, gCP, sTDA/sTD-DF
                  L. Wittmann, M. Mueller
   Ed Valeev, F. Pavosevic, A. Kumar             : LibInt (2-el integral package), F12 methods
   Garnet Chan, S. Sharma, J. Yang, R. Olivares  : DMRG
   Ulf Ekstrom                                   : XCFun DFT Library
   Mihaly Kallay                                 : mrcc  (arbitrary order and MRCC methods)
   Frank Weinhold                                : gennbo (NPA and NBO analysis)
   Simon Mueller                                 : openCOSMO-RS
   Christopher J. Cramer and Donald G. Truhlar   : smd solvation model
   Lars Goerigk                                  : TD-DFT with DH, B97 family of functionals
   V. Asgeirsson, H. Jonsson                     : NEB implementation
   FAccTs GmbH                                   : IRC, NEB, NEB-TS, DLPNO-Multilevel, CI-OPT
                                                   MM, QMMM, 2- and 3-layer-ONIOM, Crystal-QMMM,
                                                   LR-CPCM, SF, NACMEs, symmetry and pop. for TD-DFT,
                                                   nearIR, NL-DFT gradient (VV10), updates on ESD,
                                                   ML-optimized integration grids, MBIS, APM,
                                                   GOAT, DOCKER, SOLVATOR, interface openCOSMO-RS
   S Lehtola, MJT Oliveira, MAL Marques          : LibXC Library
   Liviu Ungur et al                             : ANISO software


 Your calculation uses the libint2 library for the computation of 2-el integrals
 For citations please refer to: http://libint.valeyev.net

 Your ORCA version has been built with support for libXC version: 6.2.2
 For citations please refer to: https://libxc.gitlab.io

 This ORCA versions uses:
   CBLAS   interface :  Fast vector & matrix operations
   LAPACKE interface :  Fast linear algebra routines
   SCALAPACK package :  Parallel linear algebra routines
   Shared memory     :  Shared parallel matrices
   BLAS/LAPACK       :  OpenBLAS 0.3.27  USE64BITINT DYNAMIC_ARCH NO_AFFINITY Cooperlake SINGLE_THREADED
        Core in use  :  Cooperlake
   Copyright (c) 2011-2014, The OpenBLAS Project


NOTE: MaxCore=2000 MB was set to SCF,MP2,MDCI,CIPSI,MRCI and CIS
      => If you want to overwrite this, your respective input block should be placed after the MaxCore statement
Your calculation utilizes the DFT-NL dispersion correction.
Cite in your paper:
Vydrov, O. A.; Van Voorhis, T. J. Chem. Phys. 2010, 133, 244103
Hujo, W.; Grimme, S. J. Chem. Theory Comput. 2011, 7, 3866 
   

Warning: RI is on but no J-basis has been assigned. Assigning Def2/J (nothing to worry about!)
================================================================================

----- Orbital basis set information -----
Your calculation utilizes the basis: 6-311+G(d)
   H, Li - Ne  : R. Krishnan, J. S. Binkley, R. Seeger and J. A. Pople, J. Chem. Phys. 72, 650 (1980).
   Na - Ar     : A. D. McLean and G. S. Chandler J. Chem. Phys. 72, 5639, (1980).
   K  - Ca     : J.-P. Blaudeau, M. P. McGrath, L. A. Curtiss and L. Radom, J. Chem. Phys. 107, 5016 (1997).
   Ga - Kr     : L. A. Curtiss, M. P. McGrath, J.-P. Blandeau, N. E. Davis, R. C. Binning and L. Radom, J. Chem. Phys. 103, 6104 (1995).
   Pol./Diff.
   H, Li - Cl  : T. Clark, J. Chandrasekhar and P. v. R. Schleyer, J. Comp. Chem. 4, 294 (1983).
   H - Ne      : M. J. Frisch, J. A. Pople and J. S. Binkley, J. Chem. Phys. 80, 3265 (1984).

----- AuxJ basis set information -----
Your calculation utilizes the auxiliary basis: def2/J
   F. Weigend, Phys. Chem. Chem. Phys. 8, 1057 (2006).

================================================================================
                                        WARNINGS
                       Please study these warnings very carefully!
================================================================================

Using LibXC functional ID 531 : wB97M-V exchange-correlation functional
[ 1]  N. Mardirossian and M. Head-Gordon.,  J. Chem. Phys. 144, 214110 (2016)
Using LibXC functional ID 531 : wB97M-V exchange-correlation functional
[ 1]  N. Mardirossian and M. Head-Gordon.,  J. Chem. Phys. 144, 214110 (2016)

WARNING: B97M-V or wB97M-V functional requested.
  ===> : libXC variant has now been activated.
         Any manually given DFX/HFX/RangeSep scaling parameters are IGNORED!

Your calculation utilizes LibXC
 by S Lehtola, C Steigemann, MJT Oliveira & MAL Marques
Please cite in your paper:
 S Lehtola, C Steigemann, MJT Oliveira & MAL Marques, SoftwareX, 7, (2018), 1.
   


WARNING: your system is open-shell and RHF/RKS was chosen
  ===> : WILL SWITCH to UHF/UKS


WARNING: Geometry Optimization
  ===> : Switching off AutoStart
         For restart on a previous wavefunction, please use MOREAD

WARNING: Analytic gradients for DFT-NL dispersion can only be done using the self-consistent method,
  ===>   Switching to SCNL

WARNING: Self-consistent DFT-NL dispersion not compatible with AutoTRAH.
  ===>   Switching AutoTRAH off


================================================================================
                                       INPUT FILE
================================================================================
NAME = CURCUMIN-OPT-FREQ-Reag-1-wB97XM-V-6-311+G-D-363.inp
|  1> ! Opt NumFreq wb97M-V 6-311+G(d) CPCM RIJDX
|  2> %maxcore 2000
|  3> %cpcm
|  4> epsilon 7 # Dielectric constant
|  5> refrac 1.85341 # Refractive index
|  6> end
|  7> %FREQ temp 363.15 # temperature is 363.15K
|  8> end
|  9> * xyz 0 2
| 10>   C   2.04282949689680      1.10642109126677      1.25857610365745
| 11>   H   1.76183593521287      2.14170104494026      1.43154019110643
| 12>   C   1.30526771624491      0.11472627501997      1.80921972620100
| 13>   H   1.56593344286623     -0.93355467593577      1.69387454800927
| 14>   C   0.11411159771150      0.34620422003843      2.63771879464600
| 15>   O   -0.41598847745808     -0.58485244340264      3.22583016099370
| 16>   C   3.20316560569868      0.92523381357435      0.43026345846668
| 17>   C   3.91212072996212      2.01696928113518     -0.03409745785275
| 18>   C   3.63526190449968     -0.45144102892005      0.03205421081999
| 19>   C   5.04606229374425      1.88019300823798     -0.83227494272680
| 20>   H   3.57759701970571      3.01257447405671      0.23941772688480
| 21>   C   4.90807518751008     -0.52831596027968     -0.73863565136708
| 22>   H   3.65906568139434     -1.15373844949862      0.86931648116544
| 23>   C   5.54350622062813      0.59453551845194     -1.17880424482879
| 24>   H   5.56949874227606      2.76068088402195     -1.19080706231165
| 25>   O   6.66116761654444      0.44316436272899     -1.93984430973144
| 26>   H   7.04244143670158      1.30096809416374     -2.16404852710624
| 27>   O   5.30588589646416     -1.79158007738608     -1.04573846613097
| 28>   C   6.56284717244152     -2.20010430502534     -0.47166706330310
| 29>   H   6.51226273639462     -2.12917888915169      0.61738736588211
| 30>   H   6.70429555047884     -3.23671564343281     -0.76822789978980
| 31>   H   7.37764710816799     -1.58571591942618     -0.85323561321858
| 32>   C   -2.81292411022224      0.67923341290020      1.26148994307348
| 33>   H   -2.55794439327277      0.30613264270537      2.25025603059031
| 34>   C   -2.08597939494460      1.67610445991667      0.73094201577463
| 35>   H   -2.30296602892540      2.08724705423812     -0.25083170681093
| 36>   C   -0.95296196834400      2.31432314352932      1.41434793151103
| 37>   O   -0.39852794245651      3.28436255910528      0.91864478298445
| 38>   C   -3.95425288832921      0.00583541633838      0.63692293826451
| 39>   C   -4.54696806318934     -1.06999803980805      1.30244835041836
| 40>   C   -4.47922283764955      0.39232550401018     -0.60532809719542
| 41>   C   -5.62263836884771     -1.75212265468186      0.74674040744698
| 42>   H   -4.15733419542046     -1.38429299338384      2.26577689765757
| 43>   C   -5.54888334924658     -0.27779249596514     -1.16500134587500
| 44>   H   -4.06204205873653      1.22383338688412     -1.16365520569301
| 45>   C   -6.12821108528327     -1.36560399787401     -0.48967891713528
| 46>   H   -6.06980703624693     -2.59428266011061      1.26722167712356
| 47>   O   -7.16593832728664     -1.99267103098695     -1.10111378967094
| 48>   H   -7.48980384789079     -2.72114121096250     -0.55635284731517
| 49>   O   -6.01525971677166      0.08995459757574     -2.40406134481266
| 50>   C   -7.24172771510735      0.83033283211333     -2.35146647853884
| 51>   H   -7.09491335502391      1.76373511298960     -1.80060666187453
| 52>   H   -7.51376163506342      1.05103464540597     -3.38179208593447
| 53>   H   -8.03140615377513      0.24119970293242     -1.88072069808259
| 54>   C   -0.46191582666554      1.75448868905079      2.74818238312848
| 55>   H   -1.28123798601803      1.71653604321726      3.46819660393111
| 56>   H   0.29720951560111      2.44070106973071      3.12902689230574
| 57>   O   2.11865007573697     -2.17775173728270     -0.60179563083033
| 58>   O   2.17748374074447     -0.42267547034219     -1.85060501508087
| 59>   N   2.53196433854859     -1.07423265642301     -0.89019555882585
| 60> *
| 61> 
| 62> 
| 63>                          ****END OF INPUT****
================================================================================

                       *****************************
                       * Geometry Optimization Run *
                       *****************************

Geometry optimization settings:
Update method            Update   .... BFGS
Choice of coordinates    CoordSys .... (2022) Redundant Internals
Initial Hessian          InHess   .... Almloef's Model
Max. no of cycles        MaxIter  .... 150

Convergence Tolerances:
Energy Change            TolE     ....  5.0000e-06 Eh
Max. Gradient            TolMAXG  ....  3.0000e-04 Eh/bohr
RMS Gradient             TolRMSG  ....  1.0000e-04 Eh/bohr
Max. Displacement        TolMAXD  ....  4.0000e-03 bohr
RMS Displacement         TolRMSD  ....  2.0000e-03 bohr
Strict Convergence                .... False

------------------------------------------------------------------------------
                        ORCA OPTIMIZATION COORDINATE SETUP
------------------------------------------------------------------------------

The optimization will be done in redundant internal coordinates (2022)
Making redundant internal coordinates   ...  (2022 redundants) done
Evaluating the initial hessian          ...  (Almloef) done
Evaluating the coordinates              ...  done
Calculating the B-matrix                .... done
Calculating the G-matrix                .... done
Diagonalizing the G-matrix              .... done
Small eigenvalue found = 1.235e-03
Small eigenvalue found = 1.434e-03
Small eigenvalue found = 2.515e-03
Small eigenvalue found = 7.407e-03
Small eigenvalue found = 1.014e-02
Small eigenvalue found = 1.564e-02
Small eigenvalue found = 2.385e-02
Small eigenvalue found = 2.667e-02
Small eigenvalue found = 2.942e-02
The first mode is                       ....   93
The number of degrees of freedom        ....  144

    -----------------------------------------------------------------
                    Redundant Internal Coordinates


    -----------------------------------------------------------------
         Definition                    Initial Value    Approx d2E/dq
    -----------------------------------------------------------------
      1. B(H   1,C   0)                  1.0866         0.364639   
      2. B(C   2,C   0)                  1.3530         0.715710   
      3. B(H   3,C   2)                  1.0863         0.364969   
      4. B(C   4,C   2)                  1.4693         0.466894   
      5. B(O   5,C   4)                  1.2222         1.036588   
      6. B(C   6,C   0)                  1.4371         0.525489   
      7. B(C   7,C   6)                  1.3821         0.643251   
      8. B(C   8,C   6)                  1.4968         0.421980   
      9. B(C   9,C   7)                  1.3934         0.616996   
     10. B(H  10,C   7)                  1.0853         0.366328   
     11. B(C  11,C   8)                  1.4899         0.432801   
     12. B(H  12,C   8)                  1.0931         0.356065   
     13. B(C  13,C  11)                  1.3632         0.689438   
     14. B(C  13,C   9)                  1.4214         0.556676   
     15. B(H  14,C   9)                  1.0853         0.366425   
     16. B(O  15,C  13)                  1.3606         0.623396   
     17. B(H  16,O  15)                  0.9651         0.510260   
     18. B(O  17,C  11)                  1.3596         0.625809   
     19. B(C  18,O  17)                  1.4410         0.464036   
     20. B(H  19,C  18)                  1.0925         0.356764   
     21. B(H  20,C  18)                  1.0874         0.363507   
     22. B(H  21,C  18)                  1.0895         0.360789   
     23. B(H  23,C  22)                  1.0871         0.363901   
     24. B(C  24,C  22)                  1.3430         0.742514   
     25. B(H  25,C  24)                  1.0863         0.365057   
     26. B(C  26,C  24)                  1.4690         0.467333   
     27. B(O  27,C  26)                  1.2223         1.036047   
     28. B(C  28,C  22)                  1.4650         0.474357   
     29. B(C  29,C  28)                  1.3970         0.608899   
     30. B(C  30,C  28)                  1.4029         0.595857   
     31. B(C  31,C  29)                  1.3897         0.625563   
     32. B(H  32,C  29)                  1.0856         0.365924   
     33. B(C  33,C  30)                  1.3807         0.646397   
     34. B(H  34,C  30)                  1.0850         0.366807   
     35. B(C  35,C  33)                  1.4054         0.590534   
     36. B(C  35,C  31)                  1.3906         0.623450   
     37. B(H  36,C  31)                  1.0863         0.364999   
     38. B(O  37,C  35)                  1.3579         0.629592   
     39. B(H  38,O  37)                  0.9656         0.509428   
     40. B(O  39,C  33)                  1.3741         0.593365   
     41. B(C  40,O  39)                  1.4336         0.476812   
     42. B(H  41,C  40)                  1.0937         0.355202   
     43. B(H  42,C   2)                 10.2761         0.000000   
     44. B(H  42,C  40)                  1.0882         0.362426   
     45. B(H  43,C  40)                  1.0919         0.357580   
     46. B(C  44,C  26)                  1.5276         0.376841   
     47. B(C  44,C   4)                  1.5255         0.379745   
     48. B(H  45,C  44)                  1.0914         0.358255   
     49. B(H  46,C  44)                  1.0919         0.357622   
     50. B(N  49,O  48)                  1.2135         0.958551   
     51. B(N  49,O  47)                  1.2132         0.959730   
     52. B(N  49,C   8)                  1.5671         0.292002   
     53. A(C   2,C   0,C   6)          125.6120         0.432365   
     54. A(H   1,C   0,C   2)          119.5107         0.362399   
     55. A(H   1,C   0,C   6)          114.8766         0.343934   
     56. A(H   3,C   2,C   4)          113.9800         0.337254   
     57. A(C   0,C   2,H   3)          122.2257         0.362455   
     58. A(C   0,C   2,C   4)          123.7754         0.423299   
     59. A(C   2,C   4,C  44)          119.4967         0.378625   
     60. A(C   2,C   4,O   5)          120.1947         0.449543   
     61. A(O   5,C   4,C  44)          120.3065         0.433071   
     62. A(C   0,C   6,C   7)          120.5461         0.424169   
     63. A(C   0,C   6,C   8)          120.1567         0.393666   
     64. A(C   7,C   6,C   8)          119.2781         0.407933   
     65. A(C   9,C   7,H  10)          119.0273         0.353644   
     66. A(C   6,C   7,C   9)          122.1653         0.436571   
     67. A(C   6,C   7,H  10)          118.8056         0.356152   
     68. A(H  12,C   8,N  49)          102.1680         0.309163   
     69. A(C   6,C   8,C  11)          115.5735         0.380574   
     70. A(C   6,C   8,H  12)          113.1684         0.330282   
     71. A(C  11,C   8,N  49)          106.0531         0.355053   
     72. A(C   6,C   8,N  49)          108.5933         0.353533   
     73. A(C  11,C   8,H  12)          110.1486         0.331669   
     74. A(C  13,C   9,H  14)          118.9791         0.347568   
     75. A(C   7,C   9,H  14)          120.1391         0.353660   
     76. A(C   7,C   9,C  13)          120.8788         0.425383   
     77. A(C  13,C  11,O  17)          123.7809         0.440290   
     78. A(C   8,C  11,O  17)          114.5032         0.405154   
     79. A(C   8,C  11,C  13)          121.5152         0.414840   
     80. A(C  11,C  13,O  15)          118.1557         0.439983   
     81. A(C   9,C  13,O  15)          121.6319         0.423396   
     82. A(C   9,C  13,C  11)          120.2097         0.433943   
     83. A(C  13,O  15,H  16)          110.8282         0.369267   
     84. A(C  11,O  17,C  18)          115.3834         0.407537   
     85. A(O  17,C  18,H  21)          110.6691         0.334229   
     86. A(H  19,C  18,H  20)          109.8619         0.290844   
     87. A(O  17,C  18,H  20)          105.9663         0.334646   
     88. A(O  17,C  18,H  19)          109.7752         0.333607   
     89. A(H  20,C  18,H  21)          110.1682         0.291358   
     90. A(H  19,C  18,H  21)          110.3120         0.290502   
     91. A(C  24,C  22,C  28)          126.4747         0.427304   
     92. A(H  23,C  22,C  28)          114.3760         0.337981   
     93. A(H  23,C  22,C  24)          119.1491         0.364557   
     94. A(H  25,C  24,C  26)          114.2098         0.337320   
     95. A(C  22,C  24,C  26)          123.7910         0.426164   
     96. A(C  22,C  24,H  25)          121.9956         0.364755   
     97. A(C  24,C  26,O  27)          120.3944         0.449577   
     98. A(O  27,C  26,C  44)          119.9419         0.432433   
     99. A(C  24,C  26,C  44)          119.6627         0.378184   
    100. A(C  29,C  28,C  30)          118.3741         0.429582   
    101. A(C  22,C  28,C  30)          122.8474         0.410868   
    102. A(C  22,C  28,C  29)          118.7783         0.412449   
    103. A(C  31,C  29,H  32)          119.3760         0.354405   
    104. A(C  28,C  29,H  32)          119.5640         0.352788   
    105. A(C  28,C  29,C  31)          121.0583         0.433353   
    106. A(C  33,C  30,H  34)          117.4669         0.356526   
    107. A(C  28,C  30,H  34)          121.5281         0.351642   
    108. A(C  28,C  30,C  33)          121.0048         0.434220   
    109. A(C  35,C  31,H  36)          119.4608         0.354050   
    110. A(C  29,C  31,H  36)          120.5016         0.354253   
    111. A(C  29,C  31,C  35)          120.0355         0.435199   
    112. A(C  35,C  33,O  39)          120.0379         0.424128   
    113. A(C  30,C  33,O  39)          119.9056         0.431055   
    114. A(C  30,C  33,C  35)          120.0159         0.433520   
    115. A(C  33,C  35,O  37)          117.1357         0.428654   
    116. A(C  31,C  35,O  37)          123.3560         0.432849   
    117. A(C  31,C  35,C  33)          119.5075         0.430713   
    118. A(C  35,O  37,H  38)          110.5289         0.369792   
    119. A(C  33,O  39,C  40)          113.2984         0.405663   
    120. A(H  41,C  40,H  42)          109.7140         0.290508   
    121. A(O  39,C  40,H  42)          106.4910         0.335994   
    122. A(O  39,C  40,H  41)          110.1444         0.334871   
    123. A(H  42,C  40,H  43)          109.6828         0.290813   
    124. A(H  41,C  40,H  43)          109.9010         0.289895   
    125. A(O  39,C  40,H  43)          110.8481         0.335242   
    126. A(H  45,C  44,H  46)          108.2808         0.290290   
    127. A(C  26,C  44,H  46)          107.3204         0.324415   
    128. A(C   4,C  44,H  46)          110.0538         0.324824   
    129. A(C  26,C  44,H  45)          110.3320         0.324509   
    130. A(C   4,C  44,H  45)          107.4052         0.324919   
    131. A(C   4,C  44,C  26)          113.3567         0.364914   
    132. A(O  47,N  49,O  48)          125.2416         0.495614   
    133. A(C   8,N  49,O  48)          117.2618         0.402242   
    134. A(C   8,N  49,O  47)          117.4819         0.402329   
    135. D(C   4,C   2,C   0,C   6)   -179.2063         0.039404   
    136. D(H   3,C   2,C   0,C   6)      2.4710         0.039404   
    137. D(C   4,C   2,C   0,H   1)      0.4978         0.039404   
    138. D(H   3,C   2,C   0,H   1)   -177.8250         0.039404   
    139. D(C  44,C   4,C   2,C   0)      8.7614         0.016071   
    140. D(O   5,C   4,C   2,H   3)      6.6902         0.016071   
    141. D(O   5,C   4,C   2,C   0)   -171.7569         0.016071   
    142. D(C  44,C   4,C   2,H   3)   -172.7915         0.016071   
    143. D(C   8,C   6,C   0,C   2)      4.2587         0.018841   
    144. D(C   8,C   6,C   0,H   1)   -175.4574         0.018841   
    145. D(C   7,C   6,C   0,H   1)      2.9421         0.018841   
    146. D(C   7,C   6,C   0,C   2)   -177.3418         0.018841   
    147. D(H  10,C   7,C   6,C   0)      0.0970         0.028768   
    148. D(C   9,C   7,C   6,C   8)     -1.9786         0.028768   
    149. D(C   9,C   7,C   6,C   0)    179.6080         0.028768   
    150. D(H  10,C   7,C   6,C   8)    178.5104         0.028768   
    151. D(H  12,C   8,C   6,C   7)    134.4238         0.013164   
    152. D(H  12,C   8,C   6,C   0)    -47.1564         0.013164   
    153. D(N  49,C   8,C   6,C   0)     65.5406         0.013164   
    154. D(C  11,C   8,C   6,C   0)   -175.4842         0.013164   
    155. D(C  11,C   8,C   6,C   7)      6.0960         0.013164   
    156. D(H  14,C   9,C   7,H  10)     -1.3838         0.026327   
    157. D(C  13,C   9,C   7,H  10)    177.9823         0.026327   
    158. D(H  14,C   9,C   7,C   6)    179.1063         0.026327   
    159. D(C  13,C   9,C   7,C   6)     -1.5276         0.026327   
    160. D(O  17,C  11,C   8,H  12)     47.8555         0.013830   
    161. D(O  17,C  11,C   8,C   6)    177.6609         0.013830   
    162. D(C  13,C  11,C   8,N  49)    113.0646         0.013830   
    163. D(C  13,C  11,C   8,H  12)   -137.1069         0.013830   
    164. D(C  13,C  11,C   8,C   6)     -7.3015         0.013830   
    165. D(C  11,C  13,C   9,C   7)      0.4236         0.021217   
    166. D(O  15,C  13,C  11,O  17)     -1.8318         0.033393   
    167. D(O  15,C  13,C  11,C   8)   -176.3978         0.033393   
    168. D(C   9,C  13,C  11,O  17)    178.7601         0.033393   
    169. D(C   9,C  13,C  11,C   8)      4.1941         0.033393   
    170. D(O  15,C  13,C   9,H  14)      0.4098         0.021217   
    171. D(O  15,C  13,C   9,C   7)   -178.9636         0.021217   
    172. D(C  11,C  13,C   9,H  14)    179.7969         0.021217   
    173. D(H  16,O  15,C  13,C  11)   -177.8453         0.028535   
    174. D(H  16,O  15,C  13,C   9)      1.5540         0.028535   
    175. D(C  18,O  17,C  11,C  13)     67.8768         0.028773   
    176. D(C  18,O  17,C  11,C   8)   -117.2133         0.028773   
    177. D(H  21,C  18,O  17,C  11)    -63.4866         0.016967   
    178. D(H  20,C  18,O  17,C  11)    177.0929         0.016967   
    179. D(H  19,C  18,O  17,C  11)     58.5120         0.016967   
    180. D(C  26,C  24,C  22,C  28)    179.7327         0.039243   
    181. D(C  26,C  24,C  22,H  23)     -0.4282         0.039243   
    182. D(H  25,C  24,C  22,C  28)      0.4651         0.039243   
    183. D(H  25,C  24,C  22,H  23)   -179.6959         0.039243   
    184. D(C  44,C  26,C  24,H  25)   -174.6744         0.014873   
    185. D(C  44,C  26,C  24,C  22)      6.0066         0.014873   
    186. D(O  27,C  26,C  24,H  25)      4.9514         0.014873   
    187. D(O  27,C  26,C  24,C  22)   -174.3676         0.014873   
    188. D(C  30,C  28,C  22,C  24)     -3.6481         0.015321   
    189. D(C  30,C  28,C  22,H  23)    176.5062         0.015321   
    190. D(C  29,C  28,C  22,C  24)    176.2205         0.015321   
    191. D(C  29,C  28,C  22,H  23)     -3.6252         0.015321   
    192. D(H  32,C  29,C  28,C  30)   -179.8939         0.025601   
    193. D(H  32,C  29,C  28,C  22)      0.2316         0.025601   
    194. D(C  31,C  29,C  28,C  30)      0.5811         0.025601   
    195. D(C  31,C  29,C  28,C  22)   -179.2934         0.025601   
    196. D(C  33,C  30,C  28,C  29)     -0.4891         0.024458   
    197. D(C  33,C  30,C  28,C  22)    179.3800         0.024458   
    198. D(H  34,C  30,C  28,C  29)    179.6665         0.024458   
    199. D(H  34,C  30,C  28,C  22)     -0.4644         0.024458   
    200. D(H  36,C  31,C  29,H  32)     -0.1901         0.027109   
    201. D(H  36,C  31,C  29,C  28)    179.3357         0.027109   
    202. D(C  35,C  31,C  29,H  32)   -179.6643         0.027109   
    203. D(C  35,C  31,C  29,C  28)     -0.1385         0.027109   
    204. D(O  39,C  33,C  30,H  34)      2.1228         0.029070   
    205. D(O  39,C  33,C  30,C  28)   -177.7277         0.029070   
    206. D(C  35,C  33,C  30,H  34)    179.8075         0.029070   
    207. D(C  35,C  33,C  30,C  28)     -0.0431         0.029070   
    208. D(O  37,C  35,C  33,O  39)     -1.5010         0.024001   
    209. D(O  37,C  35,C  33,C  30)   -179.1825         0.024001   
    210. D(C  31,C  35,C  33,O  39)    178.1762         0.024001   
    211. D(C  31,C  35,C  33,C  30)      0.4947         0.024001   
    212. D(O  37,C  35,C  31,H  36)     -0.2280         0.026915   
    213. D(O  37,C  35,C  31,C  29)    179.2517         0.026915   
    214. D(C  33,C  35,C  31,H  36)   -179.8840         0.026915   
    215. D(C  33,C  35,C  31,C  29)     -0.4043         0.026915   
    216. D(H  38,O  37,C  35,C  33)   -179.9604         0.029148   
    217. D(H  38,O  37,C  35,C  31)      0.3760         0.029148   
    218. D(C  40,O  39,C  33,C  35)     77.7628         0.025678   
    219. D(C  40,O  39,C  33,C  30)   -104.5531         0.025678   
    220. D(H  43,C  40,O  39,C  33)    -60.0540         0.017930   
    221. D(H  42,C  40,O  39,C  33)   -179.3034         0.017930   
    222. D(H  41,C  40,O  39,C  33)     61.7945         0.017930   
    223. D(H  46,C  44,C  26,C  24)   -173.4740         0.010608   
    224. D(H  45,C  44,C  26,O  27)    124.6710         0.010608   
    225. D(H  45,C  44,C  26,C  24)    -55.7015         0.010608   
    226. D(C   4,C  44,C  26,O  27)   -114.8319         0.010608   
    227. D(C   4,C  44,C  26,C  24)     64.7956         0.010608   
    228. D(H  46,C  44,C   4,C   2)    -57.7093         0.010762   
    229. D(H  45,C  44,C   4,O   5)      5.1398         0.010762   
    230. D(H  45,C  44,C   4,C   2)   -175.3790         0.010762   
    231. D(C  26,C  44,C   4,O   5)   -117.0014         0.010762   
    232. D(C  26,C  44,C   4,C   2)     62.4797         0.010762   
    233. D(O  48,N  49,C   8,C  11)    -72.3651         0.007622   
    234. D(O  48,N  49,C   8,C   6)     52.4354         0.007622   
    235. D(O  47,N  49,C   8,H  12)     -9.0733         0.007622   
    236. D(O  47,N  49,C   8,C  11)    106.3128         0.007622   
    237. D(O  47,N  49,C   8,C   6)   -128.8867         0.007622   
    -----------------------------------------------------------------

Number of atoms                         .... 50
Number of degrees of freedom            .... 237


         *************************************************************
         *                GEOMETRY OPTIMIZATION CYCLE   1            *
         *************************************************************
---------------------------------
CARTESIAN COORDINATES (ANGSTROEM)
---------------------------------
  C      2.042829    1.106421    1.258576
  H      1.761836    2.141701    1.431540
  C      1.305268    0.114726    1.809220
  H      1.565933   -0.933555    1.693875
  C      0.114112    0.346204    2.637719
  O     -0.415988   -0.584852    3.225830
  C      3.203166    0.925234    0.430263
  C      3.912121    2.016969   -0.034097
  C      3.635262   -0.451441    0.032054
  C      5.046062    1.880193   -0.832275
  H      3.577597    3.012574    0.239418
  C      4.908075   -0.528316   -0.738636
  H      3.659066   -1.153738    0.869316
  C      5.543506    0.594536   -1.178804
  H      5.569499    2.760681   -1.190807
  O      6.661168    0.443164   -1.939844
  H      7.042441    1.300968   -2.164049
  O      5.305886   -1.791580   -1.045738
  C      6.562847   -2.200104   -0.471667
  H      6.512263   -2.129179    0.617387
  H      6.704296   -3.236716   -0.768228
  H      7.377647   -1.585716   -0.853236
  C     -2.812924    0.679233    1.261490
  H     -2.557944    0.306133    2.250256
  C     -2.085979    1.676104    0.730942
  H     -2.302966    2.087247   -0.250832
  C     -0.952962    2.314323    1.414348
  O     -0.398528    3.284363    0.918645
  C     -3.954253    0.005835    0.636923
  C     -4.546968   -1.069998    1.302448
  C     -4.479223    0.392326   -0.605328
  C     -5.622638   -1.752123    0.746740
  H     -4.157334   -1.384293    2.265777
  C     -5.548883   -0.277792   -1.165001
  H     -4.062042    1.223833   -1.163655
  C     -6.128211   -1.365604   -0.489679
  H     -6.069807   -2.594283    1.267222
  O     -7.165938   -1.992671   -1.101114
  H     -7.489804   -2.721141   -0.556353
  O     -6.015260    0.089955   -2.404061
  C     -7.241728    0.830333   -2.351466
  H     -7.094913    1.763735   -1.800607
  H     -7.513762    1.051035   -3.381792
  H     -8.031406    0.241200   -1.880721
  C     -0.461916    1.754489    2.748182
  H     -1.281238    1.716536    3.468197
  H      0.297210    2.440701    3.129027
  O      2.118650   -2.177752   -0.601796
  O      2.177484   -0.422675   -1.850605
  N      2.531964   -1.074233   -0.890196

----------------------------
CARTESIAN COORDINATES (A.U.)
----------------------------
  NO LB      ZA    FRAG     MASS         X           Y           Z
   0 C     6.0000    0    12.011    3.860388    2.090833    2.378364
   1 H     1.0000    0     1.008    3.329387    4.047228    2.705219
   2 C     6.0000    0    12.011    2.466599    0.216801    3.418930
   3 H     1.0000    0     1.008    2.959185   -1.764163    3.200959
   4 C     6.0000    0    12.011    0.215640    0.654231    4.984566
   5 O     8.0000    0    15.999   -0.786104   -1.105211    6.095936
   6 C     6.0000    0    12.011    6.053106    1.748439    0.813080
   7 C     6.0000    0    12.011    7.392837    3.811520   -0.064435
   8 C     6.0000    0    12.011    6.869649   -0.853100    0.060574
   9 C     6.0000    0    12.011    9.535676    3.553050   -1.572772
  10 H     1.0000    0     1.008    6.760679    5.692941    0.452434
  11 C     6.0000    0    12.011    9.274918   -0.998372   -1.395819
  12 H     1.0000    0     1.008    6.914632   -2.180250    1.642770
  13 C     6.0000    0    12.011   10.475709    1.123509   -2.227617
  14 H     1.0000    0     1.008   10.524827    5.216931   -2.250299
  15 O     8.0000    0    15.999   12.587783    0.837459   -3.665774
  16 H     1.0000    0     1.008   13.308286    2.458473   -4.089459
  17 O     8.0000    0    15.999   10.026671   -3.385596   -1.976159
  18 C     6.0000    0    12.011   12.401984   -4.157595   -0.891322
  19 H     1.0000    0     1.008   12.306393   -4.023565    1.166693
  20 H     1.0000    0     1.008   12.669283   -6.116506   -1.451740
  21 H     1.0000    0     1.008   13.941733   -2.996569   -1.612382
  22 C     6.0000    0    12.011   -5.315656    1.283565    2.383871
  23 H     1.0000    0     1.008   -4.833814    0.578507    4.252368
  24 C     6.0000    0    12.011   -3.941930    3.167378    1.381280
  25 H     1.0000    0     1.008   -4.351975    3.944325   -0.474003
  26 C     6.0000    0    12.011   -1.800837    4.373437    2.672730
  27 O     8.0000    0    15.999   -0.753109    6.206546    1.735987
  28 C     6.0000    0    12.011   -7.472455    0.011027    1.203610
  29 C     6.0000    0    12.011   -8.592524   -2.022003    2.461271
  30 C     6.0000    0    12.011   -8.464504    0.741388   -1.143904
  31 C     6.0000    0    12.011  -10.625247   -3.311032    1.411135
  32 H     1.0000    0     1.008   -7.856223   -2.615935    4.281698
  33 C     6.0000    0    12.011  -10.485870   -0.524952   -2.201533
  34 H     1.0000    0     1.008   -7.676147    2.312710   -2.198990
  35 C     6.0000    0    12.011  -11.580641   -2.580618   -0.925359
  36 H     1.0000    0     1.008  -11.470273   -4.902484    2.394702
  37 O     8.0000    0    15.999  -13.541661   -3.765603   -2.080804
  38 H     1.0000    0     1.008  -14.153678   -5.142212   -1.051355
  39 O     8.0000    0    15.999  -11.367193    0.169990   -4.543018
  40 C     6.0000    0    12.011  -13.684882    1.569102   -4.443628
  41 H     1.0000    0     1.008  -13.407443    3.332976   -3.402653
  42 H     1.0000    0     1.008  -14.198952    1.986168   -6.390661
  43 H     1.0000    0     1.008  -15.177158    0.455801   -3.554047
  44 C     6.0000    0    12.011   -0.872894    3.315503    5.193312
  45 H     1.0000    0     1.008   -2.421189    3.243783    6.553942
  46 H     1.0000    0     1.008    0.561645    4.612257    5.913004
  47 O     8.0000    0    15.999    4.003668   -4.115354   -1.137229
  48 O     8.0000    0    15.999    4.114848   -0.798741   -3.497137
  49 N     7.0000    0    14.007    4.784719   -2.030006   -1.682226

--------------------------------
INTERNAL COORDINATES (ANGSTROEM)
--------------------------------
 C      0   0   0     0.000000000000     0.00000000     0.00000000
 H      1   0   0     1.086590327462     0.00000000     0.00000000
 C      1   2   0     1.353020468395   119.51071687     0.00000000
 H      3   1   2     1.086344366812   122.22568411   182.17504120
 C      3   1   2     1.469301073356   123.77540976     0.49778639
 O      5   3   1     1.222189665911   120.19472760   188.24306009
 C      1   2   3     1.437118837525   114.87663855   179.73482349
 C      7   1   2     1.382076249689   120.54611238     2.94210176
 C      7   1   2     1.496833804504   120.15668988   184.54261182
 C      8   7   1     1.393419720063   122.16530148   179.60795740
 H      8   7   1     1.085332377283   118.80562739     0.09699063
 C      9   7   1     1.489941700926   115.57350962   184.51578396
 H      9   7   1     1.093067425226   113.16841567   312.84356957
 C     12   9   7     1.363200803920   121.51515192   352.69852278
 H     10   8   7     1.085260289437   120.13910021   179.10630763
 O     14  12   9     1.360610966843   118.15566302   183.60224949
 H     16  14  12     0.965124084607   110.82823968   182.15470734
 O     12   9   7     1.359559387656   114.50322827   177.66090579
 C     18  12   9     1.440972473512   115.38336604   242.78672886
 H     19  18  12     1.092533180052   109.77520740    58.51202279
 H     19  18  12     1.087436913252   105.96631376   177.09285053
 H     19  18  12     1.089479959386   110.66910019   296.51342303
 C      5   3   1     3.251530767303   120.48173879    86.91021318
 H     23   5   3     1.087141764720    50.85828775   151.76122049
 C     23   5   3     1.343012139413    75.87535639   300.23551864
 H     25  23   5     1.086278543722   121.99562216   152.63616515
 C     25  23   5     1.469045684367   123.79097889   331.90381419
 O     27  25  23     1.222331856859   120.39441263   185.63240271
 C     23   5   3     1.464984704700   146.58352731    77.26418628
 C     29  23   5     1.397015740103   118.77832528    51.51080693
 C     29  23   5     1.402909715790   122.84742602   231.64222628
 C     30  29  23     1.389666116221   121.05832337   180.70663159
 H     30  29  23     1.085632423374   119.56403125     0.23158636
 C     31  29  23     1.380748307712   121.00476190   179.38001168
 H     31  29  23     1.084976645675   121.52812007   359.53555275
 C     32  30  29     1.390587354273   120.03553117   359.86149093
 H     32  30  29     1.086321335486   120.50160699   179.33568785
 O     36  32  30     1.357918810594   123.35596052   179.25170186
 H     38  36  32     0.965568310823   110.52887055     0.37600648
 O     34  31  29     1.374050407358   119.90555215   182.27227132
 C     40  34  31     1.433579401734   113.29841050   255.44687513
 H     41  40  34     1.093727942355   110.14437462    61.79450620
 H     41  40  34     1.088247490809   106.49098401   180.69662826
 H     41  40  34     1.091911841777   110.84812245   299.94604254
 C      5   3   1     1.525540869225   119.49669243     8.76135265
 H     45   5   3     1.091398040263   107.40521567   184.62095477
 H     45   5   3     1.091879689728   110.05379249   302.29065589
 O     13   9   7     2.363398886725    77.72543369   120.77014121
 O     48  13   9     2.154826902818    89.42946347   352.50531415
 N     48  13   9     1.213160154362    62.08223321   353.97151701

---------------------------
INTERNAL COORDINATES (A.U.)
---------------------------
 C      0   0   0     0.000000000000     0.00000000     0.00000000
 H      1   0   0     2.053358138670     0.00000000     0.00000000
 C      1   2   0     2.556838138857   119.51071687     0.00000000
 H      3   1   2     2.052893340402   122.22568411   182.17504120
 C      3   1   2     2.776576636919   123.77540976     0.49778639
 O      5   3   1     2.309603752281   120.19472760   188.24306009
 C      1   2   3     2.715761024822   114.87663855   179.73482349
 C      7   1   2     2.611745608109   120.54611238     2.94210176
 C      7   1   2     2.828605958508   120.15668988   184.54261182
 C      8   7   1     2.633181660524   122.16530148   179.60795740
 H      8   7   1     2.050980957342   118.80562739     0.09699063
 C      9   7   1     2.815581770258   115.57350962   184.51578396
 H      9   7   1     2.065598079587   113.16841567   312.84356957
 C     12   9   7     2.576076184951   121.51515192   352.69852278
 H     10   8   7     2.050844731055   120.13910021   179.10630763
 O     14  12   9     2.571182102143   118.15566302   183.60224949
 H     16  14  12     1.823820205159   110.82823968   182.15470734
 O     12   9   7     2.569194905471   114.50322827   177.66090579
 C     18  12   9     2.723043341457   115.38336604   242.78672886
 H     19  18  12     2.064588502521   109.77520740    58.51202279
 H     19  18  12     2.054957953962   105.96631376   177.09285053
 H     19  18  12     2.058818751635   110.66910019   296.51342303
 C      5   3   1     6.144502666221   120.48173879    86.91021318
 H     23   5   3     2.054400204069    50.85828775   151.76122049
 C     23   5   3     2.537925138022    75.87535639   300.23551864
 H     25  23   5     2.052768952790   121.99562216   152.63616515
 C     25  23   5     2.776094021672   123.79097889   331.90381419
 O     27  25  23     2.309872454231   120.39441263   185.63240271
 C     23   5   3     2.768419882266   146.58352731    77.26418628
 C     29  23   5     2.639977153572   118.77832528    51.51080693
 C     29  23   5     2.651115153461   122.84742602   231.64222628
 C     30  29  23     2.626088377248   121.05832337   180.70663159
 H     30  29  23     2.051547962283   119.56403125     0.23158636
 C     31  29  23     2.609236161450   121.00476190   179.38001168
 H     31  29  23     2.050308722025   121.52812007   359.53555275
 C     32  30  29     2.627829264871   120.03553117   359.86149093
 H     32  30  29     2.052849817504   120.50160699   179.33568785
 O     36  32  30     2.566094664123   123.35596052   179.25170186
 H     38  36  32     1.824659671049   110.52887055     0.37600648
 O     34  31  29     2.596578964110   119.90555215   182.27227132
 C     40  34  31     2.709072460509   113.29841050   255.44687513
 H     41  40  34     2.066846276067   110.14437462    61.79450620
 H     41  40  34     2.056489723556   106.49098401   180.69662826
 H     41  40  34     2.063414343344   110.84812245   299.94604254
 C      5   3   1     2.882854448940   119.49669243     8.76135265
 H     45   5   3     2.062443399195   107.40521567   184.62095477
 H     45   5   3     2.063353584777   110.05379249   302.29065589
 O     13   9   7     4.466176641124    77.72543369   120.77014121
 O     48  13   9     4.072032712332    89.42946347   352.50531415
 N     48  13   9     2.292540448331    62.08223321   353.97151701

---------------------
BASIS SET INFORMATION
---------------------
There are 4 groups of distinct atoms

 Group   1 Type C   : 12s6p1d contracted to 5s4p1d pattern {63111/3111/1}
 Group   2 Type H   : 5s contracted to 3s pattern {311}
 Group   3 Type O   : 12s6p1d contracted to 5s4p1d pattern {63111/3111/1}
 Group   4 Type N   : 12s6p1d contracted to 5s4p1d pattern {63111/3111/1}

Atom   0C    basis set group =>   1
Atom   1H    basis set group =>   2
Atom   2C    basis set group =>   1
Atom   3H    basis set group =>   2
Atom   4C    basis set group =>   1
Atom   5O    basis set group =>   3
Atom   6C    basis set group =>   1
Atom   7C    basis set group =>   1
Atom   8C    basis set group =>   1
Atom   9C    basis set group =>   1
Atom  10H    basis set group =>   2
Atom  11C    basis set group =>   1
Atom  12H    basis set group =>   2
Atom  13C    basis set group =>   1
Atom  14H    basis set group =>   2
Atom  15O    basis set group =>   3
Atom  16H    basis set group =>   2
Atom  17O    basis set group =>   3
Atom  18C    basis set group =>   1
Atom  19H    basis set group =>   2
Atom  20H    basis set group =>   2
Atom  21H    basis set group =>   2
Atom  22C    basis set group =>   1
Atom  23H    basis set group =>   2
Atom  24C    basis set group =>   1
Atom  25H    basis set group =>   2
Atom  26C    basis set group =>   1
Atom  27O    basis set group =>   3
Atom  28C    basis set group =>   1
Atom  29C    basis set group =>   1
Atom  30C    basis set group =>   1
Atom  31C    basis set group =>   1
Atom  32H    basis set group =>   2
Atom  33C    basis set group =>   1
Atom  34H    basis set group =>   2
Atom  35C    basis set group =>   1
Atom  36H    basis set group =>   2
Atom  37O    basis set group =>   3
Atom  38H    basis set group =>   2
Atom  39O    basis set group =>   3
Atom  40C    basis set group =>   1
Atom  41H    basis set group =>   2
Atom  42H    basis set group =>   2
Atom  43H    basis set group =>   2
Atom  44C    basis set group =>   1
Atom  45H    basis set group =>   2
Atom  46H    basis set group =>   2
Atom  47O    basis set group =>   3
Atom  48O    basis set group =>   3
Atom  49N    basis set group =>   4
---------------------------------
AUXILIARY/J BASIS SET INFORMATION
---------------------------------
There are 4 groups of distinct atoms

 Group   1 Type C   : 12s5p4d2f1g contracted to 6s4p3d1f1g pattern {711111/2111/211/2/1}
 Group   2 Type H   : 5s2p1d contracted to 3s1p1d pattern {311/2/1}
 Group   3 Type O   : 12s5p4d2f1g contracted to 6s4p3d1f1g pattern {711111/2111/211/2/1}
 Group   4 Type N   : 12s5p4d2f1g contracted to 6s4p3d1f1g pattern {711111/2111/211/2/1}

Atom   0C    basis set group =>   1
Atom   1H    basis set group =>   2
Atom   2C    basis set group =>   1
Atom   3H    basis set group =>   2
Atom   4C    basis set group =>   1
Atom   5O    basis set group =>   3
Atom   6C    basis set group =>   1
Atom   7C    basis set group =>   1
Atom   8C    basis set group =>   1
Atom   9C    basis set group =>   1
Atom  10H    basis set group =>   2
Atom  11C    basis set group =>   1
Atom  12H    basis set group =>   2
Atom  13C    basis set group =>   1
Atom  14H    basis set group =>   2
Atom  15O    basis set group =>   3
Atom  16H    basis set group =>   2
Atom  17O    basis set group =>   3
Atom  18C    basis set group =>   1
Atom  19H    basis set group =>   2
Atom  20H    basis set group =>   2
Atom  21H    basis set group =>   2
Atom  22C    basis set group =>   1
Atom  23H    basis set group =>   2
Atom  24C    basis set group =>   1
Atom  25H    basis set group =>   2
Atom  26C    basis set group =>   1
Atom  27O    basis set group =>   3
Atom  28C    basis set group =>   1
Atom  29C    basis set group =>   1
Atom  30C    basis set group =>   1
Atom  31C    basis set group =>   1
Atom  32H    basis set group =>   2
Atom  33C    basis set group =>   1
Atom  34H    basis set group =>   2
Atom  35C    basis set group =>   1
Atom  36H    basis set group =>   2
Atom  37O    basis set group =>   3
Atom  38H    basis set group =>   2
Atom  39O    basis set group =>   3
Atom  40C    basis set group =>   1
Atom  41H    basis set group =>   2
Atom  42H    basis set group =>   2
Atom  43H    basis set group =>   2
Atom  44C    basis set group =>   1
Atom  45H    basis set group =>   2
Atom  46H    basis set group =>   2
Atom  47O    basis set group =>   3
Atom  48O    basis set group =>   3
Atom  49N    basis set group =>   4
------------------------------------------------------------------------------
                             ORCA STARTUP CALCULATIONS
                           -- RI-GTO INTEGRALS CHOSEN --
------------------------------------------------------------------------------
------------------------------------------------------------------------------
                   ___                                                        
                  /   \      - P O W E R E D   B Y -                         
                 /     \                                                     
                 |  |  |   _    _      __       _____    __    __             
                 |  |  |  | |  | |    /  \     |  _  \  |  |  /  |          
                  \  \/   | |  | |   /    \    | | | |  |  | /  /          
                 / \  \   | |__| |  /  /\  \   | |_| |  |  |/  /          
                |  |  |   |  __  | /  /__\  \  |    /   |      \           
                |  |  |   | |  | | |   __   |  |    \   |  |\   \          
                \     /   | |  | | |  |  |  |  | |\  \  |  | \   \       
                 \___/    |_|  |_| |__|  |__|  |_| \__\ |__|  \__/        
                                                                              
                      - O R C A' S   B I G   F R I E N D -                    
                                      &                                       
                       - I N T E G R A L  F E E D E R -                       
                                                                              
 v1 FN, 2020, v2 2021, v3 2022-2024                                           
------------------------------------------------------------------------------


----------------------
SHARK INTEGRAL PACKAGE
----------------------

Number of atoms                             ...     50
Number of basis functions                   ...    720
Number of shells                            ...    360
Maximum angular momentum                    ...      2
Integral batch strategy                     ... SHARK/LIBINT Hybrid
RI-J (if used) integral strategy            ... SPLIT-RIJ (Revised 2003 algorithm where possible)
Printlevel                                  ...      1
Contraction scheme used                     ... SEGMENTED contraction
Prescreening option                         ... SCHWARTZ
   Thresh                                   ... 2.500e-11
   Tcut                                     ... 2.500e-12
   Tpresel                                  ... 2.500e-12 
Coulomb Range Separation                    ... NOT USED
Exchange Range Separation                   ... Long Range
   Mu parameter                             ... 3.000e-01
   Scaling (regular/separated)              ... 1.500e-01 8.500e-01
Multipole approximations                    ... NOT USED
Finite Nucleus Model                        ... NOT USED
CABS basis                                  ... NOT available
Auxiliary Coulomb fitting basis             ... AVAILABLE
   # of basis functions in Aux-J            ...   1690
   # of shells in Aux-J                     ...    550
   Maximum angular momentum in Aux-J        ...      4
Auxiliary J/K fitting basis                 ... NOT available
Auxiliary Correlation fitting basis         ... NOT available
Auxiliary 'external' fitting basis          ... NOT available

Checking pre-screening integrals            ... done (  0.0 sec) Dimension = 360
Check shell pair data                       ... done (  0.0 sec)
Shell pair information
Shell pair cut-off parameter TPreSel        ...   2.5e-12
Total number of shell pairs                 ...     64980
Shell pairs after pre-screening             ...     41587
Total number of primitive shell pairs       ...    225475
Primitive shell pairs kept                  ...     90970
          la=0 lb=0:  13283 shell pairs
          la=1 lb=0:  17102 shell pairs
          la=1 lb=1:   5420 shell pairs
          la=2 lb=0:   3331 shell pairs
          la=2 lb=1:   2235 shell pairs
          la=2 lb=2:    216 shell pairs

Calculating one electron integrals          ... done (  0.1 sec)
Calculating RI/J V-Matrix + Cholesky decomp.... done (  0.7 sec)
Calculating Nuclear repulsion               ... done (  0.0 sec) ENN=   2752.199481922741 Eh

Diagonalization of the overlap matrix:
Smallest eigenvalue                        ... 2.504e-07
Time for diagonalization                   ...    0.043 sec
Threshold for overlap eigenvalues          ... 1.000e-07
Number of eigenvalues below threshold      ... 0

IMPORTANT:
Smallest eigenvalue of S below the DiffSThresh (1.000e-06) while
Thresh>1e-12 and/or TCut>1e-13! In order to avoid SCF convergence issues,
Thresh will be set to at least 1e-12 and TCut to at least 1e-13.
This can be turned off by adding %SCF DiffSThresh -1 END to the input.

Time for construction of square roots      ...    0.063 sec
Total time needed                          ...    0.116 sec

-------------------
DFT GRID GENERATION
-------------------

General Integration Accuracy     IntAcc      ... 4.388
Radial Grid Type                 RadialGrid  ... OptM3 with GC (2021)
Angular Grid (max. ang.)         AngularGrid ... 4 (Lebedev-302)
Angular grid pruning method      GridPruning ... 4 (adaptive)
Weight generation scheme         WeightScheme... mBecke (2022)
Basis function cutoff            BFCut       ... 1.0000e-11
Integration weight cutoff        WCut        ... 1.0000e-14
Partially contracted basis set               ... off
Rotationally invariant grid construction     ... off
Angular grids for H and He will be reduced by one unit
Diffuse basis detected: some atoms will have their outermost
                        angular grid increased by 1.

Total number of grid points                  ...   251108
Total number of batches                      ...     3953
Average number of points per batch           ...       63
Average number of grid points per atom       ...     5022

------------------
NL GRID GENERATION
------------------

General Integration Accuracy     IntAcc      ... 4.004
Radial Grid Type                 RadialGrid  ... OptM3 with GC (2021)
Angular Grid (max. ang.)         AngularGrid ... 2 (Lebedev-110)
Angular grid pruning method      GridPruning ... 4 (adaptive)
Weight generation scheme         WeightScheme... mBecke (2022)
Basis function cutoff            BFCut       ... 1.0000e-10
Integration weight cutoff        WCut        ... 1.0000e-14
Partially contracted basis set               ... off
Rotationally invariant grid construction     ... off
Angular grids for H and He will be reduced by one unit
Diffuse basis detected: some atoms will have their outermost
                        angular grid increased by 1.

Total number of grid points                  ...    83398
Total number of batches                      ...     1327
Average number of points per batch           ...       62
Average number of grid points per atom       ...     1668
Initializing property integral containers    ... done (  0.0 sec)

SHARK setup successfully completed in   5.8 seconds

Maximum memory used throughout the entire STARTUP-calculation: 142.9 MB
-------------------------------------------------------------------------------
                                 ORCA GUESS
                   Start orbitals & Density for SCF / CASSCF
-------------------------------------------------------------------------------

------------
SCF SETTINGS
------------
Hamiltonian:
 Density Functional     Method          .... DFT(GTOs)
  Functional kind                       .... Exchange-Correlation
  Functional name                       .... wB97M-V exchange-correlation functional
  Functional family                     .... Hybrid MGGA
  Functional refs                              
    [ 0] N. Mardirossian and M. Head-Gordon.,  J. Chem. Phys. 144, 214110 (2016), doi: 10.1063/1.4952647
  Fraction of HF Exchange (short range) .... 0.1500
  Fraction of HF Exchange (long range)  .... 1.0000
  Range separation parameter mu         .... 0.3000
  Functional external parameters        .... 17
    Parameter  0 _cx00      =  8.500000e-01 : u^00 coefficient for exchange
    Parameter  1 _cx01      =  1.007000e+00 : u^01 coefficient for exchange
    Parameter  2 _cx10      =  2.590000e-01 : u^10 coefficient for exchange
    Parameter  3 _css00     =  4.430000e-01 : u^00 coefficient for same-spin correlation
    Parameter  4 _css04     = -1.437000e+00 : u^04 coefficient for same-spin correlation
    Parameter  5 _css10     = -4.535000e+00 : u^10 coefficient for same-spin correlation
    Parameter  6 _css20     = -3.390000e+00 : u^20 coefficient for same-spin correlation
    Parameter  7 _css43     =  4.278000e+00 : u^43 coefficient for same-spin correlation
    Parameter  8 _cos00     =  1.000000e+00 : u^00 coefficient for opposite-spin correlation
    Parameter  9 _cos10     =  1.358000e+00 : u^10 coefficient for opposite-spin correlation
    Parameter 10 _cos20     =  2.924000e+00 : u^20 coefficient for opposite-spin correlation
    Parameter 11 _cos21     = -8.812000e+00 : u^21 coefficient for opposite-spin correlation
    Parameter 12 _cos60     = -1.390000e+00 : u^60 coefficient for opposite-spin correlation
    Parameter 13 _cos61     =  9.142000e+00 : u^61 coefficient for opposite-spin correlation
    Parameter 14 _alpha     =  1.000000e+00 : fraction of HF exchange
    Parameter 15 _beta      = -8.500000e-01 : fraction of short-range exchange
    Parameter 16 _omega     =  3.000000e-01 : range-separation constant
 Long-range corrected/Screened/Range-Separated Hybrid DFT is turned on
   Amount of maximum screened exact exchange              ....  0.850000
   Range separation parameter mu (erf(mu*r12)/r12)        ....  0.300000
   NL short-range parameter             ....  6.000000
   NL long-range parameter              ....  0.010000
 RI-approximation to the Coulomb term is turned on
   Number of AuxJ basis functions       .... 1690
   RIJ-ON(X) (HFX calculated with O(N)) .... on


General Settings:
 Integral files         IntName         .... CURCUMIN-OPT-FREQ-Reag-1-wB97XM-V-6-311+G-D-363
 Hartree-Fock type      HFTyp           .... UHF
 Total Charge           Charge          ....    0
 Multiplicity           Mult            ....    2
 Number of Electrons    NEL             ....  217
 Basis Dimension        Dim             ....  720
 Nuclear Repulsion      ENuc            ....   2752.1994819227 Eh

Convergence Acceleration:
 AO-DIIS                CNVDIIS         .... on
   Start iteration      DIISMaxIt       ....    12
   Startup error        DIISStart       ....  0.200000
   # of expansion vecs  DIISMaxEq       ....     5
   Bias factor          DIISBfac        ....   1.050
   Max. coefficient     DIISMaxC        ....  10.000
 MO-DIIS                CNVKDIIS        .... off
 Trust-Rad. Augm. Hess. CNVTRAH         .... off
 SOSCF                  CNVSOSCF        .... on
   Start iteration      SOSCFMaxIt      ....   150
   Startup grad/error   SOSCFStart      ....  0.003300
   Hessian update       SOSCFHessUp     .... L-BFGS
 Level Shifting         CNVShift        .... on
   Level shift para.    LevelShift      ....    0.2500
   Turn off err/grad.   ShiftErr        ....    0.0010
 Zerner damping         CNVZerner       .... off
 Static damping         CNVDamp         .... on
   Fraction old density DampFac         ....    0.7000
   Max. Damping (<1)    DampMax         ....    0.9800
   Min. Damping (>=0)   DampMin         ....    0.0000
   Turn off err/grad.   DampErr         ....    0.1000

SCF Procedure:
 Maximum # iterations   MaxIter         ....   125
 SCF integral mode      SCFMode         .... Direct
   Integral package                     .... SHARK and LIBINT hybrid scheme
 Reset frequency        DirectResetFreq ....    20
 Integral Threshold     Thresh          ....  1.000e-12 Eh
 Primitive CutOff       TCut            ....  1.000e-13 Eh

Convergence Tolerance:
 Convergence Check Mode ConvCheckMode   .... Total+1el-Energy
 Convergence forced     ConvForced      .... 0
 Energy Change          TolE            ....  1.000e-08 Eh
 1-El. energy change                    ....  1.000e-05 Eh
 Orbital Gradient       TolG            ....  1.000e-05
 Orbital Rotation angle TolX            ....  1.000e-05
 DIIS Error             TolErr          ....  5.000e-07

------------------------------
INITIAL GUESS: MODEL POTENTIAL
------------------------------
Loading Hartree-Fock densities                     ... done
Calculating cut-offs                               ... done
Initializing the effective Hamiltonian             ... done
Setting up the integral package (SHARK)            ... done
Starting the Coulomb interaction                   ... done (   2.0 sec)
Making the grid                                    ... done (   0.8 sec)
Mapping shells                                     ... done
Starting the XC term evaluation                    ... done (   1.0 sec)
  promolecular density results
     # of electrons  =    217.004966695
     EX              =   -185.084232180
     EC              =     -7.323216104
     EX+EC           =   -192.407448284
Transforming the Hamiltonian                       ... done (   0.0 sec)
Diagonalizing the Hamiltonian                      ... done (   0.0 sec)
Back transforming the eigenvectors                 ... done (   0.1 sec)
Now organizing SCF variables                       ... done
                      ------------------
                      INITIAL GUESS DONE (   4.3 sec)
                      ------------------
             **** ENERGY FILE WAS UPDATED (CURCUMIN-OPT-FREQ-Reag-1-wB97XM-V-6-311+G-D-363.en.tmp) ****
Finished Guess after   5.3 sec
Maximum memory used throughout the entire GUESS-calculation: 94.8 MB

-------------------------------------------------------------------------------------------
                                      ORCA LEAN-SCF
                              memory conserving SCF solver
-------------------------------------------------------------------------------------------

--------------------
CPCM SOLVATION MODEL
--------------------
CPCM parameters:
  Epsilon                                         ...       7.0000
  Refrac                                          ...       1.8534
  Rsolv                                           ...       1.3000
  Surface type                                    ... GAUSSIAN VDW
  Discretization scheme                           ... Constant charge density
    Threshold for H atoms                         ...       5.0000 (charges/Ang^2)
    Threshold for non-H atoms                     ...       5.0000 (charges/Ang^2)
  Epsilon function type                           ...         CPCM
Solvent:                                          ... CUSTOM
Radii:
  Scheme                                          ... Element-dependent radii
  Radius for C  used is    3.8550 Bohr (=   2.0400 Ang.)
  Radius for H  used is    2.4944 Bohr (=   1.3200 Ang.)
  Radius for O  used is    3.4469 Bohr (=   1.8240 Ang.)
  Radius for N  used is    3.5149 Bohr (=   1.8600 Ang.)
Calculating surface                               ...        done! (  0.0s)
Cavity surface points                             ...         4269
Cavity Volume                                     ...    3192.1860
Cavity Surface-area                               ...    1631.6257
Calculating surface distance matrix               ...        done! (  0.1s)
Performing Cholesky decomposition & store         ...        done! (  1.8s)
Overall time for CPCM initialization              ...                 1.9s

----------------------------------------D-I-I-S--------------------------------------------
Iteration    Energy (Eh)           Delta-E    RMSDP     MaxDP     DIISErr   Damp  Time(sec)
-------------------------------------------------------------------------------------------
               ***  Starting incremental Fock matrix formation  ***
    1    -1467.8019075564327522     0.00e+00  2.10e-02  4.30e+00  1.46e-01  0.700 262.7
    2    -1468.1016028624812861    -3.00e-01  1.07e-02  2.06e+00  6.99e-02  0.700 226.7
                               ***Turning on AO-DIIS***
    3    -1468.2460305471497577    -1.44e-01  6.26e-03  8.20e-01  2.64e-02  0.700 225.6
    4    -1468.3349653662305627    -8.89e-02  1.77e-02  2.30e+00  1.83e-02  0.000 219.4
                              *** Initializing SOSCF ***
---------------------------------------S-O-S-C-F--------------------------------------
Iteration    Energy (Eh)           Delta-E    RMSDP     MaxDP     MaxGrad    Time(sec)
--------------------------------------------------------------------------------------
    5    -1468.5326455678589355    -1.98e-01  1.95e-03  2.85e-01  3.25e-03   229.1
               *** Restarting incremental Fock matrix formation ***
    6    -1468.5346886942547826    -2.04e-03  1.71e-03  2.00e-01  5.94e-03   244.4
    7    -1468.5363250671091464    -1.64e-03  4.98e-03  9.31e-01  3.90e-03   206.4
    8    -1468.5373137472372491    -9.89e-04  1.91e-03  2.79e-01  2.19e-03   212.2
    9    -1468.5377305392323706    -4.17e-04  4.78e-04  5.77e-02  1.05e-03   202.4
   10    -1468.5377902697696300    -5.97e-05  4.37e-04  5.18e-02  8.08e-04   191.4
   11    -1468.5378236203018787    -3.34e-05  4.06e-04  7.16e-02  6.40e-04   191.3
   12    -1468.5378340318347909    -1.04e-05  4.11e-04  7.73e-02  2.89e-04   186.0
   13    -1468.5378394497811314    -5.42e-06  6.94e-04  1.07e-01  1.51e-04   181.1
   14    -1468.5378423479749017    -2.90e-06  2.01e-04  2.85e-02  7.84e-05   178.3
   15    -1468.5378428418403018    -4.94e-07  2.44e-04  3.42e-02  1.09e-04   171.8
   16    -1468.5378430952425788    -2.53e-07  3.56e-04  5.95e-02  2.19e-05   164.4
   17    -1468.5378431210476720    -2.58e-08  2.42e-04  3.21e-02  1.63e-05   167.1
   18    -1468.5378431556557643    -3.46e-08  3.02e-04  5.56e-02  5.39e-06   156.9
   19    -1468.5378431716685554    -1.60e-08  1.89e-04  3.10e-02  3.97e-06   159.1
   20    -1468.5378431679864661     3.68e-09  5.53e-04  9.30e-02  1.68e-06   154.0
                 **** Energy Check signals convergence ****

               *****************************************************
               *                     SUCCESS                       *
               *           SCF CONVERGED AFTER  20 CYCLES          *
               *****************************************************

             **** ENERGY FILE WAS UPDATED (CURCUMIN-OPT-FREQ-Reag-1-wB97XM-V-6-311+G-D-363.en.tmp) ****

----------------
TOTAL SCF ENERGY
----------------

Total Energy       :      -1468.53784316798647 Eh          -39960.94629 eV

Components:
Nuclear Repulsion  :       2752.19948192274114 Eh           74891.15530 eV
Electronic Energy  :      -4221.50383362806315 Eh         -114872.95934 eV
One Electron Energy:      -7474.06378202621818 Eh         -203379.61513 eV
Two Electron Energy:       3252.55994839815503 Eh           88506.65579 eV
CPCM Dielectric    :         -0.04930551151623 Eh              -1.34167 eV

Virial components:
Potential Energy   :      -2933.30565891480364 Eh          -79819.30491 eV
Kinetic Energy     :       1464.76781574681695 Eh           39858.35863 eV
Virial Ratio       :          2.00257380547322

DFT components:
N(Alpha)           :      109.000009514585 electrons
N(Beta)            :      108.000009389764 electrons
N(Total)           :      217.000018904349 electrons
NL Energy, E(C,NL) :        0.815814048852 Eh       
E(XC)              :     -139.477769754771 Eh       

CPCM Solvation Model Properties:
Surface-charge          :         -0.03771414696441
Corrected charge        :          0.00000000000000
Outlying charge corr.   :          0.00005602170885 Eh               0.00152 eV
Free-energy (cav+disp)  :  This term is not implemented in the current solvation scheme

---------------
SCF CONVERGENCE
---------------

  Last Energy change         ...   -3.6821e-09  Tolerance :   1.0000e-08
  Last MAX-Density change    ...    9.2973e-02  Tolerance :   1.0000e-07
  Last RMS-Density change    ...    5.5258e-04  Tolerance :   5.0000e-09
  Last DIIS Error            ...    3.2512e-03  Tolerance :   5.0000e-07
  Last Orbital Gradient      ...    1.6764e-06  Tolerance :   1.0000e-05
  Last Orbital Rotation      ...    1.6048e-05  Tolerance :   1.0000e-05


----------------------
UHF SPIN CONTAMINATION
----------------------

Warning: in a DFT calculation there is little theoretical justification to 
         calculate <S**2> as in Hartree-Fock theory. We will do it anyways
         but you should keep in mind that the values have only limited relevance

Expectation value of <S**2>     :     0.820242
Ideal value S*(S+1) for S=0.5   :     0.750000
Deviation                       :     0.070242

----------------
ORBITAL ENERGIES
----------------
                 SPIN UP ORBITALS
  NO   OCC          E(Eh)            E(eV) 
   0   1.0000     -19.389698      -527.6205 
   1   1.0000     -19.388123      -527.5777 
   2   1.0000     -19.379903      -527.3540 
   3   1.0000     -19.376186      -527.2528 
   4   1.0000     -19.372203      -527.1444 
   5   1.0000     -19.356902      -526.7281 
   6   1.0000     -19.338205      -526.2193 
   7   1.0000     -19.334840      -526.1277 
   8   1.0000     -14.760939      -401.6656 
   9   1.0000     -10.454702      -284.4869 
  10   1.0000     -10.452939      -284.4389 
  11   1.0000     -10.432280      -283.8768 
  12   1.0000     -10.432146      -283.8731 
  13   1.0000     -10.429212      -283.7933 
  14   1.0000     -10.426736      -283.7259 
  15   1.0000     -10.410997      -283.2976 
  16   1.0000     -10.393474      -282.8208 
  17   1.0000     -10.390672      -282.7446 
  18   1.0000     -10.384300      -282.5712 
  19   1.0000     -10.384167      -282.5676 
  20   1.0000     -10.383602      -282.5522 
  21   1.0000     -10.380136      -282.4579 
  22   1.0000     -10.376732      -282.3652 
  23   1.0000     -10.367566      -282.1158 
  24   1.0000     -10.366763      -282.0940 
  25   1.0000     -10.362825      -281.9868 
  26   1.0000     -10.361325      -281.9460 
  27   1.0000     -10.360962      -281.9361 
  28   1.0000     -10.358410      -281.8667 
  29   1.0000     -10.355411      -281.7851 
  30   1.0000      -1.390294       -37.8318 
  31   1.0000      -1.221803       -33.2470 
  32   1.0000      -1.214534       -33.0491 
  33   1.0000      -1.214178       -33.0395 
  34   1.0000      -1.198843       -32.6222 
  35   1.0000      -1.190694       -32.4004 
  36   1.0000      -1.186090       -32.2752 
  37   1.0000      -1.185397       -32.2563 
  38   1.0000      -1.026037       -27.9199 
  39   1.0000      -1.002705       -27.2850 
  40   1.0000      -0.957435       -26.0531 
  41   1.0000      -0.944551       -25.7025 
  42   1.0000      -0.938439       -25.5362 
  43   1.0000      -0.909535       -24.7497 
  44   1.0000      -0.889456       -24.2033 
  45   1.0000      -0.885630       -24.0992 
  46   1.0000      -0.862325       -23.4651 
  47   1.0000      -0.841620       -22.9016 
  48   1.0000      -0.819971       -22.3126 
  49   1.0000      -0.812774       -22.1167 
  50   1.0000      -0.785487       -21.3742 
  51   1.0000      -0.775010       -21.0891 
  52   1.0000      -0.754737       -20.5374 
  53   1.0000      -0.745570       -20.2880 
  54   1.0000      -0.721993       -19.6464 
  55   1.0000      -0.707365       -19.2484 
  56   1.0000      -0.699130       -19.0243 
  57   1.0000      -0.687895       -18.7186 
  58   1.0000      -0.675101       -18.3704 
  59   1.0000      -0.669689       -18.2232 
  60   1.0000      -0.666438       -18.1347 
  61   1.0000      -0.651425       -17.7262 
  62   1.0000      -0.647813       -17.6279 
  63   1.0000      -0.637003       -17.3337 
  64   1.0000      -0.632811       -17.2197 
  65   1.0000      -0.628418       -17.1001 
  66   1.0000      -0.615400       -16.7459 
  67   1.0000      -0.605823       -16.4853 
  68   1.0000      -0.601322       -16.3628 
  69   1.0000      -0.588732       -16.0202 
  70   1.0000      -0.586942       -15.9715 
  71   1.0000      -0.579893       -15.7797 
  72   1.0000      -0.569184       -15.4883 
  73   1.0000      -0.568793       -15.4776 
  74   1.0000      -0.565233       -15.3808 
  75   1.0000      -0.561684       -15.2842 
  76   1.0000      -0.549849       -14.9622 
  77   1.0000      -0.547616       -14.9014 
  78   1.0000      -0.543714       -14.7952 
  79   1.0000      -0.537950       -14.6384 
  80   1.0000      -0.531842       -14.4722 
  81   1.0000      -0.528929       -14.3929 
  82   1.0000      -0.525194       -14.2913 
  83   1.0000      -0.519797       -14.1444 
  84   1.0000      -0.512290       -13.9401 
  85   1.0000      -0.507222       -13.8022 
  86   1.0000      -0.494106       -13.4453 
  87   1.0000      -0.490025       -13.3343 
  88   1.0000      -0.484710       -13.1896 
  89   1.0000      -0.484342       -13.1796 
  90   1.0000      -0.477004       -12.9799 
  91   1.0000      -0.475899       -12.9499 
  92   1.0000      -0.470977       -12.8159 
  93   1.0000      -0.470101       -12.7921 
  94   1.0000      -0.459180       -12.4949 
  95   1.0000      -0.446872       -12.1600 
  96   1.0000      -0.437362       -11.9012 
  97   1.0000      -0.432308       -11.7637 
  98   1.0000      -0.425266       -11.5721 
  99   1.0000      -0.409723       -11.1491 
 100   1.0000      -0.402176       -10.9438 
 101   1.0000      -0.396317       -10.7843 
 102   1.0000      -0.390034       -10.6134 
 103   1.0000      -0.384639       -10.4666 
 104   1.0000      -0.364174        -9.9097 
 105   1.0000      -0.350454        -9.5363 
 106   1.0000      -0.337248        -9.1770 
 107   1.0000      -0.309243        -8.4149 
 108   1.0000      -0.288752        -7.8573 
 109   0.0000      -0.011978        -0.3259 
 110   0.0000      -0.001882        -0.0512 
 111   0.0000       0.008645         0.2353 
 112   0.0000       0.031870         0.8672 
 113   0.0000       0.036933         1.0050 
 114   0.0000       0.042236         1.1493 
 115   0.0000       0.045463         1.2371 
 116   0.0000       0.049029         1.3342 
 117   0.0000       0.051344         1.3971 
 118   0.0000       0.051715         1.4072 
 119   0.0000       0.053705         1.4614 

                 SPIN DOWN ORBITALS
  NO   OCC          E(Eh)            E(eV) 
   0   1.0000     -19.389489      -527.6148 
   1   1.0000     -19.387983      -527.5738 
   2   1.0000     -19.380620      -527.3735 
   3   1.0000     -19.376184      -527.2528 
   4   1.0000     -19.371454      -527.1241 
   5   1.0000     -19.356902      -526.7281 
   6   1.0000     -19.336435      -526.1711 
   7   1.0000     -19.334850      -526.1280 
   8   1.0000     -14.758775      -401.6067 
   9   1.0000     -10.455086      -284.4974 
  10   1.0000     -10.452934      -284.4388 
  11   1.0000     -10.434505      -283.9373 
  12   1.0000     -10.432991      -283.8961 
  13   1.0000     -10.426732      -283.7258 
  14   1.0000     -10.424143      -283.6553 
  15   1.0000     -10.410999      -283.2977 
  16   1.0000     -10.390307      -282.7346 
  17   1.0000     -10.388229      -282.6781 
  18   1.0000     -10.385545      -282.6050 
  19   1.0000     -10.384167      -282.5676 
  20   1.0000     -10.380119      -282.4574 
[...]
108:   1381.14   0.010993   55.55  0.002484  (-0.039739 -0.002199 -0.029997)
109:   1387.33   0.002656   13.42  0.000597  ( 0.006061  0.019636 -0.013233)
110:   1435.94   0.012429   62.81  0.002701  ( 0.015424 -0.045136 -0.020640)
111:   1454.89   0.031038  156.85  0.006657  ( 0.039664  0.056286  0.043772)
112:   1465.73   0.003131   15.83  0.000667  ( 0.011769  0.005405  0.022338)
113:   1470.11   0.003075   15.54  0.000653  ( 0.005507 -0.010296 -0.022723)
114:   1478.40   0.003649   18.44  0.000770  (-0.016602  0.016225  0.015207)
115:   1480.43   0.004477   22.63  0.000944  (-0.002244 -0.029180  0.009340)
116:   1483.23   0.002972   15.02  0.000625  (-0.010695 -0.021592  0.006689)
117:   1492.76   0.001026    5.18  0.000214  ( 0.014636 -0.000488 -0.000157)
118:   1494.37   0.004005   20.24  0.000836  ( 0.012166 -0.019877 -0.017127)
119:   1495.59   0.010391   52.51  0.002168  (-0.031524 -0.001319 -0.034245)
120:   1552.93   0.011881   60.04  0.002387  ( 0.035931  0.017670 -0.028003)
121:   1559.21   0.074404  376.01  0.014891  ( 0.093248  0.040912  0.067249)
122:   1631.63   0.112867  570.38  0.021587  (-0.070674  0.124591 -0.032699)
123:   1637.60   0.173449  876.54  0.033053  (-0.122710 -0.045322  0.126257)
124:   1664.31   0.001373    6.94  0.000257  ( 0.009587 -0.010463  0.007482)
125:   1665.40   0.013168   66.55  0.002467  (-0.037978  0.010541  0.030234)
126:   1679.38   0.113742  574.80  0.021136  ( 0.101294  0.104283 -0.000081)
127:   1711.27   0.093004  470.00  0.016960  ( 0.045859  0.082798 -0.089451)
128:   1716.82   0.260851  1318.23  0.047414  ( 0.146918  0.152455 -0.050862)
129:   1736.69   0.009608   48.55  0.001726  ( 0.007637 -0.020868 -0.035108)
130:   3043.38   0.013605   68.75  0.001395  (-0.027940  0.024753 -0.001291)
131:   3059.72   0.013410   67.77  0.001368  ( 0.026980 -0.017459  0.018303)
132:   3092.61   0.000148    0.75  0.000015  ( 0.000634  0.001741  0.003387)
133:   3102.50   0.000080    0.40  0.000008  (-0.000824  0.001383 -0.002329)
134:   3122.48   0.008504   42.98  0.000850  (-0.019073 -0.021116 -0.006345)
135:   3146.25   0.006980   35.27  0.000692  ( 0.016499 -0.004351 -0.020029)
136:   3149.41   0.001952    9.86  0.000193  (-0.013811 -0.001558  0.000462)
137:   3165.94   0.007110   35.93  0.000701  (-0.003123  0.004521 -0.025896)
138:   3182.74   0.001075    5.43  0.000105  (-0.009255 -0.001307 -0.004247)
139:   3183.28   0.004386   22.17  0.000430  ( 0.002011  0.019988  0.005144)
140:   3184.07   0.001396    7.05  0.000137  (-0.007426 -0.008002 -0.004198)
141:   3187.93   0.001664    8.41  0.000163  (-0.007384 -0.001673 -0.010275)
142:   3189.31   0.000368    1.86  0.000036  (-0.004346  0.002513 -0.003294)
143:   3192.92   0.000434    2.19  0.000042  (-0.004511 -0.002083  0.004214)
144:   3194.37   0.000864    4.36  0.000084  (-0.004416  0.007052  0.003891)
145:   3197.97   0.002452   12.39  0.000239  ( 0.003917  0.010464 -0.010699)
146:   3205.87   0.001041    5.26  0.000101  (-0.002064 -0.009741 -0.001483)
147:   3206.00   0.001473    7.45  0.000143  (-0.001704  0.007830 -0.008899)
148:   3799.13   0.038680  195.47  0.003177  ( 0.036736  0.042033 -0.007799)
149:   3801.66   0.035775  180.79  0.002937  (-0.034841 -0.034750  0.022697)

* The epsilon (eps) is given for a Dirac delta lineshape.
** The dipole moment derivative (T) already includes vibrational overlap.

The first frequency considered to be a vibration is 7
The total number of vibrations considered is 143


--------------------------
THERMOCHEMISTRY AT 363.15K
--------------------------

Temperature         ...   363.15 K
Pressure            ...     1.00 atm
Total Mass          ...   414.39 AMU
Quasi RRHO          ...     True
Cut-Off Frequency   ...     1.00 cm^-1

Throughout the following assumptions are being made:
  (1) The electronic state is orbitally nondegenerate
      but the spin degeneracy is treated
  (2) There are no thermally accessible electronically excited states
  (3) Hindered rotations indicated by low frequency modes are not
      treated as such but are treated as vibrations and this may
      cause some error
  (4) All equations used are the standard statistical mechanics
      equations for an ideal gas
  (5) All vibrations are strictly harmonic

freq.       7.95  E(vib)   ...       0.71 
freq.      11.57  E(vib)   ...       0.71 
freq.      26.72  E(vib)   ...       0.68 
freq.      36.53  E(vib)   ...       0.67 
freq.      40.09  E(vib)   ...       0.67 
freq.      50.14  E(vib)   ...       0.65 
freq.      57.91  E(vib)   ...       0.64 
freq.      64.86  E(vib)   ...       0.63 
freq.      74.44  E(vib)   ...       0.62 
freq.      79.07  E(vib)   ...       0.61 
freq.      96.96  E(vib)   ...       0.59 
freq.     114.03  E(vib)   ...       0.57 
freq.     123.65  E(vib)   ...       0.56 
freq.     134.26  E(vib)   ...       0.55 
freq.     134.67  E(vib)   ...       0.55 
freq.     145.95  E(vib)   ...       0.53 
freq.     152.16  E(vib)   ...       0.53 
freq.     163.76  E(vib)   ...       0.51 
freq.     173.62  E(vib)   ...       0.50 
freq.     197.40  E(vib)   ...       0.48 
freq.     224.58  E(vib)   ...       0.45 
freq.     233.07  E(vib)   ...       0.44 
freq.     236.43  E(vib)   ...       0.44 
freq.     265.17  E(vib)   ...       0.41 
freq.     287.75  E(vib)   ...       0.39 
freq.     304.06  E(vib)   ...       0.37 
freq.     306.89  E(vib)   ...       0.37 
freq.     318.91  E(vib)   ...       0.36 
freq.     322.65  E(vib)   ...       0.36 
freq.     342.60  E(vib)   ...       0.34 
freq.     375.42  E(vib)   ...       0.31 
freq.     382.58  E(vib)   ...       0.31 
freq.     387.34  E(vib)   ...       0.30 
freq.     404.52  E(vib)   ...       0.29 
freq.     423.02  E(vib)   ...       0.28 
freq.     433.69  E(vib)   ...       0.27 
freq.     448.29  E(vib)   ...       0.26 
freq.     456.79  E(vib)   ...       0.26 
freq.     475.18  E(vib)   ...       0.24 
freq.     499.67  E(vib)   ...       0.23 
freq.     525.52  E(vib)   ...       0.21 
freq.     535.29  E(vib)   ...       0.21 
freq.     554.80  E(vib)   ...       0.20 
freq.     575.46  E(vib)   ...       0.19 
freq.     581.75  E(vib)   ...       0.18 
freq.     591.68  E(vib)   ...       0.18 
freq.     608.13  E(vib)   ...       0.17 
freq.     614.73  E(vib)   ...       0.17 
freq.     636.28  E(vib)   ...       0.16 
freq.     659.27  E(vib)   ...       0.15 
freq.     719.24  E(vib)   ...       0.13 
freq.     724.04  E(vib)   ...       0.12 
freq.     755.07  E(vib)   ...       0.11 
freq.     756.01  E(vib)   ...       0.11 
freq.     774.20  E(vib)   ...       0.11 
freq.     775.21  E(vib)   ...       0.11 
freq.     787.24  E(vib)   ...       0.10 
freq.     820.48  E(vib)   ...       0.09 
freq.     831.12  E(vib)   ...       0.09 
freq.     846.00  E(vib)   ...       0.09 
freq.     857.44  E(vib)   ...       0.08 
freq.     877.51  E(vib)   ...       0.08 
freq.     882.41  E(vib)   ...       0.08 
freq.     884.39  E(vib)   ...       0.08 
freq.     919.07  E(vib)   ...       0.07 
freq.     926.06  E(vib)   ...       0.07 
freq.     935.92  E(vib)   ...       0.07 
freq.     950.36  E(vib)   ...       0.06 
freq.     964.30  E(vib)   ...       0.06 
freq.     967.87  E(vib)   ...       0.06 
freq.     987.90  E(vib)   ...       0.06 
freq.    1001.55  E(vib)   ...       0.06 
freq.    1017.35  E(vib)   ...       0.05 
freq.    1040.24  E(vib)   ...       0.05 
freq.    1057.90  E(vib)   ...       0.05 
freq.    1095.96  E(vib)   ...       0.04 
freq.    1106.65  E(vib)   ...       0.04 
freq.    1140.35  E(vib)   ...       0.04 
freq.    1143.61  E(vib)   ...       0.04 
freq.    1173.11  E(vib)   ...       0.03 
freq.    1176.80  E(vib)   ...       0.03 
freq.    1189.49  E(vib)   ...       0.03 
freq.    1202.85  E(vib)   ...       0.03 
freq.    1203.98  E(vib)   ...       0.03 
freq.    1218.56  E(vib)   ...       0.03 
freq.    1222.70  E(vib)   ...       0.03 
freq.    1243.67  E(vib)   ...       0.03 
freq.    1258.24  E(vib)   ...       0.02 
freq.    1264.80  E(vib)   ...       0.02 
freq.    1272.23  E(vib)   ...       0.02 
freq.    1275.31  E(vib)   ...       0.02 
freq.    1285.16  E(vib)   ...       0.02 
freq.    1298.21  E(vib)   ...       0.02 
freq.    1304.23  E(vib)   ...       0.02 
freq.    1309.82  E(vib)   ...       0.02 
freq.    1314.21  E(vib)   ...       0.02 
freq.    1319.68  E(vib)   ...       0.02 
freq.    1339.44  E(vib)   ...       0.02 
freq.    1345.25  E(vib)   ...       0.02 
freq.    1358.37  E(vib)   ...       0.02 
freq.    1371.62  E(vib)   ...       0.02 
freq.    1381.14  E(vib)   ...       0.02 
freq.    1387.33  E(vib)   ...       0.02 
freq.    1435.94  E(vib)   ...       0.01 
freq.    1454.89  E(vib)   ...       0.01 
freq.    1465.73  E(vib)   ...       0.01 
freq.    1470.11  E(vib)   ...       0.01 
freq.    1478.40  E(vib)   ...       0.01 
freq.    1480.43  E(vib)   ...       0.01 
freq.    1483.23  E(vib)   ...       0.01 
freq.    1492.76  E(vib)   ...       0.01 
freq.    1494.37  E(vib)   ...       0.01 
freq.    1495.59  E(vib)   ...       0.01 
freq.    1552.93  E(vib)   ...       0.01 
freq.    1559.21  E(vib)   ...       0.01 
freq.    1631.63  E(vib)   ...       0.01 
freq.    1637.60  E(vib)   ...       0.01 
freq.    1664.31  E(vib)   ...       0.01 
freq.    1665.40  E(vib)   ...       0.01 
freq.    1679.38  E(vib)   ...       0.01 
freq.    1711.27  E(vib)   ...       0.01 
freq.    1716.82  E(vib)   ...       0.01 
freq.    1736.69  E(vib)   ...       0.01 
freq.    3043.38  E(vib)   ...       0.00 
freq.    3059.72  E(vib)   ...       0.00 
freq.    3092.61  E(vib)   ...       0.00 
freq.    3102.50  E(vib)   ...       0.00 
freq.    3122.48  E(vib)   ...       0.00 
freq.    3146.25  E(vib)   ...       0.00 
freq.    3149.41  E(vib)   ...       0.00 
freq.    3165.94  E(vib)   ...       0.00 
freq.    3182.74  E(vib)   ...       0.00 
freq.    3183.28  E(vib)   ...       0.00 
freq.    3184.07  E(vib)   ...       0.00 
freq.    3187.93  E(vib)   ...       0.00 
freq.    3189.31  E(vib)   ...       0.00 
freq.    3192.92  E(vib)   ...       0.00 
freq.    3194.37  E(vib)   ...       0.00 
freq.    3197.97  E(vib)   ...       0.00 
freq.    3205.87  E(vib)   ...       0.00 
freq.    3206.00  E(vib)   ...       0.00 
freq.    3799.13  E(vib)   ...       0.00 
freq.    3801.66  E(vib)   ...       0.00 

------------
INNER ENERGY
------------

The inner energy is: U= E(el) + E(ZPE) + E(vib) + E(rot) + E(trans)
    E(el)   - is the total energy from the electronic structure calculation
              = E(kin-el) + E(nuc-el) + E(el-el) + E(nuc-nuc)
    E(ZPE)  - the the zero temperature vibrational energy from the frequency calculation
    E(vib)  - the the finite temperature correction to E(ZPE) due to population
              of excited vibrational states
    E(rot)  - is the rotational thermal energy
    E(trans)- is the translational thermal energy

Summary of contributions to the inner energy U:
Electronic energy                ...  -1468.53785464 Eh
Zero point energy                ...      0.38244312 Eh     239.99 kcal/mol
Thermal vibrational correction   ...      0.03731481 Eh      23.42 kcal/mol
Thermal rotational correction    ...      0.00172503 Eh       1.08 kcal/mol
Thermal translational correction ...      0.00172503 Eh       1.08 kcal/mol
-----------------------------------------------------------------------
Total thermal energy                  -1468.11464665 Eh


Summary of corrections to the electronic energy:
(perhaps to be used in another calculation)
Total thermal correction                  0.04076488 Eh      25.58 kcal/mol
Non-thermal (ZPE) correction              0.38244312 Eh     239.99 kcal/mol
-----------------------------------------------------------------------
Total correction                          0.42320800 Eh     265.57 kcal/mol


--------
ENTHALPY
--------

The enthalpy is H = U + kB*T
                kB is Boltzmann's constant
Total thermal energy              ...  -1468.11464665 Eh 
Thermal Enthalpy correction       ...      0.00115006 Eh       0.72 kcal/mol
-----------------------------------------------------------------------
Total Enthalpy                    ...  -1468.11349659 Eh


Note: Only C1 symmetry has been detected, increase convergence thresholds 
      if your molecule has a higher symmetry. Symmetry factor of 1.0 is   
      used for the rotational entropy correction. 
 

Note: Rotational entropy computed according to Herzberg 
Infrared and Raman Spectra, Chapter V,1, Van Nostrand Reinhold, 1945 
Point Group:  C1, Symmetry Number:   1  
Rotational constants in cm-1:     0.009214     0.001926     0.001836 

Vibrational entropy computed according to the QRRHO of S. Grimme
Chem.Eur.J. 2012 18 9955 using a reference frequency of 100.0 cm-1


-------
ENTROPY
-------

The entropy contributions are T*S = T*(S(el)+S(vib)+S(rot)+S(trans))
     S(el)   - electronic entropy
     S(vib)  - vibrational entropy
     S(rot)  - rotational entropy
     S(trans)- translational entropy
The entropies will be listed as multiplied by the temperature to get
units of energy

Electronic entropy                ...      0.00079714 Eh      0.50 kcal/mol
Vibrational entropy               ...      0.06937322 Eh     43.53 kcal/mol
Rotational entropy                ...      0.02183756 Eh     13.70 kcal/mol
Translational entropy             ...      0.02600477 Eh     16.32 kcal/mol
-----------------------------------------------------------------------
Final entropy term                ...      0.11801269 Eh     74.05 kcal/mol

In case the symmetry of your molecule has not been determined correctly
or in case you have a reason to use a different symmetry number we print 
out the resulting rotational entropy values for sn=1,12:

 non-linear molecules -----------------------------------
|  sn= 1 | S(rot)=       0.02183756 Eh     13.70 kcal/mol|
|  sn= 2 | S(rot)=       0.02104043 Eh     13.20 kcal/mol|
|  sn= 3 | S(rot)=       0.02057413 Eh     12.91 kcal/mol|
|  sn= 4 | S(rot)=       0.02024329 Eh     12.70 kcal/mol|
|  sn= 5 | S(rot)=       0.01998667 Eh     12.54 kcal/mol|
|  sn= 6 | S(rot)=       0.01977700 Eh     12.41 kcal/mol|
|  sn= 7 | S(rot)=       0.01959972 Eh     12.30 kcal/mol|
|  sn= 8 | S(rot)=       0.01944616 Eh     12.20 kcal/mol|
|  sn= 9 | S(rot)=       0.01931070 Eh     12.12 kcal/mol|
|  sn=10 | S(rot)=       0.01918954 Eh     12.04 kcal/mol|
|  sn=11 | S(rot)=       0.01907993 Eh     11.97 kcal/mol|
|  sn=12 | S(rot)=       0.01897986 Eh     11.91 kcal/mol|
 linear molecules ---------------------------------------
|  Dinfh | S(rot)=       0.01395933 Eh      8.76 kcal/mol|
|  Cinfv | S(rot)=       0.01475647 Eh      9.26 kcal/mol|
 --------------------------------------------------------


-------------------
GIBBS FREE ENERGY
-------------------

The Gibbs free energy is G = H - T*S

Total enthalpy                    ...  -1468.11349659 Eh 
Total entropy correction          ...     -0.11801269 Eh    -74.05 kcal/mol
-----------------------------------------------------------------------
Final Gibbs free energy         ...  -1468.23150928 Eh

For completeness - the Gibbs free energy minus the electronic energy
G-E(el)                           ...      0.30634537 Eh    192.23 kcal/mol



--------------------------------
SUGGESTED CITATIONS FOR THIS RUN
--------------------------------

Below you find a list of papers that are relevant to this ORCA run
We neither can nor want to force you to cite these papers, but we appreciate if you do
You receive ORCA, which is the product of decades of hard work by many enthusiastic individuals, for free
The only thing we kindly ask in return is that you cite our papers,
We deeply appreciate it, if you show your appreciation for ORCA by not just citing the generic ORCA reference.

Please note that relegating all ORCA citations to the supporting information does *not* help us.
SI sections are not indexed - citations you put there will not count into any citation statistics
But we need these citations in order to attract the funding resources that allow us to do what we are doing

Therefore, if you are a happy ORCA user, please consider citing a few of the papers listed below in the main body of your paper

In addition to the list printed below, the program has created the file CURCUMIN-OPT-FREQ-Reag-1-wB97XM-V-6-311+G-D-363.bibtex that contains the list in bibtex format
You can import this file easily into all common literature databanks and citation aid programs


List of essential papers. We consider these as the minimum necessary citations

  1. Neese,F.
     Software update: the ORCA program system, version 5.0
     WIRES Comput. Molec. Sci., 2022 12(1)e1606
     doi.org/10.1002/wcms.1606

List of papers to cite with high priority. The work reported in these papers was absolutely
necessary for this run to complete.
Our perspective: the developers of density functionals and basis sets usually get cited in chemistry papers
Good! But without the algorithms to do something with them, the functionals or basis sets would not do anything.
Hence, in our opinion, the algorithm design and method developments papers are equally worthy of getting cited

  1. Neese,F.
     An improvement of the resolution of the identity approximation for the formation of the Coulomb matrix
     J. Comp. Chem., 2003 24(14)1740-1747
     doi.org/10.1002/jcc.10318
  2. Bykov,D.; Petrenko,T.; Izsak,R.; Kossmann,S.; Becker,U.; Valeev,E.; Neese,F.
     Efficient implementation of the analytic second derivatives of Hartree-Fock and hybrid DFT energies: a detailed analysis of different approximations
     Molec. Phys., 2015 113 1961-1977
     doi.org/10.1080/00268976.2015.1025114
  3. Garcia-Rates,M.; Neese,F.
     Effect of the Solute Cavity on the Solvation Energy and its Derivatives within the Framework of the Gaussian Charge Scheme
     J. Comput. Chem., 2020 41 922-939
     doi.org/10.1002/jcc.26139
  4. Neese,F.
     The SHARK Integral Generation and Digestion System
     J. Comp. Chem., 2022  1-16
     doi.org/10.1002/jcc.26942
  5. Lehtola,S.; Steigemann,C.; Oliveira,M.; Marques,M.
     Recent developments in Libxc - A comprehensive library of functionals for density functional theory
     Software X, 2018 7 
     doi.org/10.1016/j.softx.2017.11.002

List of suggested additional citations. These are papers that are important in the 'surrounding' of 
of this run, or papers that preceded the highly important papers. If you like your results we are grateful for a citation.

  1. Neese,F.
     The ORCA program system
     WIRES Comput. Molec. Sci., 2012 2(1)73-78
     doi.org/10.1002/wcms.81
  2. Neese,F.
     Software update: the ORCA program system, version 4.0
     WIRES Comput. Molec. Sci., 2018 8(1)1-6
     doi.org/10.1002/wcms.1327
  3. Neese,F.; Wennmohs,F.; Becker,U.; Riplinger,C.
     The ORCA quantum chemistry program package
     J. Chem. Phys., 2020 152 Art. No. L224108
     doi.org/10.1063/5.0004608

List of optional additional citations

  1. Neese,F.
     Approximate second-order SCF convergence for spin unrestricted wavefunctions
     Chem. Phys. Lett., 2000 325(1-3)93-98
     doi.org/10.1016/s0009-2614(00)00662-x

Timings for individual modules:

Sum of individual times          ...   672248.262 sec (=11204.138 min)
Startup calculation              ...       49.158 sec (=   0.819 min)   0.0 %
SCF iterations                   ...    16323.115 sec (= 272.052 min)   2.4 %
Property calculations            ...        0.355 sec (=   0.006 min)   0.0 %
SCF Gradient evaluation          ...     4190.268 sec (=  69.838 min)   0.6 %
Geometry relaxation              ...        0.491 sec (=   0.008 min)   0.0 %
Numerical frequency calculation  ...   651684.875 sec (=10861.415 min)  96.9 %
                             ****ORCA TERMINATED NORMALLY****
TOTAL RUN TIME: 7 days 18 hours 19 minutes 46 seconds 28 msec
