
                                 *****************
                                 * O   R   C   A *
                                 *****************

                                            #,                                       
                                            ###                                      
                                            ####                                     
                                            #####                                    
                                            ######                                   
                                           ########,                                 
                                     ,,################,,,,,                         
                               ,,#################################,,                 
                          ,,##########################################,,             
                       ,#########################################, ''#####,          
                    ,#############################################,,   '####,        
                  ,##################################################,,,,####,       
                ,###########''''           ''''###############################       
              ,#####''   ,,,,##########,,,,          '''####'''          '####       
            ,##' ,,,,###########################,,,                        '##       
           ' ,,###''''                  '''############,,,                           
         ,,##''                                '''############,,,,        ,,,,,,###''
      ,#''                                            '''#######################'''  
     '                                                          ''''####''''         
             ,#######,   #######,   ,#######,      ##                                
            ,#'     '#,  ##    ##  ,#'     '#,    #''#        ######   ,####,        
            ##       ##  ##   ,#'  ##            #'  '#       #        #'  '#        
            ##       ##  #######   ##           ,######,      #####,   #    #        
            '#,     ,#'  ##    ##  '#,     ,#' ,#      #,         ##   #,  ,#        
             '#######'   ##     ##  '#######'  #'      '#     #####' # '####'        



                  #######################################################
                  #                        -***-                        #
                  #          Department of theory and spectroscopy      #
                  #    Directorship and core code : Frank Neese         #
                  #        Max Planck Institute fuer Kohlenforschung    #
                  #                Kaiser Wilhelm Platz 1               #
                  #                 D-45470 Muelheim/Ruhr               #
                  #                      Germany                        #
                  #                                                     #
                  #                  All rights reserved                #
                  #                        -***-                        #
                  #######################################################


                         Program Version 5.0.4 -  RELEASE  -


 With contributions from (in alphabetic order):
   Daniel Aravena         : Magnetic Suceptibility
   Michael Atanasov       : Ab Initio Ligand Field Theory (pilot matlab implementation)
   Alexander A. Auer      : GIAO ZORA, VPT2 properties, NMR spectrum
   Ute Becker             : Parallelization
   Giovanni Bistoni       : ED, misc. LED, open-shell LED, HFLD
   Martin Brehm           : Molecular dynamics
   Dmytro Bykov           : SCF Hessian
   Vijay G. Chilkuri      : MRCI spin determinant printing, contributions to CSF-ICE
   Dipayan Datta          : RHF DLPNO-CCSD density
   Achintya Kumar Dutta   : EOM-CC, STEOM-CC
   Dmitry Ganyushin       : Spin-Orbit,Spin-Spin,Magnetic field MRCI
   Miquel Garcia          : C-PCM and meta-GGA Hessian, CC/C-PCM, Gaussian charge scheme
   Yang Guo               : DLPNO-NEVPT2, F12-NEVPT2, CIM, IAO-localization
   Andreas Hansen         : Spin unrestricted coupled pair/coupled cluster methods
   Benjamin Helmich-Paris : MC-RPA, TRAH-SCF, COSX integrals
   Lee Huntington         : MR-EOM, pCC
   Robert Izsak           : Overlap fitted RIJCOSX, COSX-SCS-MP3, EOM
   Marcus Kettner         : VPT2
   Christian Kollmar      : KDIIS, OOCD, Brueckner-CCSD(T), CCSD density, CASPT2, CASPT2-K
   Simone Kossmann        : Meta GGA functionals, TD-DFT gradient, OOMP2, MP2 Hessian
   Martin Krupicka        : Initial AUTO-CI
   Lucas Lang             : DCDCAS
   Marvin Lechner         : AUTO-CI (C++ implementation), FIC-MRCC
   Dagmar Lenk            : GEPOL surface, SMD
   Dimitrios Liakos       : Extrapolation schemes; Compound Job, initial MDCI parallelization
   Dimitrios Manganas     : Further ROCIS development; embedding schemes
   Dimitrios Pantazis     : SARC Basis sets
   Anastasios Papadopoulos: AUTO-CI, single reference methods and gradients
   Taras Petrenko         : DFT Hessian,TD-DFT gradient, ASA, ECA, R-Raman, ABS, FL, XAS/XES, NRVS
   Peter Pinski           : DLPNO-MP2, DLPNO-MP2 Gradient
   Christoph Reimann      : Effective Core Potentials
   Marius Retegan         : Local ZFS, SOC
   Christoph Riplinger    : Optimizer, TS searches, QM/MM, DLPNO-CCSD(T), (RO)-DLPNO pert. Triples
   Tobias Risthaus        : Range-separated hybrids, TD-DFT gradient, RPA, STAB
   Michael Roemelt        : Original ROCIS implementation
   Masaaki Saitow         : Open-shell DLPNO-CCSD energy and density
   Barbara Sandhoefer     : DKH picture change effects
   Avijit Sen             : IP-ROCIS
   Kantharuban Sivalingam : CASSCF convergence, NEVPT2, FIC-MRCI
   Bernardo de Souza      : ESD, SOC TD-DFT
   Georgi Stoychev        : AutoAux, RI-MP2 NMR, DLPNO-MP2 response
   Willem Van den Heuvel  : Paramagnetic NMR
   Boris Wezisla          : Elementary symmetry handling
   Frank Wennmohs         : Technical directorship


 We gratefully acknowledge several colleagues who have allowed us to
 interface, adapt or use parts of their codes:
   Stefan Grimme, W. Hujo, H. Kruse, P. Pracht,  : VdW corrections, initial TS optimization,
                  C. Bannwarth, S. Ehlert          DFT functionals, gCP, sTDA/sTD-DF
   Ed Valeev, F. Pavosevic, A. Kumar             : LibInt (2-el integral package), F12 methods
   Garnet Chan, S. Sharma, J. Yang, R. Olivares  : DMRG
   Ulf Ekstrom                                   : XCFun DFT Library
   Mihaly Kallay                                 : mrcc  (arbitrary order and MRCC methods)
   Jiri Pittner, Ondrej Demel                    : Mk-CCSD
   Frank Weinhold                                : gennbo (NPA and NBO analysis)
   Christopher J. Cramer and Donald G. Truhlar   : smd solvation model
   Lars Goerigk                                  : TD-DFT with DH, B97 family of functionals
   V. Asgeirsson, H. Jonsson                     : NEB implementation
   FAccTs GmbH                                   : IRC, NEB, NEB-TS, DLPNO-Multilevel, CI-OPT
                                                   MM, QMMM, 2- and 3-layer-ONIOM, Crystal-QMMM,
                                                   LR-CPCM, SF, NACMEs, symmetry and pop. for TD-DFT,
                                                   nearIR, NL-DFT gradient (VV10), updates on ESD,
                                                   ML-optimized integration grids
   S Lehtola, MJT Oliveira, MAL Marques          : LibXC Library
   Liviu Ungur et al                             : ANISO software


 Your calculation uses the libint2 library for the computation of 2-el integrals
 For citations please refer to: http://libint.valeyev.net

 Your ORCA version has been built with support for libXC version: 5.1.0
 For citations please refer to: https://tddft.org/programs/libxc/

 This ORCA versions uses:
   CBLAS   interface :  Fast vector & matrix operations
   LAPACKE interface :  Fast linear algebra routines
   SCALAPACK package :  Parallel linear algebra routines
   Shared memory     :  Shared parallel matrices
   BLAS/LAPACK       :  OpenBLAS 0.3.15  USE64BITINT DYNAMIC_ARCH NO_AFFINITY Sandybridge SINGLE_THREADED
        Core in use  :  Sandybridge
   Copyright (c) 2011-2014, The OpenBLAS Project


Your calculation utilizes the DFT-NL dispersion correction.
Cite in your paper:
Vydrov, O. A.; Van Voorhis, T. J. Chem. Phys. 2010, 133, 244103
Hujo, W.; Grimme, S. J. Chem. Theory Comput. 2011, 7, 3866 
   

================================================================================

----- Orbital basis set information -----
Your calculation utilizes the basis: 6-311G(d)
   H, Li - Ne  : R. Krishnan, J. S. Binkley, R. Seeger and J. A. Pople, J. Chem. Phys. 72, 650 (1980).
   Na - Ar     : A. D. McLean and G. S. Chandler J. Chem. Phys. 72, 5639, (1980).
   K  - Ca     : J.-P. Blaudeau, M. P. McGrath, L. A. Curtiss and L. Radom, J. Chem. Phys. 107, 5016 (1997).
   Ga - Kr     : L. A. Curtiss, M. P. McGrath, J.-P. Blandeau, N. E. Davis, R. C. Binning and L. Radom, J. Chem. Phys. 103, 6104 (1995).
   Pol./Diff.
   H, Li - Cl  : T. Clark, J. Chandrasekhar and P. v. R. Schleyer, J. Comp. Chem. 4, 294 (1983).
   H - Ne      : M. J. Frisch, J. A. Pople and J. S. Binkley, J. Chem. Phys. 80, 3265 (1984).

----- AuxJ basis set information -----
Your calculation utilizes the auxiliary basis: def2/J
   F. Weigend, Phys. Chem. Chem. Phys. 8, 1057 (2006).

================================================================================
                                        WARNINGS
                       Please study these warnings very carefully!
================================================================================

Using LibXC functional ID 531 : wB97M-V exchange-correlation functional
[ 1]  N. Mardirossian and M. Head-Gordon, J. Chem. Phys. 144, 214110 (2016)
Using LibXC functional ID 531 : wB97M-V exchange-correlation functional
[ 1]  N. Mardirossian and M. Head-Gordon, J. Chem. Phys. 144, 214110 (2016)

WARNING: B97M-V or wB97M-V functional requested.
  ===> : libXC variant has now been activated.
         Any manually given DFX/HFX/RangeSep scaling parameters are IGNORED!

Your calculation utilizes LibXC
 by S Lehtola, C Steigemann, MJT Oliveira & MAL Marques
Please cite in your paper:
 S Lehtola, C Steigemann, MJT Oliveira & MAL Marques, SoftwareX, 7, (2018), 1.
   


WARNING: your system is open-shell and RHF/RKS was chosen
  ===> : WILL SWITCH to UHF/UKS


WARNING: Geometry Optimization
  ===> : Switching off AutoStart
         For restart on a previous wavefunction, please use MOREAD

WARNING: Analytic gradients for DFT-NL dispersion can only be done using the self-consistent method,
  ===>   Switching to SCNL

WARNING: Self-consistent DFT-NL dispersion not compatible with AutoTRAH.
  ===>   Switching AutoTRAH off


INFO   : the flag for use of the SHARK integral package has been found!

================================================================================
                                       INPUT FILE
================================================================================
NAME = CURCUMIN-OPT-FREQ-Reag-1-wB97XM-V-6-311G-D-363.inp
|  1> #
|  2> ! Opt NumFreq wb97M-V 6-311G(d) CPCM RIJDX
|  3> %maxcore 2000
|  4> %cpcm
|  5> epsilon 7 # Dielectric constant
|  6> refrac 1.85341 # Refractive index
|  7> end
|  8> %FREQ temp 363.15 # temperature is 363.15K
|  9> end
| 10> * xyz 0 2
| 11>   C   2.09460922490118      1.05294543173089      1.17205129121227
| 12>   H   1.69979525188080      2.06566426651986      1.16388174998492
| 13>   C   1.36737469191119      0.06632081379408      1.74253725776146
| 14>   H   1.70535368135118     -0.96485566753158      1.75997615078295
| 15>   C   0.05645536368491      0.27212237934461      2.37158408356840
| 16>   O   -0.54834707292640     -0.67131731131839      2.85495291962010
| 17>   C   3.37924501343935      0.90521253567077      0.54300286337441
| 18>   C   4.04305981914180      2.00638653115262      0.04265454930490
| 19>   C   4.02373579759157     -0.44048944338526      0.41752531934502
| 20>   C   5.33532638523924      1.92305676831821     -0.47828110005308
| 21>   H   3.56022950393743      2.97699819079981      0.09459307661257
| 22>   C   5.43012674563554     -0.44593865867549     -0.07032820100693
| 23>   H   3.92991645611551     -1.04656667365000      1.32197517787288
| 24>   C   6.04541303631745      0.69938881908998     -0.49845865874462
| 25>   H   5.83096322780771      2.81787209265234     -0.84100179513342
| 26>   O   7.33999436170917      0.64118139949942     -0.91910496769037
| 27>   H   7.63800056623096      1.52031256572770     -1.17985768489532
| 28>   O   5.94386850770564     -1.69486030695001     -0.06379672093936
| 29>   C   6.77426276832118     -2.10500938751541     -1.16577193034660
| 30>   H   7.78561117464794     -1.72009111487503     -1.05799691931160
| 31>   H   6.77608014137567     -3.19207042099708     -1.13467825762712
| 32>   H   6.34071681132708     -1.75925528217092     -2.10603327083398
| 33>   C   -3.00542777442964      0.61660538246061      1.08625834292101
| 34>   H   -2.67948518763023      0.23254283238649      2.04990813161344
| 35>   C   -2.27702004723075      1.57014222212635      0.48565804519409
| 36>   H   -2.54611109771853      1.97706434781906     -0.48505147295961
| 37>   C   -1.04708016006665      2.14682132060840      1.04896834172290
| 38>   O   -0.42422825034413      2.99362310862887      0.43002243958098
| 39>   C   -4.22232196535333     -0.00777063560887      0.56174536090884
| 40>   C   -4.83429324130440     -1.02014223765354      1.30314689304283
| 41>   C   -4.80438882381084      0.36634712388610     -0.65907895191022
| 42>   C   -5.98313644443146     -1.65219213457836      0.84267599690926
| 43>   H   -4.40254642365055     -1.32493542986030      2.25135731626630
| 44>   C   -5.94324438613957     -0.25638368975490     -1.12725265356720
| 45>   H   -4.37413890111647      1.14707337625080     -1.27744544412337
| 46>   C   -6.54374281486632     -1.28150393575844     -0.37462904244512
| 47>   H   -6.44623902482692     -2.44464989213642      1.42381667280715
| 48>   O   -7.65110456335427     -1.86337669249890     -0.89775863622337
| 49>   H   -7.97570965300170     -2.55088384901193     -0.30397562428889
| 50>   O   -6.46388243336026      0.10001061718327     -2.34660742989694
| 51>   C   -7.66157970987986      0.87919887997722     -2.24755065017680
| 52>   H   -7.46754027627972      1.80832000771759     -1.70348882430418
| 53>   H   -7.96348629624043      1.10983905206137     -3.26751946934771
| 54>   H   -8.45420755728356      0.31750065332109     -1.74925582563128
| 55>   C   -0.54776784941751      1.67461918468407      2.41369040578975
| 56>   H   -1.36462442708431      1.65093938237365      3.13571836788051
| 57>   H   0.19291966649823      2.40037408787618      2.75158072988723
| 58>   O   2.53846609373719     -2.19307026079694     -0.21702205288670
| 59>   O   3.32514306716882     -0.95201872085264     -1.79295269044293
| 60>   N   3.21855702407101     -1.27811162808101     -0.62957420917745
| 61> *
| 62> 
| 63> 
| 64>                          ****END OF INPUT****
================================================================================

                       *****************************
                       * Geometry Optimization Run *
                       *****************************

Geometry optimization settings:
Update method            Update   .... BFGS
Choice of coordinates    CoordSys .... Z-matrix Internals
Initial Hessian          InHess   .... Almoef's Model

Convergence Tolerances:
Energy Change            TolE     ....  5.0000e-06 Eh
Max. Gradient            TolMAXG  ....  3.0000e-04 Eh/bohr
RMS Gradient             TolRMSG  ....  1.0000e-04 Eh/bohr
Max. Displacement        TolMAXD  ....  4.0000e-03 bohr
RMS Displacement         TolRMSD  ....  2.0000e-03 bohr
Strict Convergence                ....  False
------------------------------------------------------------------------------
                        ORCA OPTIMIZATION COORDINATE SETUP
------------------------------------------------------------------------------

The optimization will be done in new redundant internal coordinates
Making redundant internal coordinates   ...  (new redundants) done
Evaluating the initial hessian          ...  (Almloef) done
Evaluating the coordinates              ...  done
Calculating the B-matrix                .... done
Calculating the G-matrix                .... done
Diagonalizing the G-matrix              .... done
Small eigenvalue found = 1.115e-03
Small eigenvalue found = 1.201e-03
Small eigenvalue found = 2.336e-03
Small eigenvalue found = 7.136e-03
Small eigenvalue found = 8.877e-03
Small eigenvalue found = 1.176e-02
Small eigenvalue found = 1.636e-02
Small eigenvalue found = 2.242e-02
Small eigenvalue found = 2.835e-02
The first mode is                       ....   97
The number of degrees of freedom        ....  144

    -----------------------------------------------------------------
                    Redundant Internal Coordinates


    -----------------------------------------------------------------
         Definition                    Initial Value    Approx d2E/dq
    -----------------------------------------------------------------
      1. B(H   1,C   0)                  1.0870         0.364106   
      2. B(C   2,C   0)                  1.3519         0.718546   
      3. B(H   3,C   2)                  1.0853         0.366382   
      4. B(C   4,C   2)                  1.4685         0.468229   
      5. B(O   5,C   4)                  1.2205         1.043216   
      6. B(C   6,C   0)                  1.4380         0.523809   
      7. B(C   7,C   6)                  1.3797         0.648882   
      8. B(C   8,C   6)                  1.4973         0.421196   
      9. B(C   9,C   7)                  1.3958         0.611614   
     10. B(H  10,C   7)                  1.0853         0.366351   
     11. B(C  11,C   8)                  1.4886         0.434920   
     12. B(H  12,C   8)                  1.0928         0.356445   
     13. B(C  13,C  11)                  1.3688         0.675370   
     14. B(C  13,C   9)                  1.4149         0.570142   
     15. B(H  14,C   9)                  1.0853         0.366346   
     16. B(O  15,C  13)                  1.3625         0.619196   
     17. B(H  16,O  15)                  0.9642         0.512005   
     18. B(O  17,C  11)                  1.3505         0.647050   
     19. B(C  18,O  17)                  1.4395         0.466574   
     20. B(H  19,C  18)                  1.0875         0.363455   
     21. B(H  20,C  18)                  1.0875         0.363413   
     22. B(H  21,C  18)                  1.0916         0.357984   
     23. B(H  23,C  22)                  1.0874         0.363602   
     24. B(C  24,C  22)                  1.3418         0.745722   
     25. B(H  25,C  24)                  1.0864         0.364889   
     26. B(C  26,C  24)                  1.4706         0.464692   
     27. B(O  27,C  26)                  1.2199         1.045413   
     28. B(C  28,C  22)                  1.4649         0.474589   
     29. B(C  29,C  28)                  1.3961         0.610962   
     30. B(C  30,C  28)                  1.4033         0.595060   
     31. B(C  31,C  29)                  1.3897         0.625407   
     32. B(H  32,C  29)                  1.0855         0.366042   
     33. B(C  33,C  30)                  1.3798         0.648545   
     34. B(H  34,C  30)                  1.0849         0.366899   
     35. B(C  35,C  33)                  1.4064         0.588303   
     36. B(C  35,C  31)                  1.3905         0.623625   
     37. B(H  36,C  31)                  1.0864         0.364948   
     38. B(O  37,C  35)                  1.3559         0.634256   
     39. B(H  38,O  37)                  0.9647         0.511088   
     40. B(O  39,C  33)                  1.3729         0.595836   
     41. B(C  40,O  39)                  1.4323         0.479094   
     42. B(H  41,C  40)                  1.0940         0.354797   
     43. B(H  42,C  40)                  1.0884         0.362184   
     44. B(H  43,C  40)                  1.0918         0.357706   
     45. B(C  44,C  26)                  1.5280         0.376343   
     46. B(C  44,C   4)                  1.5277         0.376750   
     47. B(H  45,C  44)                  1.0905         0.359470   
     48. B(H  46,C  44)                  1.0906         0.359247   
     49. B(N  49,O  48)                  1.2129         0.960618   
     50. B(N  49,O  47)                  1.2124         0.962474   
     51. B(N  49,C   8)                  1.5641         0.295219   
     52. A(C   2,C   0,C   6)          126.1690         0.432423   
     53. A(H   1,C   0,C   2)          119.1901         0.362553   
     54. A(H   1,C   0,C   6)          114.6397         0.343665   
     55. A(H   3,C   2,C   4)          113.8452         0.337631   
     56. A(C   0,C   2,H   3)          122.1851         0.362939   
     57. A(C   0,C   2,C   4)          123.9638         0.423814   
     58. A(C   2,C   4,C  44)          119.5728         0.378293   
     59. A(C   2,C   4,O   5)          120.2444         0.450297   
     60. A(O   5,C   4,C  44)          120.1826         0.432951   
     61. A(C   0,C   6,C   7)          120.4286         0.424587   
     62. A(C   0,C   6,C   8)          120.8980         0.393317   
     63. A(C   7,C   6,C   8)          118.6734         0.408429   
     64. A(C   9,C   7,H  10)          118.8898         0.353124   
     65. A(C   6,C   7,C   9)          122.2177         0.436567   
     66. A(C   6,C   7,H  10)          118.8406         0.356683   
     67. A(H  12,C   8,N  49)          102.2909         0.309763   
     68. A(C   6,C   8,C  11)          115.9383         0.380774   
     69. A(C   6,C   8,H  12)          113.0878         0.330239   
     70. A(C  11,C   8,N  49)          105.3669         0.356009   
     71. A(C   6,C   8,N  49)          108.4106         0.354078   
     72. A(C  11,C   8,H  12)          110.5073         0.331996   
     73. A(C  13,C   9,H  14)          118.6253         0.348958   
     74. A(C   7,C   9,H  14)          119.8882         0.353123   
     75. A(C   7,C   9,C  13)          121.4385         0.426538   
     76. A(C  13,C  11,O  17)          127.1803         0.441306   
     77. A(C   8,C  11,O  17)          111.1742         0.407904   
     78. A(C   8,C  11,C  13)          121.6088         0.413682   
     79. A(C  11,C  13,O  15)          119.2047         0.437815   
     80. A(C   9,C  13,O  15)          121.2121         0.424696   
     81. A(C   9,C  13,C  11)          119.5765         0.434199   
     82. A(C  13,O  15,H  16)          109.7683         0.369055   
     83. A(C  11,O  17,C  18)          118.6363         0.410349   
     84. A(O  17,C  18,H  21)          109.8792         0.334098   
     85. A(H  19,C  18,H  20)          110.4520         0.291683   
     86. A(O  17,C  18,H  20)          105.3008         0.334935   
     87. A(O  17,C  18,H  19)          111.0857         0.334941   
     88. A(H  20,C  18,H  21)          109.9927         0.290989   
     89. A(H  19,C  18,H  21)          110.0363         0.290994   
     90. A(C  24,C  22,C  28)          126.4115         0.427672   
     91. A(H  23,C  22,C  28)          114.5692         0.337962   
     92. A(H  23,C  22,C  24)          119.0088         0.364775   
     93. A(H  25,C  24,C  26)          113.7368         0.336976   
     94. A(C  22,C  24,C  26)          124.1405         0.426060   
     95. A(C  22,C  24,H  25)          122.1164         0.364995   
     96. A(C  24,C  26,O  27)          120.3241         0.449849   
     97. A(O  27,C  26,C  44)          120.0557         0.433031   
     98. A(C  24,C  26,C  44)          119.6196         0.377727   
     99. A(C  29,C  28,C  30)          118.2625         0.429740   
    100. A(C  22,C  28,C  30)          122.8508         0.410806   
    101. A(C  22,C  28,C  29)          118.8866         0.412733   
    102. A(C  31,C  29,H  32)          119.3739         0.354409   
    103. A(C  28,C  29,H  32)          119.5466         0.353009   
    104. A(C  28,C  29,C  31)          121.0778         0.433598   
    105. A(C  33,C  30,H  34)          117.3031         0.356743   
    106. A(C  28,C  30,H  34)          121.5487         0.351577   
    107. A(C  28,C  30,C  33)          121.1453         0.434375   
    108. A(C  35,C  31,H  36)          119.4002         0.354058   
    109. A(C  29,C  31,H  36)          120.4582         0.354230   
    110. A(C  29,C  31,C  35)          120.1394         0.435201   
    111. A(C  35,C  33,O  39)          120.1713         0.424157   
    112. A(C  30,C  33,O  39)          119.8135         0.431634   
    113. A(C  30,C  33,C  35)          119.9864         0.433483   
    114. A(C  33,C  35,O  37)          117.0679         0.428930   
    115. A(C  31,C  35,O  37)          123.5468         0.433446   
    116. A(C  31,C  35,C  33)          119.3839         0.430442   
    117. A(C  35,O  37,H  38)          110.0700         0.370468   
    118. A(C  33,O  39,C  40)          113.3850         0.406303   
    119. A(H  41,C  40,H  42)          109.5880         0.290426   
    120. A(O  39,C  40,H  42)          106.4045         0.336223   
    121. A(O  39,C  40,H  41)          110.3708         0.335073   
    122. A(H  42,C  40,H  43)          109.5927         0.290798   
    123. A(H  41,C  40,H  43)          109.7982         0.289859   
    124. A(O  39,C  40,H  43)          111.0239         0.335528   
    125. A(H  45,C  44,H  46)          108.5446         0.290651   
    126. A(C  26,C  44,H  46)          107.0367         0.324586   
    127. A(C   4,C  44,H  46)          110.5385         0.324643   
    128. A(C  26,C  44,H  45)          110.6893         0.324619   
    129. A(C   4,C  44,H  45)          107.1327         0.324677   
    130. A(C   4,C  44,C  26)          112.8510         0.364337   
    131. A(O  47,N  49,O  48)          125.3506         0.496075   
    132. A(C   8,N  49,O  48)          116.9306         0.403173   
    133. A(C   8,N  49,O  47)          117.7184         0.403310   
    134. D(C   4,C   2,C   0,H   1)     -0.3332         0.036529   
    135. D(H   3,C   2,C   0,H   1)    178.7256         0.036529   
    136. D(C   4,C   2,C   0,C   6)   -179.9239         0.036529   
    137. D(H   3,C   2,C   0,C   6)     -0.8651         0.036529   
    138. D(C  44,C   4,C   2,C   0)     -0.5788         0.014929   
    139. D(C  44,C   4,C   2,H   3)   -179.7079         0.014929   
    140. D(O   5,C   4,C   2,H   3)      0.1179         0.014929   
    141. D(O   5,C   4,C   2,C   0)    179.2471         0.014929   
    142. D(C   8,C   6,C   0,C   2)      2.5244         0.018718   
    143. D(C   7,C   6,C   0,H   1)      2.9494         0.018718   
    144. D(C   7,C   6,C   0,C   2)   -177.4437         0.018718   
    145. D(C   8,C   6,C   0,H   1)   -177.0825         0.018718   
    146. D(H  10,C   7,C   6,C   0)     -2.5726         0.029309   
    147. D(C   9,C   7,C   6,C   8)     -5.1916         0.029309   
    148. D(C   9,C   7,C   6,C   0)    174.7773         0.029309   
    149. D(H  10,C   7,C   6,C   8)    177.4586         0.029309   
    150. D(N  49,C   8,C   6,C   7)   -109.7123         0.013116   
    151. D(N  49,C   8,C   6,C   0)     70.3190         0.013116   
    152. D(H  12,C   8,C   6,C   7)    137.5951         0.013116   
    153. D(H  12,C   8,C   6,C   0)    -42.3736         0.013116   
    154. D(C  11,C   8,C   6,C   7)      8.4834         0.013116   
    155. D(C  11,C   8,C   6,C   0)   -171.4853         0.013116   
    156. D(C  13,C   9,C   7,C   6)     -1.1379         0.025843   
    157. D(H  14,C   9,C   7,C   6)   -178.5833         0.025843   
    158. D(C  13,C   9,C   7,H  10)    176.2107         0.025843   
    159. D(H  14,C   9,C   7,H  10)     -1.2347         0.025843   
    160. D(O  17,C  11,C   8,C   6)    175.9795         0.013963   
    161. D(C  13,C  11,C   8,N  49)    113.7869         0.013963   
    162. D(C  13,C  11,C   8,H  12)   -136.4277         0.013963   
    163. D(O  17,C  11,C   8,H  12)     45.6260         0.013963   
    164. D(C  13,C  11,C   8,C   6)     -6.0742         0.013963   
    165. D(O  17,C  11,C   8,N  49)    -64.1594         0.013963   
    166. D(O  15,C  13,C  11,O  17)     -3.2317         0.031939   
    167. D(C   9,C  13,C  11,O  17)    177.6937         0.031939   
    168. D(C   9,C  13,C  11,C   8)      0.0976         0.031939   
    169. D(O  15,C  13,C   9,H  14)      2.2318         0.022299   
    170. D(O  15,C  13,C   9,C   7)   -175.2450         0.022299   
    171. D(O  15,C  13,C  11,C   8)    179.1722         0.031939   
    172. D(C  11,C  13,C   9,H  14)   -178.7126         0.022299   
    173. D(C  11,C  13,C   9,C   7)      3.8106         0.022299   
    174. D(H  16,O  15,C  13,C  11)   -179.4274         0.028124   
    175. D(H  16,O  15,C  13,C   9)     -0.3684         0.028124   
    176. D(C  18,O  17,C  11,C  13)    -38.1437         0.030919   
    177. D(C  18,O  17,C  11,C   8)    139.6609         0.030919   
    178. D(H  21,C  18,O  17,C  11)    -42.2317         0.017156   
    179. D(H  20,C  18,O  17,C  11)   -160.6464         0.017156   
    180. D(H  19,C  18,O  17,C  11)     79.7663         0.017156   
    181. D(H  25,C  24,C  22,C  28)      0.1370         0.039615   
    182. D(H  25,C  24,C  22,H  23)    178.8886         0.039615   
    183. D(C  26,C  24,C  22,C  28)   -178.8951         0.039615   
    184. D(C  26,C  24,C  22,H  23)     -0.1435         0.039615   
    185. D(C  44,C  26,C  24,H  25)    179.7448         0.014707   
    186. D(C  44,C  26,C  24,C  22)     -1.1507         0.014707   
    187. D(O  27,C  26,C  24,H  25)     -0.5436         0.014707   
    188. D(O  27,C  26,C  24,C  22)    178.5608         0.014707   
    189. D(C  30,C  28,C  22,C  24)     -1.9791         0.015336   
    190. D(C  30,C  28,C  22,H  23)    179.2214         0.015336   
    191. D(C  29,C  28,C  22,C  24)    177.9837         0.015336   
    192. D(C  29,C  28,C  22,H  23)     -0.8159         0.015336   
    193. D(H  32,C  29,C  28,C  30)   -179.9036         0.025785   
    194. D(H  32,C  29,C  28,C  22)      0.1320         0.025785   
    195. D(C  31,C  29,C  28,C  30)      0.5720         0.025785   
    196. D(C  31,C  29,C  28,C  22)   -179.3925         0.025785   
    197. D(H  34,C  30,C  28,C  29)    179.9343         0.024389   
    198. D(H  34,C  30,C  28,C  22)     -0.1027         0.024389   
    199. D(C  33,C  30,C  28,C  29)     -0.7140         0.024389   
    200. D(C  33,C  30,C  28,C  22)    179.2489         0.024389   
    201. D(H  36,C  31,C  29,H  32)     -0.0510         0.027094   
    202. D(H  36,C  31,C  29,C  28)    179.4742         0.027094   
    203. D(C  35,C  31,C  29,H  32)   -179.5048         0.027094   
    204. D(C  35,C  31,C  29,C  28)      0.0205         0.027094   
    205. D(O  39,C  33,C  30,H  34)      1.5879         0.029277   
    206. D(O  39,C  33,C  30,C  28)   -177.7903         0.029277   
    207. D(C  35,C  33,C  30,H  34)    179.6411         0.029277   
    208. D(C  35,C  33,C  30,C  28)      0.2629         0.029277   
    209. D(O  37,C  35,C  33,O  39)     -1.1922         0.023811   
    210. D(O  37,C  35,C  33,C  30)   -179.2384         0.023811   
    211. D(C  31,C  35,C  33,O  39)    178.3896         0.023811   
    212. D(C  31,C  35,C  33,C  30)      0.3434         0.023811   
    213. D(O  37,C  35,C  31,H  36)     -0.3899         0.026931   
    214. D(O  37,C  35,C  31,C  29)    179.0697         0.026931   
    215. D(C  33,C  35,C  31,H  36)   -179.9430         0.026931   
    216. D(C  33,C  35,C  31,C  29)     -0.4835         0.026931   
    217. D(H  38,O  37,C  35,C  33)    179.7708         0.029615   
    218. D(H  38,O  37,C  35,C  31)      0.2080         0.029615   
    219. D(C  40,O  39,C  33,C  35)     75.6252         0.025906   
    220. D(C  40,O  39,C  33,C  30)   -106.3253         0.025906   
    221. D(H  43,C  40,O  39,C  33)    -61.7150         0.018105   
    222. D(H  42,C  40,O  39,C  33)    179.0993         0.018105   
    223. D(H  41,C  40,O  39,C  33)     60.2759         0.018105   
    224. D(H  46,C  44,C  26,O  27)     15.3006         0.010582   
    225. D(H  46,C  44,C  26,C  24)   -164.9871         0.010582   
    226. D(H  45,C  44,C  26,O  27)    133.4190         0.010582   
    227. D(H  45,C  44,C  26,C  24)    -46.8687         0.010582   
    228. D(C   4,C  44,C  26,O  27)   -106.5242         0.010582   
    229. D(C   4,C  44,C  26,C  24)     73.1881         0.010582   
    230. D(H  46,C  44,C   4,O   5)    132.9797         0.010603   
    231. D(H  46,C  44,C   4,C   2)    -47.1943         0.010603   
    232. D(H  45,C  44,C   4,O   5)     14.8875         0.010603   
    233. D(H  45,C  44,C   4,C   2)   -165.2866         0.010603   
    234. D(C  26,C  44,C   4,O   5)   -107.1922         0.010603   
    235. D(C  26,C  44,C   4,C   2)     72.6337         0.010603   
    236. D(O  48,N  49,C   8,H  12)   -168.6572         0.007769   
    237. D(O  48,N  49,C   8,C  11)    -53.0808         0.007769   
    238. D(O  48,N  49,C   8,C   6)     71.6394         0.007769   
    239. D(O  47,N  49,C   8,H  12)     11.5718         0.007769   
    240. D(O  47,N  49,C   8,C  11)    127.1482         0.007769   
    241. D(O  47,N  49,C   8,C   6)   -108.1316         0.007769   
    -----------------------------------------------------------------

Number of atoms                         .... 50
Number of degrees of freedom            .... 241

         *************************************************************
         *                GEOMETRY OPTIMIZATION CYCLE   1            *
         *************************************************************
---------------------------------
CARTESIAN COORDINATES (ANGSTROEM)
---------------------------------
  C      2.094609    1.052945    1.172051
  H      1.699795    2.065664    1.163882
  C      1.367375    0.066321    1.742537
  H      1.705354   -0.964856    1.759976
  C      0.056455    0.272122    2.371584
  O     -0.548347   -0.671317    2.854953
  C      3.379245    0.905213    0.543003
  C      4.043060    2.006387    0.042655
  C      4.023736   -0.440489    0.417525
  C      5.335326    1.923057   -0.478281
  H      3.560230    2.976998    0.094593
  C      5.430127   -0.445939   -0.070328
  H      3.929916   -1.046567    1.321975
  C      6.045413    0.699389   -0.498459
  H      5.830963    2.817872   -0.841002
  O      7.339994    0.641181   -0.919105
  H      7.638001    1.520313   -1.179858
  O      5.943869   -1.694860   -0.063797
  C      6.774263   -2.105009   -1.165772
  H      7.785611   -1.720091   -1.057997
  H      6.776080   -3.192070   -1.134678
  H      6.340717   -1.759255   -2.106033
  C     -3.005428    0.616605    1.086258
  H     -2.679485    0.232543    2.049908
  C     -2.277020    1.570142    0.485658
  H     -2.546111    1.977064   -0.485051
  C     -1.047080    2.146821    1.048968
  O     -0.424228    2.993623    0.430022
  C     -4.222322   -0.007771    0.561745
  C     -4.834293   -1.020142    1.303147
  C     -4.804389    0.366347   -0.659079
  C     -5.983136   -1.652192    0.842676
  H     -4.402546   -1.324935    2.251357
  C     -5.943244   -0.256384   -1.127253
  H     -4.374139    1.147073   -1.277445
  C     -6.543743   -1.281504   -0.374629
  H     -6.446239   -2.444650    1.423817
  O     -7.651105   -1.863377   -0.897759
  H     -7.975710   -2.550884   -0.303976
  O     -6.463882    0.100011   -2.346607
  C     -7.661580    0.879199   -2.247551
  H     -7.467540    1.808320   -1.703489
  H     -7.963486    1.109839   -3.267519
  H     -8.454208    0.317501   -1.749256
  C     -0.547768    1.674619    2.413690
  H     -1.364624    1.650939    3.135718
  H      0.192920    2.400374    2.751581
  O      2.538466   -2.193070   -0.217022
  O      3.325143   -0.952019   -1.792953
  N      3.218557   -1.278112   -0.629574

----------------------------
CARTESIAN COORDINATES (A.U.)
----------------------------
  NO LB      ZA    FRAG     MASS         X           Y           Z
   0 C     6.0000    0    12.011    3.958238    1.989778    2.214856
   1 H     1.0000    0     1.008    3.212148    3.903540    2.199418
   2 C     6.0000    0    12.011    2.583964    0.125328    3.292918
   3 H     1.0000    0     1.008    3.222651   -1.823313    3.325873
   4 C     6.0000    0    12.011    0.106685    0.514237    4.481644
   5 O     8.0000    0    15.999   -1.036226   -1.268606    5.395079
   6 C     6.0000    0    12.011    6.385848    1.710604    1.026127
   7 C     6.0000    0    12.011    7.640276    3.791521    0.080605
   8 C     6.0000    0    12.011    7.603759   -0.832404    0.789009
   9 C     6.0000    0    12.011   10.082306    3.634051   -0.903820
  10 H     1.0000    0     1.008    6.727859    5.625711    0.178755
  11 C     6.0000    0    12.011   10.261452   -0.842702   -0.132901
  12 H     1.0000    0     1.008    7.426466   -1.977724    2.498171
  13 C     6.0000    0    12.011   11.424175    1.321653   -0.941950
  14 H     1.0000    0     1.008   11.018924    5.325007   -1.589263
  15 O     8.0000    0    15.999   13.870579    1.211657   -1.736857
  16 H     1.0000    0     1.008   14.433729    2.872974   -2.229608
  17 O     8.0000    0    15.999   11.232284   -3.202822   -0.120558
  18 C     6.0000    0    12.011   12.801501   -3.977891   -2.202990
  19 H     1.0000    0     1.008   14.712673   -3.250501   -1.999324
  20 H     1.0000    0     1.008   12.804936   -6.032139   -2.144231
  21 H     1.0000    0     1.008   11.982218   -3.324511   -3.979826
  22 C     6.0000    0    12.011   -5.679435    1.165215    2.052731
  23 H     1.0000    0     1.008   -5.063493    0.439442    3.873765
  24 C     6.0000    0    12.011   -4.302944    2.967139    0.917761
  25 H     1.0000    0     1.008   -4.811453    3.736110   -0.916614
  26 C     6.0000    0    12.011   -1.978695    4.056904    1.982263
  27 O     8.0000    0    15.999   -0.801675    5.657128    0.812625
  28 C     6.0000    0    12.011   -7.979032   -0.014684    1.061545
  29 C     6.0000    0    12.011   -9.135490   -1.927789    2.462591
  30 C     6.0000    0    12.011   -9.078979    0.692296   -1.245479
  31 C     6.0000    0    12.011  -11.306489   -3.122191    1.592427
  32 H     1.0000    0     1.008   -8.319607   -2.503765    4.254449
  33 C     6.0000    0    12.011  -11.231104   -0.484495   -2.130199
  34 H     1.0000    0     1.008   -8.265925    2.167655   -2.414022
  35 C     6.0000    0    12.011  -12.365882   -2.421691   -0.707946
  36 H     1.0000    0     1.008  -12.181626   -4.619719    2.690624
  37 O     8.0000    0    15.999  -14.458492   -3.521272   -1.696518
  38 H     1.0000    0     1.008  -15.071907   -4.820472   -0.574431
  39 O     8.0000    0    15.999  -12.214968    0.188993   -4.434445
  40 C     6.0000    0    12.011  -14.478287    1.661445   -4.247255
  41 H     1.0000    0     1.008  -14.111606    3.417230   -3.219127
  42 H     1.0000    0     1.008  -15.048808    2.097292   -6.174717
  43 H     1.0000    0     1.008  -15.976137    0.599989   -3.305614
  44 C     6.0000    0    12.011   -1.035131    3.164572    4.561214
  45 H     1.0000    0     1.008   -2.578766    3.119823    5.925649
  46 H     1.0000    0     1.008    0.364565    4.536050    5.199734
  47 O     8.0000    0    15.999    4.797006   -4.144302   -0.410112
  48 O     8.0000    0    15.999    6.283610   -1.799055   -3.388190
  49 N     7.0000    0    14.007    6.082191   -2.415281   -1.189723

--------------------------------
INTERNAL COORDINATES (ANGSTROEM)
--------------------------------
 C      0   0   0     0.000000000000     0.00000000     0.00000000
 H      1   0   0     1.086988616791     0.00000000     0.00000000
 C      1   2   0     1.351943948809   119.19010973     0.00000000
 H      3   1   2     1.085292056514   122.18513667   178.72563481
 C      3   1   2     1.468524320043   123.96375767   359.66678032
 O      5   3   1     1.220454779545   120.24443911   179.24706216
 C      1   2   3     1.437990278944   114.63972521   179.63649617
 C      7   1   2     1.379703845029   120.42855124     2.94937755
 C      7   1   2     1.497339908420   120.89799131   182.91750911
 C      8   7   1     1.395804670432   122.21768040   174.77726852
 H      8   7   1     1.085315492261   118.84063201   357.42740179
 C      9   7   1     1.488612189258   115.93831588   188.51473031
 H      9   7   1     1.092776841112   113.08784095   317.62642896
 C     12   9   7     1.368812602100   121.60881162   353.92576736
 H     10   8   7     1.085318684541   119.88816772   181.41672444
 O     14  12   9     1.362450817086   119.20472198   179.17219223
 H     16  14  12     0.964194630195   109.76833730   180.57257192
 O     12   9   7     1.350473451000   111.17419642   175.97952678
 C     18  12   9     1.439488193248   118.63633770   139.66089482
 H     19  18  12     1.087475576092   111.08574678    79.76628396
 H     19  18  12     1.087507153927   105.30078616   199.35360557
 H     19  18  12     1.091604042959   109.87921983   317.76828545
 C      6   5   3     3.290025979304    81.63765107   228.66369085
 H     23   6   5     1.087365406616    33.01171674   229.01358659
 C     23   6   5     1.341838678557    96.51106694     5.08671145
 H     25  23   6     1.086403506283   122.11644320   153.28291335
 C     25  23   6     1.470588113252   124.14046382   334.25080533
 O     27  25  23     1.219881879289   120.32406609   178.56082958
 C     23   6   5     1.464851785043   130.24427228   156.64486580
 C     29  23   6     1.396095030815   118.88664641    33.99772184
 C     29  23   6     1.403274003342   122.85083865   214.03497252
 C     30  29  23     1.389734227743   121.07779491   180.60749819
 H     30  29  23     1.085544661117   119.54659732     0.13195809
 C     31  29  23     1.379845017757   121.14526172   179.24892850
 H     31  29  23     1.084908104773   121.54866139   359.89725868
 C     32  30  29     1.390510985988   120.13939040     0.00000000
 H     32  30  29     1.086359877143   120.45816274   179.47423955
 O     36  32  30     1.355909480363   123.54677252   179.06969704
 H     38  36  32     0.964682756010   110.07000442     0.20804395
 O     34  31  29     1.372919134104   119.81353869   182.20967361
 C     40  34  31     1.432279777371   113.38496318   253.67472150
 H     41  40  34     1.094038684041   110.37078430    60.27588567
 H     41  40  34     1.088429542023   106.40451434   179.09930246
 H     41  40  34     1.091815705363   111.02387933   298.28500450
 C      5   3   1     1.527696279569   119.57275738   359.42121314
 H     45   5   3     1.090476858790   107.13267225   194.71341400
 H     45   5   3     1.090645701802   110.53850690   312.80565619
 O     13   9   7     2.370467688577    77.36703017   111.03487843
 O     48  13   9     2.154675604288    88.96634813    10.23928714
 N     48  13   9     1.212382882906    61.74730065     7.65396954

---------------------------
INTERNAL COORDINATES (A.U.)
---------------------------
 C      0   0   0     0.000000000000     0.00000000     0.00000000
 H      1   0   0     2.054110796424     0.00000000     0.00000000
 C      1   2   0     2.554803811661   119.19010973     0.00000000
 H      3   1   2     2.050904762131   122.18513667   178.72563481
 C      3   1   2     2.775108785884   123.96375767   359.66678032
 O      5   3   1     2.306325292176   120.24443911   179.24706216
 C      1   2   3     2.717407810445   114.63972521   179.63649617
 C      7   1   2     2.607262413023   120.42855124     2.94937755
 C      7   1   2     2.829562356305   120.89799131   182.91750911
 C      8   7   1     2.637688563564   122.21768040   174.77726852
 H      8   7   1     2.050949049276   118.84063201   357.42740179
 C      9   7   1     2.813069357314   115.93831588   188.51473031
 H      9   7   1     2.065048955194   113.08784095   317.62642896
 C     12   9   7     2.586680946630   121.60881162   353.92576736
 H     10   8   7     2.050955081810   119.88816772   181.41672444
 O     14  12   9     2.574658915230   119.20472198   179.17219223
 H     16  14  12     1.822063790866   109.76833730   180.57257192
 O     12   9   7     2.552024973521   111.17419642   175.97952678
 C     18  12   9     2.720238458252   118.63633770   139.66089482
 H     19  18  12     2.055031016141   111.08574678    79.76628396
 H     19  18  12     2.055090689602   105.30078616   199.35360557
 H     19  18  12     2.062832687873   109.87921983   317.76828545
 C      6   5   3     6.217248074371    81.63765107   228.66369085
 H     23   6   5     2.054822826005    33.01171674   229.01358659
 C     23   6   5     2.535707618376    96.51106694     5.08671145
 H     25  23   6     2.053005097808   122.11644320   153.28291335
 C     25  23   6     2.779008789847   124.14046382   334.25080533
 O     27  25  23     2.305242667590   120.32406609   178.56082958
 C     23   6   5     2.768168700517   130.24427228   156.64486580
 C     29  23   6     2.638237265169   118.88664641    33.99772184
 C     29  23   6     2.651803557167   122.85083865   214.03497252
 C     30  29  23     2.626217089371   121.07779491   180.60749819
 H     30  29  23     2.051382115651   119.54659732     0.13195809
 C     31  29  23     2.607529190816   121.14526172   179.24892850
 H     31  29  23     2.050179198492   121.54866139   359.89725868
 C     32  30  29     2.627684949727   120.13939040     0.00000000
 H     32  30  29     2.052922650680   120.45816274   179.47423955
 O     36  32  30     2.562297580273   123.54677252   179.06969704
 H     38  36  32     1.822986214976   110.07000442     0.20804395
 O     34  31  29     2.594441167478   119.81353869   182.20967361
 C     40  34  31     2.706616526386   113.38496318   253.67472150
 H     41  40  34     2.067433492752   110.37078430    60.27588567
 H     41  40  34     2.056833750492   106.40451434   179.09930246
 H     41  40  34     2.063232671850   111.02387933   298.28500450
 C      5   3   1     2.886927584197   119.57275738   359.42121314
 H     45   5   3     2.060702618491   107.13267225   194.71341400
 H     45   5   3     2.061021685544   110.53850690   312.80565619
 O     13   9   7     4.479534740721    77.36703017   111.03487843
 O     48  13   9     4.071746799546    88.96634813    10.23928714
 N     48  13   9     2.291071618147    61.74730065     7.65396954

---------------------
BASIS SET INFORMATION
---------------------
There are 4 groups of distinct atoms

 Group   1 Type C   : 11s5p1d contracted to 4s3p1d pattern {6311/311/1}
 Group   2 Type H   : 5s contracted to 3s pattern {311}
 Group   3 Type O   : 11s5p1d contracted to 4s3p1d pattern {6311/311/1}
 Group   4 Type N   : 11s5p1d contracted to 4s3p1d pattern {6311/311/1}

Atom   0C    basis set group =>   1
Atom   1H    basis set group =>   2
Atom   2C    basis set group =>   1
Atom   3H    basis set group =>   2
Atom   4C    basis set group =>   1
Atom   5O    basis set group =>   3
Atom   6C    basis set group =>   1
Atom   7C    basis set group =>   1
Atom   8C    basis set group =>   1
Atom   9C    basis set group =>   1
Atom  10H    basis set group =>   2
Atom  11C    basis set group =>   1
Atom  12H    basis set group =>   2
Atom  13C    basis set group =>   1
Atom  14H    basis set group =>   2
Atom  15O    basis set group =>   3
Atom  16H    basis set group =>   2
Atom  17O    basis set group =>   3
Atom  18C    basis set group =>   1
Atom  19H    basis set group =>   2
Atom  20H    basis set group =>   2
Atom  21H    basis set group =>   2
Atom  22C    basis set group =>   1
Atom  23H    basis set group =>   2
Atom  24C    basis set group =>   1
Atom  25H    basis set group =>   2
Atom  26C    basis set group =>   1
Atom  27O    basis set group =>   3
Atom  28C    basis set group =>   1
Atom  29C    basis set group =>   1
Atom  30C    basis set group =>   1
Atom  31C    basis set group =>   1
Atom  32H    basis set group =>   2
Atom  33C    basis set group =>   1
Atom  34H    basis set group =>   2
Atom  35C    basis set group =>   1
Atom  36H    basis set group =>   2
Atom  37O    basis set group =>   3
Atom  38H    basis set group =>   2
Atom  39O    basis set group =>   3
Atom  40C    basis set group =>   1
Atom  41H    basis set group =>   2
Atom  42H    basis set group =>   2
Atom  43H    basis set group =>   2
Atom  44C    basis set group =>   1
Atom  45H    basis set group =>   2
Atom  46H    basis set group =>   2
Atom  47O    basis set group =>   3
Atom  48O    basis set group =>   3
Atom  49N    basis set group =>   4
---------------------------------
AUXILIARY/J BASIS SET INFORMATION
---------------------------------
There are 4 groups of distinct atoms

 Group   1 Type C   : 12s5p4d2f1g contracted to 6s4p3d1f1g pattern {711111/2111/211/2/1}
 Group   2 Type H   : 5s2p1d contracted to 3s1p1d pattern {311/2/1}
 Group   3 Type O   : 12s5p4d2f1g contracted to 6s4p3d1f1g pattern {711111/2111/211/2/1}
 Group   4 Type N   : 12s5p4d2f1g contracted to 6s4p3d1f1g pattern {711111/2111/211/2/1}

Atom   0C    basis set group =>   1
Atom   1H    basis set group =>   2
Atom   2C    basis set group =>   1
Atom   3H    basis set group =>   2
Atom   4C    basis set group =>   1
Atom   5O    basis set group =>   3
Atom   6C    basis set group =>   1
Atom   7C    basis set group =>   1
Atom   8C    basis set group =>   1
Atom   9C    basis set group =>   1
Atom  10H    basis set group =>   2
Atom  11C    basis set group =>   1
Atom  12H    basis set group =>   2
Atom  13C    basis set group =>   1
Atom  14H    basis set group =>   2
Atom  15O    basis set group =>   3
Atom  16H    basis set group =>   2
Atom  17O    basis set group =>   3
Atom  18C    basis set group =>   1
Atom  19H    basis set group =>   2
Atom  20H    basis set group =>   2
Atom  21H    basis set group =>   2
Atom  22C    basis set group =>   1
Atom  23H    basis set group =>   2
Atom  24C    basis set group =>   1
Atom  25H    basis set group =>   2
Atom  26C    basis set group =>   1
Atom  27O    basis set group =>   3
Atom  28C    basis set group =>   1
Atom  29C    basis set group =>   1
Atom  30C    basis set group =>   1
Atom  31C    basis set group =>   1
Atom  32H    basis set group =>   2
Atom  33C    basis set group =>   1
Atom  34H    basis set group =>   2
Atom  35C    basis set group =>   1
Atom  36H    basis set group =>   2
Atom  37O    basis set group =>   3
Atom  38H    basis set group =>   2
Atom  39O    basis set group =>   3
Atom  40C    basis set group =>   1
Atom  41H    basis set group =>   2
Atom  42H    basis set group =>   2
Atom  43H    basis set group =>   2
Atom  44C    basis set group =>   1
Atom  45H    basis set group =>   2
Atom  46H    basis set group =>   2
Atom  47O    basis set group =>   3
Atom  48O    basis set group =>   3
Atom  49N    basis set group =>   4
------------------------------------------------------------------------------
                           ORCA GTO INTEGRAL CALCULATION
                           -- RI-GTO INTEGRALS CHOSEN --
------------------------------------------------------------------------------
------------------------------------------------------------------------------
                   ___                                                        
                  /   \      - P O W E R E D   B Y -                         
                 /     \                                                     
                 |  |  |   _    _      __       _____    __    __             
                 |  |  |  | |  | |    /  \     |  _  \  |  |  /  |          
                  \  \/   | |  | |   /    \    | | | |  |  | /  /          
                 / \  \   | |__| |  /  /\  \   | |_| |  |  |/  /          
                |  |  |   |  __  | /  /__\  \  |    /   |      \           
                |  |  |   | |  | | |   __   |  |    \   |  |\   \          
                \     /   | |  | | |  |  |  |  | |\  \  |  | \   \       
                 \___/    |_|  |_| |__|  |__|  |_| \__\ |__|  \__/        
                                                                              
                      - O R C A' S   B I G   F R I E N D -                    
                                      &                                       
                       - I N T E G R A L  F E E D E R -                       
                                                                              
 v1 FN, 2020, v2 2021                                                         
------------------------------------------------------------------------------


Reading SHARK input file CURCUMIN-OPT-FREQ-Reag-1-wB97XM-V-6-311G-D-363.SHARKINP.tmp ... ok
----------------------
SHARK INTEGRAL PACKAGE
----------------------

Number of atoms                             ...     50
Number of basis functions                   ...    600
Number of shells                            ...    300
Maximum angular momentum                    ...      2
Integral batch strategy                     ... SHARK/LIBINT Hybrid
RI-J (if used) integral strategy            ... SPLIT-RIJ (Revised 2003 algorithm where possible)
Printlevel                                  ...      1
Contraction scheme used                     ... SEGMENTED contraction
Coulomb Range Separation                    ... NOT USED
Exchange Range Separation                   ... Long Range
   Mu parameter                             ...  0.300000
   Scaling (regular/separated)              ...  0.150000  0.850000
Finite Nucleus Model                        ... NOT USED
Auxiliary Coulomb fitting basis             ... AVAILABLE
   # of basis functions in Aux-J            ...   1690
   # of shells in Aux-J                     ...    550
   Maximum angular momentum in Aux-J        ...      4
Auxiliary J/K fitting basis                 ... NOT available
Auxiliary Correlation fitting basis         ... NOT available
Auxiliary 'external' fitting basis          ... NOT available
Integral threshold                          ...     2.500000e-11
Primitive cut-off                           ...     2.500000e-12
Primitive pair pre-selection threshold      ...     2.500000e-12

Calculating pre-screening integrals         ... done (  0.2 sec) Dimension = 300
Organizing shell pair data                  ... done (  0.6 sec)
Shell pair information
Total number of shell pairs                 ...     45150
Shell pairs after pre-screening             ...     22015
Total number of primitive shell pairs       ...    187045
Primitive shell pairs kept                  ...     53797
          la=0 lb=0:   7551 shell pairs
          la=1 lb=0:   8210 shell pairs
          la=1 lb=1:   2281 shell pairs
          la=2 lb=0:   2419 shell pairs
          la=2 lb=1:   1340 shell pairs
          la=2 lb=2:    214 shell pairs

Calculating one electron integrals          ... done (  0.2 sec)
Calculating RI/J V-Matrix + Cholesky decomp.... done (  1.3 sec)
Calculating Nuclear repulsion               ... done (  0.0 sec) ENN=   2718.475427369122 Eh

SHARK setup successfully completed in   3.7 seconds

Maximum memory used throughout the entire GTOINT-calculation: 122.0 MB
-------------------------------------------------------------------------------
                                 ORCA SCF
-------------------------------------------------------------------------------

------------
SCF SETTINGS
------------
Hamiltonian:
 Density Functional     Method          .... DFT(GTOs)
  Functional kind                       .... Exchange-Correlation
  Functional name                       .... wB97M-V exchange-correlation functional
  Functional family                     .... Hybrid MGGA
  Functional refs                              
    [ 0] N. Mardirossian and M. Head-Gordon, J. Chem. Phys. 144, 214110 (2016)
  Fraction of HF Exchange (short range) .... 0.1500
  Fraction of HF Exchange (long range)  .... 1.0000
  Range separation parameter mu         .... 0.3000
  Functional external parameters         .... 0
   Density functional embedding theory  .... OFF
 Long-range corrected/Screened/Range-Separated Hybrid DFT is turned on
   Amount of maximum screened exact exchange              ....  0.850000
   Range separation parameter mu (erf(mu*r12)/r12)        ....  0.300000
   NL short-range parameter             ....  6.000000
   NL long-range parameter              ....  0.010000
 RI-approximation to the Coulomb term is turned on
   Number of AuxJ basis functions       .... 1690
   RIJ-ON(X) (HFX calculated with O(N)) .... on


General Settings:
 Integral files         IntName         .... CURCUMIN-OPT-FREQ-Reag-1-wB97XM-V-6-311G-D-363
 Hartree-Fock type      HFTyp           .... UHF
 Total Charge           Charge          ....    0
 Multiplicity           Mult            ....    2
 Number of Electrons    NEL             ....  217
 Basis Dimension        Dim             ....  600
 Nuclear Repulsion      ENuc            ....   2718.4754273691 Eh

Convergence Acceleration:
 DIIS                   CNVDIIS         .... on
   Start iteration      DIISMaxIt       ....    12
   Startup error        DIISStart       ....  0.200000
   # of expansion vecs  DIISMaxEq       ....     5
   Bias factor          DIISBfac        ....   1.050
   Max. coefficient     DIISMaxC        ....  10.000
 Trust-Rad. Augm. Hess. CNVTRAH         .... off
 SOSCF                  CNVSOSCF        .... off
 Level Shifting         CNVShift        .... on
   Level shift para.    LevelShift      ....    0.2500
   Turn off err/grad.   ShiftErr        ....    0.0010
 Zerner damping         CNVZerner       .... off
 Static damping         CNVDamp         .... on
   Fraction old density DampFac         ....    0.7000
   Max. Damping (<1)    DampMax         ....    0.9800
   Min. Damping (>=0)   DampMin         ....    0.0000
   Turn off err/grad.   DampErr         ....    0.1000
 Fernandez-Rico         CNVRico         .... off

SCF Procedure:
 Maximum # iterations   MaxIter         ....   125
 SCF integral mode      SCFMode         .... Direct
   Integral package                     .... SHARK and LIBINT hybrid scheme
 Reset frequency        DirectResetFreq ....    20
 Integral Threshold     Thresh          ....  2.500e-11 Eh
 Primitive CutOff       TCut            ....  2.500e-12 Eh

Convergence Tolerance:
 Convergence Check Mode ConvCheckMode   .... Total+1el-Energy
 Convergence forced     ConvForced      .... 0
 Energy Change          TolE            ....  1.000e-08 Eh
 1-El. energy change                    ....  1.000e-05 Eh
 DIIS Error             TolErr          ....  5.000e-07


Diagonalization of the overlap matrix:
Smallest eigenvalue                        ... 1.703e-04
Time for diagonalization                   ...    0.096 sec
Threshold for overlap eigenvalues          ... 1.000e-08
Number of eigenvalues below threshold      ... 0
Time for construction of square roots      ...    0.126 sec
Total time needed                          ...    0.223 sec

Time for model grid setup =    2.111 sec

------------------------------
INITIAL GUESS: MODEL POTENTIAL
------------------------------
Loading Hartree-Fock densities                     ... done
Calculating cut-offs                               ... done
Initializing the effective Hamiltonian             ... done
Setting up the integral package (SHARK)            ... done
Starting the Coulomb interaction                   ... done (   2.8 sec)
Reading the grid                                   ... done
Mapping shells                                     ... done
Starting the XC term evaluation                    ... done (   1.2 sec)
  promolecular density results
     # of electrons  =    216.995381306
     EX              =   -185.094620297
     EC              =     -7.325852241
     EX+EC           =   -192.420472538
Transforming the Hamiltonian                       ... done (   0.0 sec)
Diagonalizing the Hamiltonian                      ... done (   0.1 sec)
Back transforming the eigenvectors                 ... done (   0.0 sec)
Now organizing SCF variables                       ... done
                      ------------------
                      INITIAL GUESS DONE (   6.4 sec)
                      ------------------
-------------------
DFT GRID GENERATION
-------------------

General Integration Accuracy     IntAcc      ... 4.388
Radial Grid Type                 RadialGrid  ... OptM3 with GC (2021)
Angular Grid (max. ang.)         AngularGrid ... 4 (Lebedev-302)
Angular grid pruning method      GridPruning ... 4 (adaptive)
Weight generation scheme         WeightScheme... Becke
Basis function cutoff            BFCut       ... 1.0000e-11
Integration weight cutoff        WCut        ... 1.0000e-14
Angular grids for H and He will be reduced by one unit
Partially contracted basis set               ... off
Rotationally invariant grid construction     ... off

Total number of grid points                  ...   243672
Total number of batches                      ...     3833
Average number of points per batch           ...       63
Average number of grid points per atom       ...     4873

------------------
NL GRID GENERATION
------------------

General Integration Accuracy     IntAcc      ... 4.004
Radial Grid Type                 RadialGrid  ... OptM3 with GC (2021)
Angular Grid (max. ang.)         AngularGrid ... 2 (Lebedev-110)
Angular grid pruning method      GridPruning ... 4 (adaptive)
Weight generation scheme         WeightScheme... Becke
Basis function cutoff            BFCut       ... 1.0000e-10
Integration weight cutoff        WCut        ... 1.0000e-14
Angular grids for H and He will be reduced by one unit
Partially contracted basis set               ... off
Rotationally invariant grid construction     ... off

Total number of grid points                  ...    78392
Total number of batches                      ...     1248
Average number of points per batch           ...       62
Average number of grid points per atom       ...     1568
Time for grid setup =    8.541 sec


--------------------
CPCM SOLVATION MODEL
--------------------
CPCM parameters:
  Epsilon                                         ...       7.0000
  Refrac                                          ...       1.8534
  Rsolv                                           ...       1.3000
  Surface type                                    ... GAUSSIAN VDW
  Epsilon function type                           ...         CPCM
Radii:
 Radius for C  used is    3.8550 Bohr (=   2.0400 Ang.)
 Radius for H  used is    2.4944 Bohr (=   1.3200 Ang.)
 Radius for O  used is    3.4469 Bohr (=   1.8240 Ang.)
 Radius for N  used is    3.5149 Bohr (=   1.8600 Ang.)
Calculating surface                               ...        done! (  0.0s)
GEPOL surface points                              ...         2633
GEPOL Volume                                      ...    3179.6547
GEPOL Surface-area                                ...    1616.6607
Calculating surface distance matrix               ...        done! (  0.1s)
Performing Cholesky decomposition & store         ...        done! (  0.8s)
Overall time for CPCM initialization              ...                 0.8s
--------------
SCF ITERATIONS
--------------
ITER       Energy         Delta-E        Max-DP      RMS-DP      [F,P]     Damp
               ***  Starting incremental Fock matrix formation  ***
  0  -1467.7605513271   0.000000000000 0.05597198  0.00050576  0.1497137 0.7000
  1  -1468.0604213389  -0.299870011820 0.03966123  0.00037225  0.0733469 0.7000
                               ***Turning on DIIS***
  2  -1468.2055126044  -0.145091265463 0.06064572  0.00069851  0.0292146 0.0000
  3  -1468.4597630913  -0.254250486895 0.03098987  0.00025035  0.0357013 0.0000
  4  -1468.4918541775  -0.032091086192 0.00597360  0.00006655  0.0070452 0.0000
  5  -1468.4947840381  -0.002929860670 0.00256861  0.00004027  0.0035321 0.0000
  6  -1468.4960682198  -0.001284181637 0.00287685  0.00003768  0.0029771 0.0000
  7  -1468.4970435677  -0.000975347981 0.00277965  0.00003638  0.0023627 0.0000
  8  -1468.4977338018  -0.000690234101 0.00226450  0.00002623  0.0016150 0.0000
  9  -1468.4980812995  -0.000347497625 0.00178964  0.00001888  0.0010753 0.0000
 10  -1468.4982463769  -0.000165077416 0.00218991  0.00002282  0.0007429 0.0000
 11  -1468.4983680741  -0.000121697218 0.00075119  0.00000842  0.0003491 0.0000
 12  -1468.4983927734  -0.000024699280 0.00067824  0.00000720  0.0003040 0.0000
 13  -1468.4984076782  -0.000014904861 0.00034364  0.00000386  0.0001994 0.0000
 14  -1468.4984137979  -0.000006119649 0.00035244  0.00000411  0.0001484 0.0000
 15  -1468.4984185078  -0.000004709884 0.00022604  0.00000261  0.0001234 0.0000
 16  -1468.4984203944  -0.000001886616 0.00017257  0.00000196  0.0000991 0.0000
 17  -1468.4984214605  -0.000001066148 0.00017181  0.00000201  0.0000805 0.0000
 18  -1468.4984220087  -0.000000548131 0.00008076  0.00000069  0.0000357 0.0000
 19  -1468.4984221528  -0.000000144147 0.00006168  0.00000051  0.0000303 0.0000
               *** Restarting incremental Fock matrix formation ***
                                   *** Resetting DIIS ***
 20  -1468.4984221724  -0.000000019576 0.00002223  0.00000025  0.0000194 0.0000
 21  -1468.4984222238  -0.000000051442 0.00001348  0.00000012  0.0000306 0.0000
 22  -1468.4984222358  -0.000000011970 0.00002852  0.00000027  0.0000101 0.0000
 23  -1468.4984222609  -0.000000025144 0.00001245  0.00000014  0.0000058 0.0000
 24  -1468.4984222827  -0.000000021749 0.00000468  0.00000006  0.0000029 0.0000
 25  -1468.4984222892  -0.000000006542 0.00000319  0.00000003  0.0000012 0.0000
                            ***DIIS convergence achieved***

               *****************************************************
               *                     SUCCESS                       *
               *           SCF CONVERGED AFTER  26 CYCLES          *
               *****************************************************


----------------
TOTAL SCF ENERGY
----------------

Total Energy       :        -1468.49842228 Eh          -39959.87359 eV

Components:
Nuclear Repulsion  :         2718.47542737 Eh           73973.47712 eV
Electronic Energy  :        -4186.97384965 Eh         -113933.35071 eV
One Electron Energy:        -7408.11360415 Eh         -201585.01955 eV
Two Electron Energy:         3221.13975450 Eh           87651.66884 eV
CPCM Dielectric    :           -0.04084781 Eh              -1.11153 eV

Virial components:
Potential Energy   :        -2933.77584389 Eh          -79832.09930 eV
Kinetic Energy     :         1465.27742161 Eh           39872.22571 eV
Virial Ratio       :            2.00219822


DFT components:
N(Alpha)           :      108.999852471315 electrons
N(Beta)            :      107.999845939864 electrons
N(Total)           :      216.999698411179 electrons
NL Energy, E(C,NL) :        0.816394139896 Eh       
E(XC)              :     -139.571630461895 Eh       
DFET-embed. en.    :        0.000000000000 Eh       
CPCM Solvation Model Properties:
Surface-charge          :           -0.02689990
Charge-correction       :            0.00000985 Eh               0.00027 eV
Free-energy (cav+disp)  :  This term is not implemented in the current solvation scheme

---------------
SCF CONVERGENCE
---------------

  Last Energy change         ...    1.2827e-08  Tolerance :   1.0000e-08
  Last MAX-Density change    ...    2.1596e-06  Tolerance :   1.0000e-07
  Last RMS-Density change    ...    2.3779e-08  Tolerance :   5.0000e-09
  Last DIIS Error            ...    8.4889e-07  Tolerance :   5.0000e-07

             **** THE GBW FILE WAS UPDATED (CURCUMIN-OPT-FREQ-Reag-1-wB97XM-V-6-311G-D-363.gbw) ****
             **** DENSITY CURCUMIN-OPT-FREQ-Reag-1-wB97XM-V-6-311G-D-363.scfp WAS UPDATED ****
             **** ENERGY FILE WAS UPDATED (CURCUMIN-OPT-FREQ-Reag-1-wB97XM-V-6-311G-D-363.en.tmp) ****
----------------------
UHF SPIN CONTAMINATION
----------------------

Warning: in a DFT calculation there is little theoretical justification to 
         calculate <S**2> as in Hartree-Fock theory. We will do it anyways
         but you should keep in mind that the values have only limited relevance

Expectation value of <S**2>     :     0.818788
Ideal value S*(S+1) for S=0.5   :     0.750000
Deviation                       :     0.068788

             **** THE GBW FILE WAS UPDATED (CURCUMIN-OPT-FREQ-Reag-1-wB97XM-V-6-311G-D-363.gbw) ****
             **** DENSITY CURCUMIN-OPT-FREQ-Reag-1-wB97XM-V-6-311G-D-363.scfp WAS UPDATED ****
----------------
ORBITAL ENERGIES
----------------
                 SPIN UP ORBITALS
  NO   OCC          E(Eh)            E(eV) 
   0   1.0000     -19.374879      -527.2172 
   1   1.0000     -19.374503      -527.2070 
   2   1.0000     -19.372490      -527.1523 
   3   1.0000     -19.366688      -526.9944 
   4   1.0000     -19.366113      -526.9787 
   5   1.0000     -19.346919      -526.4564 
   6   1.0000     -19.324250      -525.8396 
   7   1.0000     -19.323234      -525.8119 
   8   1.0000     -14.750448      -401.3801 
   9   1.0000     -10.445333      -284.2320 
  10   1.0000     -10.445034      -284.2238 
  11   1.0000     -10.428735      -283.7803 
  12   1.0000     -10.424612      -283.6681 
  13   1.0000     -10.424545      -283.6663 
  14   1.0000     -10.421629      -283.5869 
  15   1.0000     -10.405596      -283.1507 
  16   1.0000     -10.388533      -282.6864 
  17   1.0000     -10.383765      -282.5566 
  18   1.0000     -10.380770      -282.4751 
  19   1.0000     -10.375115      -282.3212 
  20   1.0000     -10.374643      -282.3084 
  21   1.0000     -10.373411      -282.2749 
  22   1.0000     -10.369949      -282.1807 
  23   1.0000     -10.362400      -281.9752 
  24   1.0000     -10.358051      -281.8569 
  25   1.0000     -10.355799      -281.7956 
  26   1.0000     -10.355657      -281.7917 
  27   1.0000     -10.354610      -281.7633 
  28   1.0000     -10.353510      -281.7333 
  29   1.0000     -10.349569      -281.6261 
  30   1.0000      -1.380899       -37.5762 
  31   1.0000      -1.219719       -33.1902 
  32   1.0000      -1.209105       -32.9014 
  33   1.0000      -1.204451       -32.7748 
  34   1.0000      -1.196870       -32.5685 
  35   1.0000      -1.182310       -32.1723 
  36   1.0000      -1.180302       -32.1177 
  37   1.0000      -1.177847       -32.0508 
  38   1.0000      -1.019640       -27.7458 
  39   1.0000      -0.998240       -27.1635 
  40   1.0000      -0.949379       -25.8339 
  41   1.0000      -0.938899       -25.5487 
  42   1.0000      -0.932552       -25.3760 
  43   1.0000      -0.903522       -24.5861 
  44   1.0000      -0.885402       -24.0930 
  45   1.0000      -0.880566       -23.9614 
  46   1.0000      -0.857041       -23.3213 
  47   1.0000      -0.838867       -22.8267 
  48   1.0000      -0.818049       -22.2603 
  49   1.0000      -0.809308       -22.0224 
  50   1.0000      -0.780282       -21.2325 
  51   1.0000      -0.765640       -20.8341 
  52   1.0000      -0.748465       -20.3668 
  53   1.0000      -0.740837       -20.1592 
  54   1.0000      -0.715827       -19.4786 
  55   1.0000      -0.702501       -19.1160 
  56   1.0000      -0.691518       -18.8172 
  57   1.0000      -0.679799       -18.4983 
  58   1.0000      -0.668778       -18.1984 
  59   1.0000      -0.664694       -18.0873 
  60   1.0000      -0.660681       -17.9780 
  61   1.0000      -0.643025       -17.4976 
  62   1.0000      -0.640355       -17.4250 
  63   1.0000      -0.632410       -17.2088 
  64   1.0000      -0.626137       -17.0380 
  65   1.0000      -0.623555       -16.9678 
  66   1.0000      -0.610006       -16.5991 
  67   1.0000      -0.602078       -16.3834 
  68   1.0000      -0.596834       -16.2407 
  69   1.0000      -0.586315       -15.9545 
  70   1.0000      -0.582104       -15.8399 
  71   1.0000      -0.575742       -15.6667 
  72   1.0000      -0.566848       -15.4247 
  73   1.0000      -0.564426       -15.3588 
  74   1.0000      -0.558115       -15.1871 
  75   1.0000      -0.556020       -15.1301 
  76   1.0000      -0.545265       -14.8374 
  77   1.0000      -0.542712       -14.7680 
  78   1.0000      -0.537866       -14.6361 
  79   1.0000      -0.533171       -14.5083 
  80   1.0000      -0.526577       -14.3289 
  81   1.0000      -0.522780       -14.2256 
  82   1.0000      -0.519915       -14.1476 
  83   1.0000      -0.509391       -13.8612 
  84   1.0000      -0.504377       -13.7248 
  85   1.0000      -0.499276       -13.5860 
  86   1.0000      -0.488539       -13.2938 
  87   1.0000      -0.484015       -13.1707 
  88   1.0000      -0.479656       -13.0521 
  89   1.0000      -0.478027       -13.0078 
  90   1.0000      -0.472486       -12.8570 
  91   1.0000      -0.470450       -12.8016 
  92   1.0000      -0.467338       -12.7169 
  93   1.0000      -0.464912       -12.6509 
  94   1.0000      -0.457364       -12.4455 
  95   1.0000      -0.442574       -12.0430 
  96   1.0000      -0.425484       -11.5780 
  97   1.0000      -0.423906       -11.5351 
  98   1.0000      -0.418674       -11.3927 
  99   1.0000      -0.416884       -11.3440 
 100   1.0000      -0.398894       -10.8545 
 101   1.0000      -0.390987       -10.6393 
 102   1.0000      -0.384826       -10.4717 
 103   1.0000      -0.374176       -10.1818 
 104   1.0000      -0.356585        -9.7032 
 105   1.0000      -0.346046        -9.4164 
 106   1.0000      -0.325776        -8.8648 
 107   1.0000      -0.303718        -8.2646 
 108   1.0000      -0.276196        -7.5157 
 109   0.0000      -0.004525        -0.1231 
 110   0.0000       0.010201         0.2776 
 111   0.0000       0.023115         0.6290 
 112   0.0000       0.066098         1.7986 
 113   0.0000       0.084992         2.3127 
 114   0.0000       0.097374         2.6497 
 115   0.0000       0.108127         2.9423 
 116   0.0000       0.112269         3.0550 
 117   0.0000       0.124860         3.3976 
 118   0.0000       0.130124         3.5409 
 119   0.0000       0.132452         3.6042 
 120   0.0000       0.136473         3.7136 
 121   0.0000       0.140311         3.8181 
 122   0.0000       0.146377         3.9831 
 123   0.0000       0.149260         4.0616 
 124   0.0000       0.152123         4.1395 
 125   0.0000       0.155335         4.2269 
 126   0.0000       0.164717         4.4822 
 127   0.0000       0.169230         4.6050 
 128   0.0000       0.179415         4.8821 
 129   0.0000       0.184791         5.0284 
 130   0.0000       0.186269         5.0686 
 131   0.0000       0.190030         5.1710 
 132   0.0000       0.191820         5.2197 
 133   0.0000       0.195301         5.3144 
 134   0.0000       0.209367         5.6972 
 135   0.0000       0.212540         5.7835 
 136   0.0000       0.217771         5.9259 
 137   0.0000       0.231352         6.2954 
 138   0.0000       0.235026         6.3954 
 139   0.0000       0.241927         6.5832 
 140   0.0000       0.262254         7.1363 
 141   0.0000       0.264692         7.2026 
 142   0.0000       0.270269         7.3544 
 143   0.0000       0.278773         7.5858 
 144   0.0000       0.291709         7.9378 
 145   0.0000       0.304165         8.2768 
 146   0.0000       0.305848         8.3225 
 147   0.0000       0.312193         8.4952 
 148   0.0000       0.315302         8.5798 
 149   0.0000       0.328935         8.9508 
 150   0.0000       0.338286         9.2052 
 151   0.0000       0.347219         9.4483 
 152   0.0000       0.353093         9.6081 
 153   0.0000       0.356416         9.6986 
 154   0.0000       0.365467         9.9449 
 155   0.0000       0.367920        10.0116 
 156   0.0000       0.380378        10.3506 
 157   0.0000       0.387793        10.5524 
 158   0.0000       0.393015        10.6945 
 159   0.0000       0.397949        10.8287 
 160   0.0000       0.403550        10.9811 
 161   0.0000       0.408670        11.1205 
 162   0.0000       0.415432        11.3045 
 163   0.0000       0.422758        11.5038 
 164   0.0000       0.428849        11.6696 
 165   0.0000       0.436220        11.8702 
 166   0.0000       0.440707        11.9922 
 167   0.0000       0.441930        12.0255 
 168   0.0000       0.446228        12.1425 
 169   0.0000       0.447551        12.1785 
 170   0.0000       0.454022        12.3546 
 171   0.0000       0.456370        12.4184 
 172   0.0000       0.458984        12.4896 
 173   0.0000       0.464634        12.6433 
 174   0.0000       0.467766        12.7286 
 175   0.0000       0.472293        12.8518 
 176   0.0000       0.478326        13.0159 
 177   0.0000       0.482221        13.1219 
 178   0.0000       0.485563        13.2128 
 179   0.0000       0.490426        13.3452 
 180   0.0000       0.493067        13.4170 
 181   0.0000       0.501196        13.6382 
 182   0.0000       0.507200        13.8016 
 183   0.0000       0.511804        13.9269 
 184   0.0000       0.517631        14.0854 
 185   0.0000       0.521071        14.1791 
 186   0.0000       0.522174        14.2091 
 187   0.0000       0.529835        14.4176 
 188   0.0000       0.532435        14.4883 
 189   0.0000       0.533752        14.5241 
 190   0.0000       0.538807        14.6617 
 191   0.0000       0.542512        14.7625 
 192   0.0000       0.548348        14.9213 
 193   0.0000       0.549990        14.9660 
 194   0.0000       0.553818        15.0702 
 195   0.0000       0.560041        15.2395 
 196   0.0000       0.570336        15.5196 
 197   0.0000       0.572196        15.5703 
 198   0.0000       0.575859        15.6699 
 199   0.0000       0.581228        15.8160 
 200   0.0000       0.590810        16.0767 
 201   0.0000       0.598058        16.2740 
 202   0.0000       0.603745        16.4287 
 203   0.0000       0.608511        16.5584 
 204   0.0000       0.613035        16.6815 
 205   0.0000       0.621683        16.9169 
 206   0.0000       0.626265        17.0415 
 207   0.0000       0.631916        17.1953 
 208   0.0000       0.635180        17.2841 
 209   0.0000       0.642026        17.4704 
 210   0.0000       0.645526        17.5656 
 211   0.0000       0.650094        17.6899 
 212   0.0000       0.654645        17.8138 
 213   0.0000       0.661144        17.9906 
 214   0.0000       0.664872        18.0921 
 215   0.0000       0.665999        18.1227 
 216   0.0000       0.670839        18.2544 
 217   0.0000       0.672618        18.3029 
 218   0.0000       0.684834        18.6353 
 219   0.0000       0.687526        18.7085 
 220   0.0000       0.690053        18.7773 
 221   0.0000       0.693547        18.8724 
 222   0.0000       0.696152        18.9433 
 223   0.0000       0.700378        19.0582 
 224   0.0000       0.704172        19.1615 
 225   0.0000       0.710487        19.3333 
 226   0.0000       0.712629        19.3916 
 227   0.0000       0.719311        19.5735 
 228   0.0000       0.720193        19.5974 
 229   0.0000       0.721487        19.6327 
 230   0.0000       0.726874        19.7792 
 231   0.0000       0.734578        19.9889 
 232   0.0000       0.744268        20.2526 
 233   0.0000       0.750113        20.4116 
 234   0.0000       0.753276        20.4977 
 235   0.0000       0.759236        20.6598 
 236   0.0000       0.761887        20.7320 
 237   0.0000       0.774504        21.0753 
 238   0.0000       0.778933        21.1959 
 239   0.0000       0.784146        21.3377 
 240   0.0000       0.792415        21.5627 
[...]
 52:    602.20   0.002163   10.93  0.001121  ( 0.020018 -0.022519 -0.014595)
 53:    607.01   0.010763   54.39  0.005533  (-0.069082 -0.015835 -0.022589)
 54:    619.24   0.001022    5.16  0.000515  (-0.010689  0.005780 -0.019161)
 55:    632.95   0.003617   18.28  0.001783  ( 0.012254 -0.039128  0.010098)
 56:    662.13   0.002006   10.14  0.000945  ( 0.024904 -0.018029  0.000127)
 57:    711.67   0.001740    8.79  0.000763  (-0.015719  0.021874 -0.006113)
 58:    723.72   0.002314   11.69  0.000998  (-0.005860  0.005317  0.030581)
 59:    750.38   0.000790    3.99  0.000328  (-0.004728 -0.004538 -0.016894)
 60:    756.60   0.002852   14.41  0.001176  (-0.022111 -0.007326 -0.025174)
 61:    769.63   0.001161    5.87  0.000471  (-0.004314  0.002277 -0.021140)
 62:    773.70   0.013816   69.82  0.005573  ( 0.031568  0.016221  0.065673)
 63:    783.51   0.006169   31.18  0.002457  ( 0.041783  0.024518  0.010500)
 64:    820.45   0.005335   26.96  0.002029  (-0.039234 -0.017917 -0.012994)
 65:    828.03   0.013336   67.40  0.005026  ( 0.027120 -0.054801 -0.035880)
 66:    846.98   0.009133   46.15  0.003365  (-0.055078 -0.009392  0.015595)
 67:    857.33   0.003761   19.01  0.001369  (-0.013009 -0.002070  0.034575)
 68:    879.31   0.002340   11.83  0.000831  ( 0.012501  0.025761  0.003261)
 69:    881.65   0.002507   12.67  0.000887  ( 0.002725  0.000483  0.029660)
 70:    886.98   0.002065   10.44  0.000726  (-0.004187 -0.026468  0.002902)
 71:    919.75   0.003322   16.79  0.001127  ( 0.008163 -0.019485 -0.026095)
 72:    930.16   0.006732   34.02  0.002258  (-0.023702  0.006227  0.040717)
 73:    932.61   0.001419    7.17  0.000475  (-0.020046 -0.002471  0.008187)
 74:    944.82   0.001801    9.10  0.000595  (-0.015677 -0.005105  0.017971)
 75:    957.42   0.000368    1.86  0.000120  ( 0.005731 -0.006809 -0.006383)
 76:    966.99   0.001263    6.38  0.000408  ( 0.008191  0.015081  0.010633)
 77:    991.19   0.027066  136.78  0.008521  ( 0.084917  0.011820 -0.034216)
 78:   1019.38   0.017479   88.33  0.005351  (-0.047680 -0.009367 -0.054680)
 79:   1029.68   0.018187   91.91  0.005512  ( 0.053118 -0.040056 -0.032954)
 80:   1046.34   0.032793  165.72  0.009780  (-0.072472  0.033006  0.058641)
 81:   1059.72   0.023727  119.91  0.006987  (-0.074575  0.033328 -0.017747)
 82:   1097.87   0.055265  279.29  0.015709  ( 0.118307  0.026261 -0.031977)
 83:   1117.76   0.047802  241.57  0.013346  ( 0.095211 -0.061863 -0.021297)
 84:   1133.41   0.027395  138.44  0.007543  ( 0.048153 -0.032433 -0.064591)
 85:   1145.27   0.038758  195.87  0.010561  (-0.047839 -0.090791  0.005421)
 86:   1175.93   0.000559    2.83  0.000148  ( 0.007788 -0.007162  0.006036)
 87:   1177.70   0.003000   15.16  0.000795  (-0.023523 -0.011552 -0.010402)
 88:   1189.28   0.006845   34.59  0.001796  (-0.019984 -0.036838 -0.006292)
 89:   1205.19   0.005462   27.60  0.001414  ( 0.012320 -0.004677  0.035225)
 90:   1206.41   0.006995   35.35  0.001809  ( 0.013533 -0.033420 -0.022570)
 91:   1219.71   0.148597  750.95  0.038019  ( 0.189030  0.047215 -0.007545)
 92:   1225.67   0.037737  190.71  0.009608  ( 0.096529  0.008985 -0.014479)
 93:   1240.25   0.107009  540.78  0.026925  ( 0.159150 -0.039337  0.006988)
 94:   1264.42   0.002950   14.91  0.000728  (-0.016759 -0.016149  0.013658)
 95:   1269.97   0.006903   34.89  0.001696  (-0.012705 -0.018847  0.034346)
 96:   1273.89   0.009475   47.88  0.002321  (-0.034767  0.008899 -0.032142)
 97:   1275.45   0.027401  138.47  0.006704  ( 0.048513 -0.054395 -0.037305)
 98:   1290.32   0.021076  106.51  0.005097  ( 0.052373 -0.011365  0.047170)
 99:   1296.74   0.009518   48.10  0.002290  (-0.021455 -0.038126 -0.019403)
100:   1301.76   0.106682  539.12  0.025574  ( 0.155074 -0.001492  0.039037)
101:   1313.89   0.075906  383.60  0.018028  (-0.110843  0.069113  0.031074)
102:   1315.04   0.046213  233.54  0.010967  (-0.061082  0.083615  0.015624)
103:   1324.99   0.061244  309.50  0.014424  (-0.070327 -0.050164 -0.083439)
104:   1343.72   0.001080    5.46  0.000251  (-0.011833 -0.002434  0.010245)
105:   1350.94   0.032524  164.36  0.007513  (-0.075331  0.023114  0.036109)
106:   1363.94   0.033212  167.84  0.007599  ( 0.077846 -0.014708 -0.036365)
107:   1372.00   0.010279   51.94  0.002338  ( 0.037400  0.030026  0.006134)
108:   1386.16   0.039641  200.33  0.008924  ( 0.080090  0.024118  0.043911)
109:   1395.66   0.004434   22.41  0.000991  (-0.021270 -0.019896  0.011968)
110:   1434.33   0.022946  115.96  0.004992  ( 0.020942 -0.065130 -0.017657)
111:   1458.96   0.031384  158.60  0.006713  ( 0.027459  0.059149  0.049602)
112:   1468.45   0.000891    4.50  0.000189  ( 0.006818 -0.002532  0.011686)
113:   1481.92   0.003724   18.82  0.000784  (-0.010136 -0.018252 -0.018664)
114:   1484.11   0.002670   13.49  0.000561  ( 0.013335  0.018830 -0.005397)
115:   1486.34   0.004783   24.17  0.001004  (-0.003709 -0.014420 -0.027975)
116:   1491.79   0.003564   18.01  0.000745  ( 0.017986 -0.019698 -0.005829)
117:   1496.90   0.010013   50.60  0.002087  ( 0.023540 -0.039023  0.003236)
118:   1497.14   0.006003   30.34  0.001251  (-0.028364  0.003972 -0.020759)
119:   1501.14   0.000925    4.67  0.000192  (-0.000747 -0.002505 -0.013618)
120:   1563.18   0.071978  363.75  0.014369  ( 0.100761  0.033784  0.055453)
121:   1566.90   0.011417   57.70  0.002274  (-0.040814 -0.007061  0.023627)
122:   1636.23   0.183347  926.56  0.034968  (-0.169053  0.047344  0.064403)
123:   1661.58   0.049660  250.96  0.009327  (-0.025778 -0.066533  0.065081)
124:   1664.56   0.001802    9.10  0.000338  (-0.002693 -0.016835  0.006862)
125:   1673.96   0.093029  470.13  0.017343  (-0.081555 -0.044162  0.093495)
126:   1679.39   0.065191  329.45  0.012114  (-0.083419 -0.071799 -0.000316)
127:   1714.03   0.018591   93.95  0.003385  (-0.046949 -0.015534 -0.030647)
128:   1731.06   0.298890  1510.47  0.053882  (-0.157182 -0.150073  0.081569)
129:   1755.16   0.005794   29.28  0.001030  (-0.016284 -0.027545 -0.002519)
130:   3043.90   0.013842   69.95  0.001419  (-0.026458  0.026694 -0.002540)
131:   3070.85   0.013742   69.45  0.001396  ( 0.019866 -0.019887 -0.024623)
132:   3101.04   0.000370    1.87  0.000037  (-0.000162 -0.003260 -0.005153)
133:   3102.59   0.000373    1.89  0.000038  ( 0.001677 -0.004987  0.003142)
134:   3118.42   0.010149   51.29  0.001016  ( 0.022485  0.021502  0.006906)
135:   3157.39   0.002473   12.50  0.000244  ( 0.014907  0.004463 -0.001521)
136:   3160.34   0.007674   38.78  0.000758  (-0.020303  0.014409 -0.011744)
137:   3162.99   0.008124   41.06  0.000802  (-0.003725  0.004825 -0.027647)
138:   3180.98   0.002028   10.25  0.000199  (-0.013276 -0.003538 -0.003199)
139:   3181.76   0.001796    9.08  0.000176  ( 0.007952  0.010581  0.000976)
140:   3184.06   0.004320   21.83  0.000423  (-0.011424 -0.017082 -0.001058)
141:   3184.38   0.000385    1.94  0.000038  ( 0.004706  0.001101  0.003789)
142:   3186.81   0.001364    6.89  0.000134  ( 0.006306  0.000316  0.009679)
143:   3192.61   0.001040    5.26  0.000102  (-0.009093  0.001832  0.003955)
144:   3199.65   0.002701   13.65  0.000263  (-0.000600 -0.009227  0.013340)
145:   3201.39   0.000468    2.37  0.000046  ( 0.005201 -0.004287  0.000473)
146:   3206.34   0.001747    8.83  0.000170  (-0.001461 -0.012840  0.001744)
147:   3206.75   0.001147    5.80  0.000112  (-0.002408  0.005152 -0.008903)
148:   3806.63   0.041210  208.26  0.003378  (-0.040083 -0.040851  0.010146)
149:   3808.15   0.036060  182.23  0.002955  (-0.037713 -0.034479  0.018547)

* The epsilon (eps) is given for a Dirac delta lineshape.
** The dipole moment derivative (T) already includes vibrational overlap.

The first frequency considered to be a vibration is 6
The total number of vibrations considered is 144


--------------------------
THERMOCHEMISTRY AT 363.15K
--------------------------

Temperature         ... 363.15 K
Pressure            ... 1.00 atm
Total Mass          ... 414.39 AMU

Throughout the following assumptions are being made:
  (1) The electronic state is orbitally nondegenerate
      but the spin degeneracy is treated
  (2) There are no thermally accessible electronically excited states
  (3) Hindered rotations indicated by low frequency modes are not
      treated as such but are treated as vibrations and this may
      cause some error
  (4) All equations used are the standard statistical mechanics
      equations for an ideal gas
  (5) All vibrations are strictly harmonic

freq.      10.54  E(vib)   ...       0.71 
freq.      23.38  E(vib)   ...       0.69 
freq.      28.54  E(vib)   ...       0.68 
freq.      31.93  E(vib)   ...       0.68 
freq.      41.18  E(vib)   ...       0.66 
freq.      51.97  E(vib)   ...       0.65 
freq.      61.58  E(vib)   ...       0.64 
freq.      63.82  E(vib)   ...       0.63 
freq.      72.84  E(vib)   ...       0.62 
freq.      83.56  E(vib)   ...       0.61 
freq.      88.32  E(vib)   ...       0.60 
freq.     102.65  E(vib)   ...       0.58 
freq.     117.85  E(vib)   ...       0.57 
freq.     135.56  E(vib)   ...       0.55 
freq.     137.88  E(vib)   ...       0.54 
freq.     156.45  E(vib)   ...       0.52 
freq.     159.60  E(vib)   ...       0.52 
freq.     170.45  E(vib)   ...       0.51 
freq.     176.24  E(vib)   ...       0.50 
freq.     198.90  E(vib)   ...       0.47 
freq.     205.70  E(vib)   ...       0.47 
freq.     225.99  E(vib)   ...       0.45 
freq.     238.51  E(vib)   ...       0.43 
freq.     249.11  E(vib)   ...       0.42 
freq.     252.63  E(vib)   ...       0.42 
freq.     271.93  E(vib)   ...       0.40 
freq.     304.22  E(vib)   ...       0.37 
freq.     311.86  E(vib)   ...       0.37 
freq.     317.01  E(vib)   ...       0.36 
freq.     331.29  E(vib)   ...       0.35 
freq.     340.36  E(vib)   ...       0.34 
freq.     379.85  E(vib)   ...       0.31 
freq.     389.15  E(vib)   ...       0.30 
freq.     403.70  E(vib)   ...       0.29 
freq.     424.67  E(vib)   ...       0.28 
freq.     425.85  E(vib)   ...       0.28 
freq.     432.49  E(vib)   ...       0.27 
freq.     443.77  E(vib)   ...       0.26 
freq.     462.55  E(vib)   ...       0.25 
freq.     480.18  E(vib)   ...       0.24 
freq.     499.21  E(vib)   ...       0.23 
freq.     522.42  E(vib)   ...       0.22 
freq.     542.36  E(vib)   ...       0.20 
freq.     556.75  E(vib)   ...       0.20 
freq.     574.10  E(vib)   ...       0.19 
freq.     583.66  E(vib)   ...       0.18 
freq.     602.20  E(vib)   ...       0.17 
freq.     607.01  E(vib)   ...       0.17 
freq.     619.24  E(vib)   ...       0.17 
freq.     632.95  E(vib)   ...       0.16 
freq.     662.13  E(vib)   ...       0.15 
freq.     711.67  E(vib)   ...       0.13 
freq.     723.72  E(vib)   ...       0.12 
freq.     750.38  E(vib)   ...       0.12 
freq.     756.60  E(vib)   ...       0.11 
freq.     769.63  E(vib)   ...       0.11 
freq.     773.70  E(vib)   ...       0.11 
freq.     783.51  E(vib)   ...       0.11 
freq.     820.45  E(vib)   ...       0.09 
freq.     828.03  E(vib)   ...       0.09 
freq.     846.98  E(vib)   ...       0.09 
freq.     857.33  E(vib)   ...       0.08 
freq.     879.31  E(vib)   ...       0.08 
freq.     881.65  E(vib)   ...       0.08 
freq.     886.98  E(vib)   ...       0.08 
freq.     919.75  E(vib)   ...       0.07 
freq.     930.16  E(vib)   ...       0.07 
freq.     932.61  E(vib)   ...       0.07 
freq.     944.82  E(vib)   ...       0.07 
freq.     957.42  E(vib)   ...       0.06 
freq.     966.99  E(vib)   ...       0.06 
freq.     991.19  E(vib)   ...       0.06 
freq.    1019.38  E(vib)   ...       0.05 
freq.    1029.68  E(vib)   ...       0.05 
freq.    1046.34  E(vib)   ...       0.05 
freq.    1059.72  E(vib)   ...       0.05 
freq.    1097.87  E(vib)   ...       0.04 
freq.    1117.76  E(vib)   ...       0.04 
freq.    1133.41  E(vib)   ...       0.04 
freq.    1145.27  E(vib)   ...       0.04 
freq.    1175.93  E(vib)   ...       0.03 
freq.    1177.70  E(vib)   ...       0.03 
freq.    1189.28  E(vib)   ...       0.03 
freq.    1205.19  E(vib)   ...       0.03 
freq.    1206.41  E(vib)   ...       0.03 
freq.    1219.71  E(vib)   ...       0.03 
freq.    1225.67  E(vib)   ...       0.03 
freq.    1240.25  E(vib)   ...       0.03 
freq.    1264.42  E(vib)   ...       0.02 
freq.    1269.97  E(vib)   ...       0.02 
freq.    1273.89  E(vib)   ...       0.02 
freq.    1275.45  E(vib)   ...       0.02 
freq.    1290.32  E(vib)   ...       0.02 
freq.    1296.74  E(vib)   ...       0.02 
freq.    1301.76  E(vib)   ...       0.02 
freq.    1313.89  E(vib)   ...       0.02 
freq.    1315.04  E(vib)   ...       0.02 
freq.    1324.99  E(vib)   ...       0.02 
freq.    1343.72  E(vib)   ...       0.02 
freq.    1350.94  E(vib)   ...       0.02 
freq.    1363.94  E(vib)   ...       0.02 
freq.    1372.00  E(vib)   ...       0.02 
freq.    1386.16  E(vib)   ...       0.02 
freq.    1395.66  E(vib)   ...       0.02 
freq.    1434.33  E(vib)   ...       0.01 
freq.    1458.96  E(vib)   ...       0.01 
freq.    1468.45  E(vib)   ...       0.01 
freq.    1481.92  E(vib)   ...       0.01 
freq.    1484.11  E(vib)   ...       0.01 
freq.    1486.34  E(vib)   ...       0.01 
freq.    1491.79  E(vib)   ...       0.01 
freq.    1496.90  E(vib)   ...       0.01 
freq.    1497.14  E(vib)   ...       0.01 
freq.    1501.14  E(vib)   ...       0.01 
freq.    1563.18  E(vib)   ...       0.01 
freq.    1566.90  E(vib)   ...       0.01 
freq.    1636.23  E(vib)   ...       0.01 
freq.    1661.58  E(vib)   ...       0.01 
freq.    1664.56  E(vib)   ...       0.01 
freq.    1673.96  E(vib)   ...       0.01 
freq.    1679.39  E(vib)   ...       0.01 
freq.    1714.03  E(vib)   ...       0.01 
freq.    1731.06  E(vib)   ...       0.01 
freq.    1755.16  E(vib)   ...       0.00 
freq.    3043.90  E(vib)   ...       0.00 
freq.    3070.85  E(vib)   ...       0.00 
freq.    3101.04  E(vib)   ...       0.00 
freq.    3102.59  E(vib)   ...       0.00 
freq.    3118.42  E(vib)   ...       0.00 
freq.    3157.39  E(vib)   ...       0.00 
freq.    3160.34  E(vib)   ...       0.00 
freq.    3162.99  E(vib)   ...       0.00 
freq.    3180.98  E(vib)   ...       0.00 
freq.    3181.76  E(vib)   ...       0.00 
freq.    3184.06  E(vib)   ...       0.00 
freq.    3184.38  E(vib)   ...       0.00 
freq.    3186.81  E(vib)   ...       0.00 
freq.    3192.61  E(vib)   ...       0.00 
freq.    3199.65  E(vib)   ...       0.00 
freq.    3201.39  E(vib)   ...       0.00 
freq.    3206.34  E(vib)   ...       0.00 
freq.    3206.75  E(vib)   ...       0.00 
freq.    3806.63  E(vib)   ...       0.00 
freq.    3808.15  E(vib)   ...       0.00 

------------
INNER ENERGY
------------

The inner energy is: U= E(el) + E(ZPE) + E(vib) + E(rot) + E(trans)
    E(el)   - is the total energy from the electronic structure calculation
              = E(kin-el) + E(nuc-el) + E(el-el) + E(nuc-nuc)
    E(ZPE)  - the the zero temperature vibrational energy from the frequency calculation
    E(vib)  - the the finite temperature correction to E(ZPE) due to population
              of excited vibrational states
    E(rot)  - is the rotational thermal energy
    E(trans)- is the translational thermal energy

Summary of contributions to the inner energy U:
Electronic energy                ...  -1468.49842244 Eh
Zero point energy                ...      0.38376106 Eh     240.81 kcal/mol
Thermal vibrational correction   ...      0.03791513 Eh      23.79 kcal/mol
Thermal rotational correction    ...      0.00172503 Eh       1.08 kcal/mol
Thermal translational correction ...      0.00172503 Eh       1.08 kcal/mol
-----------------------------------------------------------------------
Total thermal energy                  -1468.07329618 Eh


Summary of corrections to the electronic energy:
(perhaps to be used in another calculation)
Total thermal correction                  0.04136520 Eh      25.96 kcal/mol
Non-thermal (ZPE) correction              0.38376106 Eh     240.81 kcal/mol
-----------------------------------------------------------------------
Total correction                          0.42512626 Eh     266.77 kcal/mol


--------
ENTHALPY
--------

The enthalpy is H = U + kB*T
                kB is Boltzmann's constant
Total free energy                 ...  -1468.07329618 Eh 
Thermal Enthalpy correction       ...      0.00115006 Eh       0.72 kcal/mol
-----------------------------------------------------------------------
Total Enthalpy                    ...  -1468.07214612 Eh


Note: Only C1 symmetry has been detected, increase convergence thresholds 
      if your molecule has a higher symmetry. Symmetry factor of 1.0 is   
      used for the rotational entropy correction. 
 

Note: Rotational entropy computed according to Herzberg 
Infrared and Raman Spectra, Chapter V,1, Van Nostrand Reinhold, 1945 
Point Group:  C1, Symmetry Number:   1  
Rotational constants in cm-1:     0.010846     0.001677     0.001630 

Vibrational entropy computed according to the QRRHO of S. Grimme
Chem.Eur.J. 2012 18 9955


-------
ENTROPY
-------

The entropy contributions are T*S = T*(S(el)+S(vib)+S(rot)+S(trans))
     S(el)   - electronic entropy
     S(vib)  - vibrational entropy
     S(rot)  - rotational entropy
     S(trans)- translational entropy
The entropies will be listed as multiplied by the temperature to get
units of energy

Electronic entropy                ...      0.00079714 Eh      0.50 kcal/mol
Vibrational entropy               ...      0.06995426 Eh     43.90 kcal/mol
Rotational entropy                ...      0.02189172 Eh     13.74 kcal/mol
Translational entropy             ...      0.02600477 Eh     16.32 kcal/mol
-----------------------------------------------------------------------
Final entropy term                ...      0.11864790 Eh     74.45 kcal/mol

In case the symmetry of your molecule has not been determined correctly
or in case you have a reason to use a different symmetry number we print 
out the resulting rotational entropy values for sn=1,12 :
 --------------------------------------------------------
|  sn= 1 | S(rot)=       0.02189172 Eh     13.74 kcal/mol|
|  sn= 2 | S(rot)=       0.02109459 Eh     13.24 kcal/mol|
|  sn= 3 | S(rot)=       0.02062829 Eh     12.94 kcal/mol|
|  sn= 4 | S(rot)=       0.02029745 Eh     12.74 kcal/mol|
|  sn= 5 | S(rot)=       0.02004083 Eh     12.58 kcal/mol|
|  sn= 6 | S(rot)=       0.01983116 Eh     12.44 kcal/mol|
|  sn= 7 | S(rot)=       0.01965388 Eh     12.33 kcal/mol|
|  sn= 8 | S(rot)=       0.01950032 Eh     12.24 kcal/mol|
|  sn= 9 | S(rot)=       0.01936487 Eh     12.15 kcal/mol|
|  sn=10 | S(rot)=       0.01924370 Eh     12.08 kcal/mol|
|  sn=11 | S(rot)=       0.01913409 Eh     12.01 kcal/mol|
|  sn=12 | S(rot)=       0.01903402 Eh     11.94 kcal/mol|
 --------------------------------------------------------


-------------------
GIBBS FREE ENERGY
-------------------

The Gibbs free energy is G = H - T*S

Total enthalpy                    ...  -1468.07214612 Eh 
Total entropy correction          ...     -0.11864790 Eh    -74.45 kcal/mol
-----------------------------------------------------------------------
Final Gibbs free energy         ...  -1468.19079401 Eh

For completeness - the Gibbs free energy minus the electronic energy
G-E(el)                           ...      0.30762842 Eh    193.04 kcal/mol



Timings for individual modules:

Sum of individual times         ...   405331.918 sec (=6755.532 min)
GTO integral calculation        ...        7.426 sec (=   0.124 min)   0.0 %
SCF iterations                  ...     4619.997 sec (=  77.000 min)   1.1 %
SCF Gradient evaluation         ...      777.347 sec (=  12.956 min)   0.2 %
Geometry relaxation             ...        0.309 sec (=   0.005 min)   0.0 %
Numerical frequency calculation ...   399926.839 sec (=6665.447 min)  98.7 %
                             ****ORCA TERMINATED NORMALLY****
TOTAL RUN TIME: 4 days 16 hours 24 minutes 23 seconds 878 msec
