
                                 *****************
                                 * O   R   C   A *
                                 *****************

                                            #,                                       
                                            ###                                      
                                            ####                                     
                                            #####                                    
                                            ######                                   
                                           ########,                                 
                                     ,,################,,,,,                         
                               ,,#################################,,                 
                          ,,##########################################,,             
                       ,#########################################, ''#####,          
                    ,#############################################,,   '####,        
                  ,##################################################,,,,####,       
                ,###########''''           ''''###############################       
              ,#####''   ,,,,##########,,,,          '''####'''          '####       
            ,##' ,,,,###########################,,,                        '##       
           ' ,,###''''                  '''############,,,                           
         ,,##''                                '''############,,,,        ,,,,,,###''
      ,#''                                            '''#######################'''  
     '                                                          ''''####''''         
             ,#######,   #######,   ,#######,      ##                                
            ,#'     '#,  ##    ##  ,#'     '#,    #''#        ,####,   ,####,        
            ##       ##  ##   ,#'  ##            #'  '#       #'       #'  '#        
            ##       ##  #######   ##           ,######,      #####,   #    #        
            '#,     ,#'  ##    ##  '#,     ,#' ,#      #,     #,   #   #,  ,#        
             '#######'   ##     ##  '#######'  #'      '#     '####' # '####'        



                #########################################################
                #                        -***-                          #
                #          Department of theory and spectroscopy        #
                #                                                       #
                #                      Frank Neese                      #
                #                                                       #
                #     Directorship, Architecture, Infrastructure        #
                #                    SHARK, DRIVERS                     #
                #        Core code/Algorithms in most modules           #
                #                                                       #
                #        Max Planck Institute fuer Kohlenforschung      #
                #                Kaiser Wilhelm Platz 1                 #
                #                 D-45470 Muelheim/Ruhr                 #
                #                      Germany                          #
                #                                                       #
                #                  All rights reserved                  #
                #                        -***-                          #
                #########################################################


                         Program Version 6.0.0  -   RELEASE  -


 With contributions from (in alphabetic order):
   Daniel Aravena         : Magnetic Suceptibility
   Michael Atanasov       : Ab Initio Ligand Field Theory (pilot matlab implementation)
   Alexander A. Auer      : GIAO ZORA, VPT2 properties, NMR spectrum
   Ute Becker             : All parallelization in ORCA, NUMFREQ, NUMCALC
   Giovanni Bistoni       : ED, misc. LED, open-shell LED, HFLD
   Martin Brehm           : Molecular dynamics
   Dmytro Bykov           : pre 5.0 version of the SCF Hessian
   Marcos Casanova-Páez   : Triplet and SCS-CIS(D). UHF-(DLPNO)-IP/EA/STEOM-CCSD. UHF-CVS-IP/STEOM-CCSD
   Vijay G. Chilkuri      : MRCI spin determinant printing, contributions to CSF-ICE
   Pauline Colinet        : FMM embedding
   Dipayan Datta          : RHF DLPNO-CCSD density
   Achintya Kumar Dutta   : EOM-CC, STEOM-CC
   Nicolas Foglia         : Exact transition moments, OPA infrastructure, MCD improvements
   Dmitry Ganyushin       : Spin-Orbit,Spin-Spin,Magnetic field MRCI
   Miquel Garcia          : C-PCM and meta-GGA Hessian, CCSD/C-PCM, Gaussian charge scheme
   Tiago L. C. Gouveia    : GS-ROHF, GS-ROCIS
   Yang Guo               : DLPNO-NEVPT2, F12-NEVPT2, CIM, IAO-localization
   Andreas Hansen         : Spin unrestricted coupled pair/coupled cluster methods
   Ingolf Harden          : AUTO-CI MPn and infrastructure 
   Benjamin Helmich-Paris : MC-RPA, TRAH-(SCF,CASSCF), AVAS, COSX integrals, SCF dyn. polar.
   Lee Huntington         : MR-EOM, pCC
   Robert Izsak           : Overlap fitted RIJCOSX, COSX-SCS-MP3, EOM
   Riya Kayal             : Wick's Theorem for AUTO-CI, AUTO-CI UHF-CCSDT
   Emily Kempfer          : AUTO-CI, RHF CISDT and CCSDT
   Christian Kollmar      : KDIIS, OOCD, Brueckner-CCSD(T), CCSD density, CASPT2, CASPT2-K, improved NEVPT2
   Axel Koslowski         : Symmetry handling
   Simone Kossmann        : Meta GGA functionals, TD-DFT gradient, OOMP2, (MP2 Hessian; deprecated post 5.0)
   Lucas Lang             : DCDCAS
   Marvin Lechner         : AUTO-CI (C++ implementation), FIC-MRCC
   Spencer Leger          : CASSCF response
   Dagmar Lenk            : GEPOL surface, SMD, ORCA-2-JSON
   Dimitrios Liakos       : Extrapolation schemes; Compound Job, initial MDCI parallelization
   Dimitrios Manganas     : Further ROCIS development; embedding schemes. LFT, Crystal Embedding
   Dimitrios Pantazis     : SARC Basis sets
   Anastasios Papadopoulos: AUTO-CI, single reference methods and gradients
   Taras Petrenko         : pre 6.0 DFT Hessian and TD-DFT gradient, (ASA, deprecated), ECA, 1-Electron XAS/XES, NRVS
   Peter Pinski           : DLPNO-MP2, DLPNO-MP2 Gradient
   Christoph Reimann      : Effective Core Potentials
   Marius Retegan         : Local ZFS, SOC
   Christoph Riplinger    : Optimizer, TS searches, QM/MM, DLPNO-CCSD(T), (RO)-DLPNO pert. Triples
   Michael Roemelt        : Original ROCIS implementation
   Masaaki Saitow         : Open-shell DLPNO-CCSD energy and density
   Barbara Sandhoefer     : DKH picture change effects
   Kantharuban Sivalingam : CASSCF convergence/infrastructure, NEVPT2 and variants, FIC-MRCI
   Bernardo de Souza      : ESD, SOC TD-DFT
   Georgi Stoychev        : AutoAux, RI-MP2 NMR, DLPNO-MP2 response, X2C
   Van Anh Tran           : RI-MP2 g-tensors
   Willem Van den Heuvel  : Paramagnetic NMR
   Zikuan Wang            : NOTCH, Electric field optimization 
   Frank Wennmohs         : Technical directorship and infrastructure
   Hang Xu                : AUTO-CI-Response properties 


 We gratefully acknowledge several colleagues who have allowed us to
 interface, adapt or use parts of their codes:
   Stefan Grimme, W. Hujo, H. Kruse, P. Pracht,  : VdW corrections, initial TS optimization,
                  C. Bannwarth, S. Ehlert,         DFT functionals, gCP, sTDA/sTD-DF
                  L. Wittmann, M. Mueller
   Ed Valeev, F. Pavosevic, A. Kumar             : LibInt (2-el integral package), F12 methods
   Garnet Chan, S. Sharma, J. Yang, R. Olivares  : DMRG
   Ulf Ekstrom                                   : XCFun DFT Library
   Mihaly Kallay                                 : mrcc  (arbitrary order and MRCC methods)
   Frank Weinhold                                : gennbo (NPA and NBO analysis)
   Simon Mueller                                 : openCOSMO-RS
   Christopher J. Cramer and Donald G. Truhlar   : smd solvation model
   Lars Goerigk                                  : TD-DFT with DH, B97 family of functionals
   V. Asgeirsson, H. Jonsson                     : NEB implementation
   FAccTs GmbH                                   : IRC, NEB, NEB-TS, DLPNO-Multilevel, CI-OPT
                                                   MM, QMMM, 2- and 3-layer-ONIOM, Crystal-QMMM,
                                                   LR-CPCM, SF, NACMEs, symmetry and pop. for TD-DFT,
                                                   nearIR, NL-DFT gradient (VV10), updates on ESD,
                                                   ML-optimized integration grids, MBIS, APM,
                                                   GOAT, DOCKER, SOLVATOR, interface openCOSMO-RS
   S Lehtola, MJT Oliveira, MAL Marques          : LibXC Library
   Liviu Ungur et al                             : ANISO software


 Your calculation uses the libint2 library for the computation of 2-el integrals
 For citations please refer to: http://libint.valeyev.net

 Your ORCA version has been built with support for libXC version: 6.2.2
 For citations please refer to: https://libxc.gitlab.io

 This ORCA versions uses:
   CBLAS   interface :  Fast vector & matrix operations
   LAPACKE interface :  Fast linear algebra routines
   SCALAPACK package :  Parallel linear algebra routines
   Shared memory     :  Shared parallel matrices
   BLAS/LAPACK       :  OpenBLAS 0.3.27  USE64BITINT DYNAMIC_ARCH NO_AFFINITY Cooperlake SINGLE_THREADED
        Core in use  :  Cooperlake
   Copyright (c) 2011-2014, The OpenBLAS Project


NOTE: MaxCore=2000 MB was set to SCF,MP2,MDCI,CIPSI,MRCI and CIS
      => If you want to overwrite this, your respective input block should be placed after the MaxCore statement
Your calculation utilizes the DFT-NL dispersion correction.
Cite in your paper:
Vydrov, O. A.; Van Voorhis, T. J. Chem. Phys. 2010, 133, 244103
Hujo, W.; Grimme, S. J. Chem. Theory Comput. 2011, 7, 3866 
   

Warning: RI is on but no J-basis has been assigned. Assigning Def2/J (nothing to worry about!)
================================================================================

----- Orbital basis set information -----
Your calculation utilizes the basis: 6-311+G(d)
   H, Li - Ne  : R. Krishnan, J. S. Binkley, R. Seeger and J. A. Pople, J. Chem. Phys. 72, 650 (1980).
   Na - Ar     : A. D. McLean and G. S. Chandler J. Chem. Phys. 72, 5639, (1980).
   K  - Ca     : J.-P. Blaudeau, M. P. McGrath, L. A. Curtiss and L. Radom, J. Chem. Phys. 107, 5016 (1997).
   Ga - Kr     : L. A. Curtiss, M. P. McGrath, J.-P. Blandeau, N. E. Davis, R. C. Binning and L. Radom, J. Chem. Phys. 103, 6104 (1995).
   Pol./Diff.
   H, Li - Cl  : T. Clark, J. Chandrasekhar and P. v. R. Schleyer, J. Comp. Chem. 4, 294 (1983).
   H - Ne      : M. J. Frisch, J. A. Pople and J. S. Binkley, J. Chem. Phys. 80, 3265 (1984).

----- AuxJ basis set information -----
Your calculation utilizes the auxiliary basis: def2/J
   F. Weigend, Phys. Chem. Chem. Phys. 8, 1057 (2006).

================================================================================
                                        WARNINGS
                       Please study these warnings very carefully!
================================================================================

Using LibXC functional ID 531 : wB97M-V exchange-correlation functional
[ 1]  N. Mardirossian and M. Head-Gordon.,  J. Chem. Phys. 144, 214110 (2016)
Using LibXC functional ID 531 : wB97M-V exchange-correlation functional
[ 1]  N. Mardirossian and M. Head-Gordon.,  J. Chem. Phys. 144, 214110 (2016)

WARNING: B97M-V or wB97M-V functional requested.
  ===> : libXC variant has now been activated.
         Any manually given DFX/HFX/RangeSep scaling parameters are IGNORED!

Your calculation utilizes LibXC
 by S Lehtola, C Steigemann, MJT Oliveira & MAL Marques
Please cite in your paper:
 S Lehtola, C Steigemann, MJT Oliveira & MAL Marques, SoftwareX, 7, (2018), 1.
   


WARNING: your system is open-shell and RHF/RKS was chosen
  ===> : WILL SWITCH to UHF/UKS


WARNING: Geometry Optimization
  ===> : Switching off AutoStart
         For restart on a previous wavefunction, please use MOREAD

WARNING: Analytic gradients for DFT-NL dispersion can only be done using the self-consistent method,
  ===>   Switching to SCNL

WARNING: Self-consistent DFT-NL dispersion not compatible with AutoTRAH.
  ===>   Switching AutoTRAH off


================================================================================
                                       INPUT FILE
================================================================================
NAME = CURCUMIN-OPT-FREQ-Prod-WB97M-V-6-311+G-D-363.inp
|  1> ! Opt NumFreq wb97M-V 6-311+G(d) CPCM RIJDX
|  2> %maxcore 2000
|  3> %cpcm
|  4> epsilon 7 # Dielectric constant
|  5> refrac 1.85341 # Refractive index
|  6> end
|  7> %FREQ TEMP 363.15 END
|  8> 
|  9> * xyz 0 2
| 10>   C   -2.52038562518846      0.31790221313096     -0.33657290046267
| 11>   H   -2.11439494811319      0.79720954877657     -1.22466438782222
| 12>   C   -1.80398538118520      0.32424860260877      0.79770108041211
| 13>   H   -2.16166333092333     -0.15774330359649      1.70291761793566
| 14>   C   -0.46578151067010      0.92446250433647      0.94155513539486
| 15>   O   0.19031979399380      0.74423512198766      1.97257553466364
| 16>   C   -3.83715246888151     -0.29376722297127     -0.53752624865036
| 17>   C   -4.43844180084688     -0.19326314982119     -1.79427943385902
| 18>   C   -4.52486242498029     -0.97808312855166      0.47579639411433
| 19>   C   -5.68878157370892     -0.74806035149178     -2.03887818298222
| 20>   H   -3.92469852915092      0.33075480880798     -2.59429030882485
| 21>   C   -5.76784611823259     -1.53332455935811      0.24290042618512
| 22>   H   -4.10829454221117     -1.08723374273544      1.47174934253352
| 23>   C   -6.36409238806399     -1.41665668684134     -1.02414358567344
| 24>   H   -6.15005571359228     -0.65645194901296     -3.01797970369111
| 25>   O   -7.59456946864918     -1.96782911067205     -1.18581507286117
| 26>   H   -7.90842254043962     -1.82972797469626     -2.08840298863544
| 27>   O   -6.44134875702934     -2.15613389399153      1.26552298093489
| 28>   C   -6.42144009792131     -3.58643107444387      1.17055239039866
| 29>   H   -5.39255460722506     -3.95328702358277      1.22626044742665
| 30>   H   -6.99056207160486     -3.96011499451021      2.01948476912445
| 31>   H   -6.88574385705366     -3.92090996164074      0.24066384784670
| 32>   C   2.61889460609390      0.25806686018019     -0.11298475422231
| 33>   H   1.66092709220769     -0.24228272354234     -0.24039304292301
| 34>   C   2.63085587623705      1.59670596134508      0.02021426006707
| 35>   H   3.54698407373604      2.16743306696746      0.13571901616590
| 36>   C   1.41512107782531      2.39183831332448     -0.03074222372446
| 37>   O   1.46136967292523      3.62784445156813     -0.03836493046917
| 38>   C   3.77325966702181     -0.63496557451423     -0.11394921260661
| 39>   C   3.55716132492872     -2.01095215753130     -0.23045787658173
| 40>   C   5.09416854795238     -0.17231602809260     -0.00400406594103
| 41>   C   4.61950654464541     -2.90514804053269     -0.22840200812304
| 42>   H   2.54336267104122     -2.38907031022394     -0.31805983601213
| 43>   C   6.15685693452239     -1.05267612238572     -0.00416098074328
| 44>   H   5.31963564520568      0.88500039997345      0.08772277673348
| 45>   C   5.92362257356433     -2.43537712178750     -0.11146959159891
| 46>   H   4.44154136004728     -3.97338168644665     -0.31003496169424
| 47>   O   7.00766034911995     -3.24922439716241     -0.08708968270661
| 48>   H   6.73804736224116     -4.17282882845257     -0.16950396824088
| 49>   O   7.43743746111179     -0.58153924862481      0.14927527650914
| 50>   C   8.18829066489380     -0.56845289868716     -1.07239040142546
| 51>   H   7.71308782304864      0.09660675507454     -1.79903230478632
| 52>   H   9.17793911383740     -0.19162105380610     -0.82199046671380
| 53>   H   8.27209000554040     -1.57465578549860     -1.48792983863415
| 54>   C   0.07082254748316      1.76764967706862     -0.11753775511972
| 55>   H   -0.56073048008281      2.13513875694275     -0.91806775837368
| 56>   H   0.01822369604732      4.57301681838287      0.12909914795383
| 57>   O   -0.85116801259867      5.01845873690338      0.29975155765789
| 58>   O   -2.57761434720024      4.59213325973428      1.42782279259645
| 59>   N   -1.50525388971819      4.18362424809266      1.14805767944870
| 60> *
| 61> 
| 62>                          ****END OF INPUT****
================================================================================

                       *****************************
                       * Geometry Optimization Run *
                       *****************************

Geometry optimization settings:
Update method            Update   .... BFGS
Choice of coordinates    CoordSys .... (2022) Redundant Internals
Initial Hessian          InHess   .... Almloef's Model
Max. no of cycles        MaxIter  .... 150

Convergence Tolerances:
Energy Change            TolE     ....  5.0000e-06 Eh
Max. Gradient            TolMAXG  ....  3.0000e-04 Eh/bohr
RMS Gradient             TolRMSG  ....  1.0000e-04 Eh/bohr
Max. Displacement        TolMAXD  ....  4.0000e-03 bohr
RMS Displacement         TolRMSD  ....  2.0000e-03 bohr
Strict Convergence                .... False

------------------------------------------------------------------------------
                        ORCA OPTIMIZATION COORDINATE SETUP
------------------------------------------------------------------------------

The optimization will be done in redundant internal coordinates (2022)
Making redundant internal coordinates   ...  (2022 redundants) done
Evaluating the initial hessian          ...  (Almloef) done
Evaluating the coordinates              ...  done
Calculating the B-matrix                .... done
Calculating the G-matrix                .... done
Diagonalizing the G-matrix              .... done
Small eigenvalue found = 5.506e-04
Small eigenvalue found = 1.391e-03
Small eigenvalue found = 3.346e-03
Small eigenvalue found = 4.490e-03
Small eigenvalue found = 6.582e-03
Small eigenvalue found = 7.787e-03
Small eigenvalue found = 1.033e-02
Small eigenvalue found = 1.586e-02
Small eigenvalue found = 1.665e-02
Small eigenvalue found = 2.797e-02
Small eigenvalue found = 2.893e-02
The first mode is                       ....   84
The number of degrees of freedom        ....  144

    -----------------------------------------------------------------
                    Redundant Internal Coordinates


    -----------------------------------------------------------------
         Definition                    Initial Value    Approx d2E/dq
    -----------------------------------------------------------------
      1. B(H   1,C   0)                  1.0878         0.363046   
      2. B(C   2,C   0)                  1.3416         0.746420   
      3. B(H   3,C   2)                  1.0861         0.365263   
      4. B(C   4,C   2)                  1.4737         0.459440   
      5. B(O   5,C   4)                  1.2353         0.987864   
      6. B(C   6,C   0)                  1.4657         0.473041   
      7. B(C   7,C   6)                  1.3968         0.609359   
      8. B(C   8,C   6)                  1.4029         0.595935   
      9. B(C   9,C   7)                  1.3896         0.625724   
     10. B(H  10,C   7)                  1.0856         0.365957   
     11. B(C  11,C   8)                  1.3811         0.645472   
     12. B(H  12,C   8)                  1.0851         0.366689   
     13. B(C  13,C  11)                  1.4052         0.590915   
     14. B(C  13,C   9)                  1.3902         0.624258   
     15. B(H  14,C   9)                  1.0862         0.365177   
     16. B(O  15,C  13)                  1.3579         0.629541   
     17. B(H  16,O  15)                  0.9655         0.509507   
     18. B(O  17,C  11)                  1.3738         0.593969   
     19. B(C  18,O  17)                  1.4336         0.476802   
     20. B(H  19,C  18)                  1.0938         0.355171   
     21. B(H  20,C  18)                  1.0882         0.362461   
     22. B(H  21,C  18)                  1.0919         0.357655   
     23. B(H  23,C  22)                  1.0882         0.362425   
     24. B(C  24,C  22)                  1.3453         0.736292   
     25. B(H  25,C  24)                  1.0855         0.366071   
     26. B(C  26,C  24)                  1.4536         0.494685   
     27. B(O  27,C  26)                  1.2369         0.982077   
     28. B(C  28,C  22)                  1.4595         0.484056   
     29. B(C  29,C  28)                  1.3977         0.607333   
     30. B(C  30,C  28)                  1.4039         0.593695   
     31. B(C  31,C  29)                  1.3886         0.628053   
     32. B(H  32,C  29)                  1.0856         0.366025   
     33. B(C  33,C  30)                  1.3800         0.648227   
     34. B(H  34,C  30)                  1.0850         0.366811   
     35. B(C  35,C  33)                  1.4063         0.588408   
     36. B(C  35,C  31)                  1.3911         0.622345   
     37. B(H  36,C  31)                  1.0860         0.365392   
     38. B(O  37,C  35)                  1.3558         0.634609   
     39. B(H  38,O  37)                  0.9657         0.509228   
     40. B(O  39,C  33)                  1.3731         0.595444   
     41. B(C  40,O  39)                  1.4340         0.476038   
     42. B(H  41,C  40)                  1.0937         0.355268   
     43. B(H  42,C  40)                  1.0882         0.362534   
     44. B(H  43,C  40)                  1.0919         0.357659   
     45. B(C  44,C  26)                  1.4847         0.441243   
     46. B(C  44,C   4)                  1.4562         0.489873   
     47. B(H  45,C  44)                  1.0839         0.368313   
     48. B(H  46,O  27)                  1.7332         0.030362   
     49. B(O  47,H  46)                  0.9917         0.462872   
     50. B(N  49,H  46)                  1.8737         0.018120   
     51. B(N  49,O  48)                  1.1811         1.079509   
     52. B(N  49,O  47)                  1.3581         0.563544   
     53. A(H   1,C   0,C   2)          119.2669         0.364738   
     54. A(C   2,C   0,C   6)          126.6990         0.427493   
     55. A(H   1,C   0,C   6)          114.0316         0.337692   
     56. A(C   0,C   2,C   4)          124.7058         0.425265   
     57. A(C   0,C   2,H   3)          121.7825         0.365118   
     58. A(H   3,C   2,C   4)          113.4799         0.336396   
     59. A(O   5,C   4,C  44)          119.7213         0.449535   
     60. A(C   2,C   4,C  44)          119.9636         0.394693   
     61. A(C   2,C   4,O   5)          120.2883         0.444339   
     62. A(C   0,C   6,C   8)          123.0194         0.410675   
     63. A(C   0,C   6,C   7)          118.6885         0.412301   
     64. A(C   7,C   6,C   8)          118.2921         0.429651   
     65. A(C   9,C   7,H  10)          119.2623         0.354426   
     66. A(C   6,C   7,H  10)          119.6072         0.352839   
     67. A(C   6,C   7,C   9)          121.1298         0.433432   
     68. A(C   6,C   8,H  12)          121.5921         0.351630   
     69. A(C   6,C   8,C  11)          121.0295         0.434119   
     70. A(C  11,C   8,H  12)          117.3771         0.356420   
     71. A(C   7,C   9,C  13)          120.0400         0.435321   
     72. A(C  13,C   9,H  14)          119.4863         0.354157   
     73. A(C   7,C   9,H  14)          120.4715         0.354298   
     74. A(C   8,C  11,C  13)          120.0363         0.433459   
     75. A(C  13,C  11,O  17)          120.0548         0.424255   
     76. A(C   8,C  11,O  17)          119.8645         0.431023   
     77. A(C  11,C  13,O  15)          117.2675         0.428697   
     78. A(C   9,C  13,O  15)          123.2614         0.432944   
     79. A(C   9,C  13,C  11)          119.4698         0.430863   
     80. A(C  13,O  15,H  16)          110.3521         0.369796   
     81. A(C  11,O  17,C  18)          113.3405         0.405734   
     82. A(O  17,C  18,H  21)          110.8641         0.335253   
     83. A(H  19,C  18,H  20)          109.6977         0.290509   
     84. A(O  17,C  18,H  20)          106.4787         0.335998   
     85. A(O  17,C  18,H  19)          110.1410         0.334865   
     86. A(H  20,C  18,H  21)          109.6820         0.290827   
     87. A(H  19,C  18,H  21)          109.9166         0.289901   
     88. A(C  24,C  22,C  28)          127.0053         0.428211   
     89. A(H  23,C  22,C  28)          114.5098         0.338894   
     90. A(H  23,C  22,C  24)          118.4842         0.363780   
     91. A(H  25,C  24,C  26)          114.9604         0.340695   
     92. A(C  22,C  24,C  26)          122.2359         0.429883   
     93. A(C  22,C  24,H  25)          122.7651         0.364403   
     94. A(C  24,C  26,O  27)          121.0358         0.449853   
     95. A(O  27,C  26,C  44)          116.9757         0.440635   
     96. A(C  24,C  26,C  44)          121.9628         0.392580   
     97. A(C  26,O  27,H  46)          120.8776         0.253014   
     98. A(C  29,C  28,C  30)          118.4518         0.429104   
     99. A(C  22,C  28,C  30)          122.8535         0.412080   
    100. A(C  22,C  28,C  29)          118.6947         0.413745   
    101. A(C  31,C  29,H  32)          119.3603         0.354660   
    102. A(C  28,C  29,H  32)          119.6049         0.352651   
    103. A(C  28,C  29,C  31)          121.0338         0.433462   
    104. A(C  33,C  30,H  34)          117.4950         0.356698   
    105. A(C  28,C  30,H  34)          121.5533         0.351426   
    106. A(C  28,C  30,C  33)          120.9514         0.434157   
    107. A(C  35,C  31,H  36)          119.4796         0.354008   
    108. A(C  29,C  31,H  36)          120.5261         0.354556   
    109. A(C  29,C  31,C  35)          119.9926         0.435371   
    110. A(C  35,C  33,O  39)          120.0365         0.424120   
    111. A(C  30,C  33,O  39)          119.9526         0.431545   
    112. A(C  30,C  33,C  35)          119.9687         0.433459   
    113. A(C  33,C  35,O  37)          117.1436         0.428987   
    114. A(C  31,C  35,O  37)          123.2567         0.433329   
    115. A(C  31,C  35,C  33)          119.5987         0.430297   
    116. A(C  35,O  37,H  38)          110.4483         0.370272   
    117. A(C  33,O  39,C  40)          113.3442         0.405797   
    118. A(H  41,C  40,H  42)          109.7226         0.290530   
    119. A(O  39,C  40,H  42)          106.4584         0.335920   
    120. A(O  39,C  40,H  41)          110.1244         0.334791   
    121. A(H  42,C  40,H  43)          109.6887         0.290836   
    122. A(H  41,C  40,H  43)          109.9306         0.289914   
    123. A(O  39,C  40,H  43)          110.8548         0.335164   
    124. A(C  26,C  44,H  45)          115.3550         0.334605   
    125. A(C   4,C  44,H  45)          121.2500         0.340486   
    126. A(C   4,C  44,C  26)          122.3142         0.391909   
    127. A(O  27,H  46,O  47)          172.5508         0.208233   
    128. A(H  46,O  47,N  49)          104.6913         0.354711   
    129. A(O  47,N  49,O  48)          111.8767         0.459279   
    130. D(H   3,C   2,C   0,H   1)   -178.8472         0.039696   
    131. D(C   4,C   2,C   0,H   1)     -1.0320         0.039696   
    132. D(C   4,C   2,C   0,C   6)    178.3545         0.039696   
    133. D(H   3,C   2,C   0,C   6)      0.5392         0.039696   
    134. D(C  44,C   4,C   2,C   0)     10.7290         0.014380   
    135. D(O   5,C   4,C   2,C   0)   -171.1577         0.014380   
    136. D(O   5,C   4,C   2,H   3)      6.8176         0.014380   
    137. D(C  44,C   4,C   2,H   3)   -171.2957         0.014380   
    138. D(C   8,C   6,C   0,C   2)     -0.3625         0.015236   
    139. D(C   8,C   6,C   0,H   1)    179.0515         0.015236   
    140. D(C   7,C   6,C   0,C   2)    179.6488         0.015236   
    141. D(C   7,C   6,C   0,H   1)     -0.9372         0.015236   
    142. D(H  10,C   7,C   6,C   0)      0.0526         0.025642   
    143. D(C   9,C   7,C   6,C   0)   -179.6511         0.025642   
    144. D(C   9,C   7,C   6,C   8)      0.3597         0.025642   
    145. D(H  10,C   7,C   6,C   8)   -179.9367         0.025642   
    146. D(H  12,C   8,C   6,C   7)   -179.9292         0.024465   
    147. D(H  12,C   8,C   6,C   0)      0.0821         0.024465   
    148. D(C  11,C   8,C   6,C   0)    179.6668         0.024465   
    149. D(C  11,C   8,C   6,C   7)     -0.3444         0.024465   
    150. D(H  14,C   9,C   7,H  10)     -0.2122         0.027123   
    151. D(H  14,C   9,C   7,C   6)    179.4925         0.027123   
    152. D(C  13,C   9,C   7,H  10)   -179.6702         0.027123   
    153. D(C  13,C   9,C   7,C   6)      0.0345         0.027123   
    154. D(O  17,C  11,C   8,H  12)      1.9609         0.028981   
    155. D(O  17,C  11,C   8,C   6)   -177.6408         0.028981   
    156. D(C  13,C  11,C   8,H  12)    179.5391         0.028981   
    157. D(C  13,C  11,C   8,C   6)     -0.0626         0.028981   
    158. D(O  15,C  13,C   9,C   7)    179.1243         0.026989   
    159. D(C  11,C  13,C   9,H  14)   -179.9106         0.026989   
    160. D(C  11,C  13,C   9,C   7)     -0.4473         0.026989   
    161. D(O  15,C  13,C  11,O  17)     -1.5615         0.024033   
    162. D(O  15,C  13,C  11,C   8)   -179.1351         0.024033   
    163. D(C   9,C  13,C  11,O  17)    178.0354         0.024033   
    164. D(C   9,C  13,C  11,C   8)      0.4619         0.024033   
    165. D(O  15,C  13,C   9,H  14)     -0.3391         0.026989   
    166. D(H  16,O  15,C  13,C  11)    179.9662         0.029143   
    167. D(H  16,O  15,C  13,C   9)      0.3859         0.029143   
    168. D(C  18,O  17,C  11,C  13)     77.6902         0.025733   
    169. D(C  18,O  17,C  11,C   8)   -104.7320         0.025733   
    170. D(H  21,C  18,O  17,C  11)    -60.0977         0.017929   
    171. D(H  20,C  18,O  17,C  11)   -179.3476         0.017929   
    172. D(H  19,C  18,O  17,C  11)     61.7787         0.017929   
    173. D(C  26,C  24,C  22,C  28)    178.2607         0.038527   
    174. D(C  26,C  24,C  22,H  23)     -1.4112         0.038527   
    175. D(H  25,C  24,C  22,C  28)      0.6338         0.038527   
    176. D(H  25,C  24,C  22,H  23)   -179.0381         0.038527   
    177. D(C  44,C  26,C  24,H  25)   -176.8943         0.016665   
    178. D(C  44,C  26,C  24,C  22)      5.3067         0.016665   
    179. D(O  27,C  26,C  24,H  25)      5.0062         0.016665   
    180. D(O  27,C  26,C  24,C  22)   -172.7928         0.016665   
    181. D(H  46,O  27,C  26,C  44)     10.6179         0.078573   
    182. D(H  46,O  27,C  26,C  24)   -171.1913         0.078573   
    183. D(C  30,C  28,C  22,C  24)     -1.7196         0.015953   
    184. D(C  30,C  28,C  22,H  23)    177.9635         0.015953   
    185. D(C  29,C  28,C  22,C  24)    178.3388         0.015953   
    186. D(C  29,C  28,C  22,H  23)     -1.9782         0.015953   
    187. D(H  32,C  29,C  28,C  30)   -179.9109         0.025462   
    188. D(H  32,C  29,C  28,C  22)      0.0333         0.025462   
    189. D(C  31,C  29,C  28,C  30)      0.4591         0.025462   
    190. D(C  31,C  29,C  28,C  22)   -179.5966         0.025462   
    191. D(C  33,C  30,C  28,C  29)     -0.3035         0.024272   
    192. D(C  33,C  30,C  28,C  22)    179.7547         0.024272   
    193. D(H  34,C  30,C  28,C  29)    179.9280         0.024272   
    194. D(H  34,C  30,C  28,C  22)     -0.0138         0.024272   
    195. D(H  36,C  31,C  29,H  32)     -0.2085         0.027339   
    196. D(H  36,C  31,C  29,C  28)    179.4224         0.027339   
    197. D(C  35,C  31,C  29,H  32)   -179.7442         0.027339   
    198. D(C  35,C  31,C  29,C  28)     -0.1134         0.027339   
    199. D(O  39,C  33,C  30,H  34)      1.9482         0.029246   
    200. D(O  39,C  33,C  30,C  28)   -177.8295         0.029246   
    201. D(C  35,C  33,C  30,H  34)    179.5838         0.029246   
    202. D(C  35,C  33,C  30,C  28)     -0.1939         0.029246   
    203. D(O  37,C  35,C  33,O  39)     -1.4768         0.023820   
    204. D(O  37,C  35,C  33,C  30)   -179.1104         0.023820   
    205. D(C  31,C  35,C  33,O  39)    178.1780         0.023820   
    206. D(C  31,C  35,C  33,C  30)      0.5444         0.023820   
    207. D(O  37,C  35,C  31,H  36)     -0.2995         0.026813   
    208. D(O  37,C  35,C  31,C  29)    179.2412         0.026813   
    209. D(C  33,C  35,C  31,H  36)   -179.9322         0.026813   
    210. D(C  33,C  35,C  31,C  29)     -0.3915         0.026813   
    211. D(H  38,O  37,C  35,C  33)   -179.8376         0.029650   
    212. D(H  38,O  37,C  35,C  31)      0.5213         0.029650   
    213. D(C  40,O  39,C  33,C  35)     77.8316         0.025870   
    214. D(C  40,O  39,C  33,C  30)   -104.5345         0.025870   
    215. D(H  43,C  40,O  39,C  33)    -60.0597         0.017871   
    216. D(H  42,C  40,O  39,C  33)   -179.3003         0.017871   
    217. D(H  41,C  40,O  39,C  33)     61.8171         0.017871   
    218. D(H  45,C  44,C  26,O  27)     50.1712         0.013283   
    219. D(H  45,C  44,C  26,C  24)   -128.0016         0.013283   
    220. D(C   4,C  44,C  26,O  27)   -118.0679         0.013283   
    221. D(C   4,C  44,C  26,C  24)     63.7593         0.013283   
    222. D(H  45,C  44,C   4,O   5)   -165.3187         0.016340   
    223. D(H  45,C  44,C   4,C   2)     12.8053         0.016340   
    224. D(C  26,C  44,C   4,O   5)      2.2392         0.016340   
    225. D(C  26,C  44,C   4,C   2)   -179.6368         0.016340   
    226. D(O  47,H  46,O  27,C  26)     32.4974         0.002004   
    227. D(N  49,O  47,H  46,O  27)      2.1509         0.256498   
    228. D(O  48,N  49,O  47,H  46)   -179.2880         0.026953   
    -----------------------------------------------------------------

Number of atoms                         .... 50
Number of degrees of freedom            .... 228


         *************************************************************
         *                GEOMETRY OPTIMIZATION CYCLE   1            *
         *************************************************************
---------------------------------
CARTESIAN COORDINATES (ANGSTROEM)
---------------------------------
  C     -2.520386    0.317902   -0.336573
  H     -2.114395    0.797210   -1.224664
  C     -1.803985    0.324249    0.797701
  H     -2.161663   -0.157743    1.702918
  C     -0.465782    0.924463    0.941555
  O      0.190320    0.744235    1.972576
  C     -3.837152   -0.293767   -0.537526
  C     -4.438442   -0.193263   -1.794279
  C     -4.524862   -0.978083    0.475796
  C     -5.688782   -0.748060   -2.038878
  H     -3.924699    0.330755   -2.594290
  C     -5.767846   -1.533325    0.242900
  H     -4.108295   -1.087234    1.471749
  C     -6.364092   -1.416657   -1.024144
  H     -6.150056   -0.656452   -3.017980
  O     -7.594569   -1.967829   -1.185815
  H     -7.908423   -1.829728   -2.088403
  O     -6.441349   -2.156134    1.265523
  C     -6.421440   -3.586431    1.170552
  H     -5.392555   -3.953287    1.226260
  H     -6.990562   -3.960115    2.019485
  H     -6.885744   -3.920910    0.240664
  C      2.618895    0.258067   -0.112985
  H      1.660927   -0.242283   -0.240393
  C      2.630856    1.596706    0.020214
  H      3.546984    2.167433    0.135719
  C      1.415121    2.391838   -0.030742
  O      1.461370    3.627844   -0.038365
  C      3.773260   -0.634966   -0.113949
  C      3.557161   -2.010952   -0.230458
  C      5.094169   -0.172316   -0.004004
  C      4.619507   -2.905148   -0.228402
  H      2.543363   -2.389070   -0.318060
  C      6.156857   -1.052676   -0.004161
  H      5.319636    0.885000    0.087723
  C      5.923623   -2.435377   -0.111470
  H      4.441541   -3.973382   -0.310035
  O      7.007660   -3.249224   -0.087090
  H      6.738047   -4.172829   -0.169504
  O      7.437437   -0.581539    0.149275
  C      8.188291   -0.568453   -1.072390
  H      7.713088    0.096607   -1.799032
  H      9.177939   -0.191621   -0.821990
  H      8.272090   -1.574656   -1.487930
  C      0.070823    1.767650   -0.117538
  H     -0.560730    2.135139   -0.918068
  H      0.018224    4.573017    0.129099
  O     -0.851168    5.018459    0.299752
  O     -2.577614    4.592133    1.427823
  N     -1.505254    4.183624    1.148058

----------------------------
CARTESIAN COORDINATES (A.U.)
----------------------------
  NO LB      ZA    FRAG     MASS         X           Y           Z
   0 C     6.0000    0    12.011   -4.762839    0.600748   -0.636031
   1 H     1.0000    0     1.008   -3.995627    1.506508   -2.314280
   2 C     6.0000    0    12.011   -3.409038    0.612741    1.507437
   3 H     1.0000    0     1.008   -4.084952   -0.298092    3.218048
   4 C     6.0000    0    12.011   -0.880199    1.746981    1.779281
   5 O     8.0000    0    15.999    0.359652    1.406401    3.727628
   6 C     6.0000    0    12.011   -7.251167   -0.555140   -1.015777
   7 C     6.0000    0    12.011   -8.387439   -0.365214   -3.390697
   8 C     6.0000    0    12.011   -8.550751   -1.848309    0.899125
   9 C     6.0000    0    12.011  -10.750239   -1.413629   -3.852921
  10 H     1.0000    0     1.008   -7.416605    0.625036   -4.902498
  11 C     6.0000    0    12.011  -10.899650   -2.897563    0.459015
  12 H     1.0000    0     1.008   -7.763552   -2.054574    2.781203
  13 C     6.0000    0    12.011  -12.026392   -2.677093   -1.935351
  14 H     1.0000    0     1.008  -11.621921   -1.240514   -5.703155
  15 O     8.0000    0    15.999  -14.351656   -3.718658   -2.240866
  16 H     1.0000    0     1.008  -14.944753   -3.457685   -3.946510
  17 O     8.0000    0    15.999  -12.172385   -4.074503    2.391492
  18 C     6.0000    0    12.011  -12.134763   -6.777373    2.212023
  19 H     1.0000    0     1.008  -10.190451   -7.470630    2.317296
  20 H     1.0000    0     1.008  -13.210248   -7.483533    3.816273
  21 H     1.0000    0     1.008  -13.012170   -7.409446    0.454789
  22 C     6.0000    0    12.011    4.948994    0.487676   -0.213510
  23 H     1.0000    0     1.008    3.138697   -0.457848   -0.454277
  24 C     6.0000    0    12.011    4.971597    3.017337    0.038199
  25 H     1.0000    0     1.008    6.702829    4.095855    0.256472
  26 C     6.0000    0    12.011    2.674191    4.519919   -0.058094
  27 O     8.0000    0    15.999    2.761588    6.855632   -0.072499
  28 C     6.0000    0    12.011    7.130427   -1.199911   -0.215333
  29 C     6.0000    0    12.011    6.722061   -3.800149   -0.435502
  30 C     6.0000    0    12.011    9.626583   -0.325630   -0.007567
  31 C     6.0000    0    12.011    8.729602   -5.489934   -0.431617
  32 H     1.0000    0     1.008    4.806259   -4.514689   -0.601046
  33 C     6.0000    0    12.011   11.634773   -1.989270   -0.007863
  34 H     1.0000    0     1.008   10.052655    1.672408    0.165772
  35 C     6.0000    0    12.011   11.194024   -4.602196   -0.210647
  36 H     1.0000    0     1.008    8.393297   -7.508603   -0.585881
  37 O     8.0000    0    15.999   13.242559   -6.140144   -0.164576
  38 H     1.0000    0     1.008   12.733064   -7.885504   -0.320316
  39 O     8.0000    0    15.999   14.054720   -1.098950    0.282089
  40 C     6.0000    0    12.011   15.473627   -1.074220   -2.026524
  41 H     1.0000    0     1.008   14.575624    0.182560   -3.399678
  42 H     1.0000    0     1.008   17.343791   -0.362111   -1.553337
  43 H     1.0000    0     1.008   15.631985   -2.975668   -2.811780
  44 C     6.0000    0    12.011    0.133835    3.340374   -0.222114
  45 H     1.0000    0     1.008   -1.059627    4.034828   -1.734897
  46 H     1.0000    0     1.008    0.034438    8.641749    0.243962
  47 O     8.0000    0    15.999   -1.608474    9.483513    0.566448
  48 O     8.0000    0    15.999   -4.870985    8.677874    2.698194
  49 N     7.0000    0    14.007   -2.844518    7.905904    2.169515

--------------------------------
INTERNAL COORDINATES (ANGSTROEM)
--------------------------------
 C      0   0   0     0.000000000000     0.00000000     0.00000000
 H      1   0   0     1.087782350379     0.00000000     0.00000000
 C      1   2   0     1.341583784173   119.26689384     0.00000000
 H      3   1   2     1.086124621387   121.78253510   181.15275864
 C      3   1   2     1.473682569627   124.70578076   358.96801517
 O      5   3   1     1.235295063958   120.28834119   188.84231402
 C      1   2   3     1.465740996172   114.03162733   180.53860889
 C      7   1   2     1.396810115222   118.68851740   359.06276782
 C      7   1   2     1.402874199879   123.01940759   179.05147896
 C      8   7   1     1.389596355297   121.12980696   180.34890665
 H      8   7   1     1.085607834461   119.60722625     0.05257135
 C      9   7   1     1.381137951130   121.02951577   179.66681594
 H      9   7   1     1.085064483336   121.59210090     0.08208058
 C     10   8   7     1.390234533668   120.04001175     0.03450804
 H     10   8   7     1.086188620537   120.47146975   179.49250525
 O     14  10   8     1.357940557022   123.26139996   179.12428017
 H     16  14  10     0.965526084646   110.35207686     0.38589060
 O     12   9   7     1.373773693610   119.86452792   182.35921592
 C     18  12   9     1.433584944182   113.34052298   255.26796398
 H     19  18  12     1.093751355657   110.14096779    61.77872372
 H     19  18  12     1.088221336261   106.47872940   180.65244768
 H     19  18  12     1.091854756043   110.86405647   299.90225521
 C      6   5   3     3.237884635890    83.26263754   135.94012636
 H     23   6   5     1.088248287673    58.94830564   311.04717009
 C     23   6   5     1.345302825597    78.08202048    85.15653586
 H     25  23   6     1.085523676401   122.76513260   136.54778987
 C     25  23   6     1.453562217614   122.23589832   314.17470107
 O     27  25  23     1.236894584022   121.03578152   187.20718460
 C     23   6   5     1.459474752604   133.27879090   215.41276355
 C     29  23   6     1.397716651857   118.69466165    67.57481898
 C     29  23   6     1.403899145167   122.85351107   247.51648062
 C     30  29  23     1.388584844231   121.03376669   180.40337740
 H     30  29  23     1.085557530173   119.60491629     0.03332254
 C     31  29  23     1.379978451715   120.95135613   179.75474126
 H     31  29  23     1.084973388922   121.55326877     0.00000000
 C     32  30  29     1.391070279683   119.99263812   359.88658742
 H     32  30  29     1.086028852425   120.52611030   179.42237400
 O     36  32  30     1.355757967494   123.25668133   179.24116025
 H     38  36  32     0.965675112371   110.44833048     0.52134925
 O     34  31  29     1.373098366446   119.95255406   182.17053489
 C     40  34  31     1.434021901795   113.34422053   255.46554092
 H     41  40  34     1.093677530024   110.12442556    61.81706412
 H     41  40  34     1.088166540157   106.45841644   180.69969917
 H     41  40  34     1.091851456379   110.85477191   299.94029868
 C      5   3   1     1.456223291335   119.96356806    10.72899089
 H     45   5   3     1.083861493257   121.25004052    12.80533873
 H     28  27  25     1.733223970274   120.87761511   188.80870830
 O     47  28  27     0.991656538715   172.55075367    32.49735682
 O     48  47  28     2.105923804376   136.05245335     1.61694770
 N     49  48  47     1.181145664979    36.75889201     0.99241262

---------------------------
INTERNAL COORDINATES (A.U.)
---------------------------
 C      0   0   0     0.000000000000     0.00000000     0.00000000
 H      1   0   0     2.055610735530     0.00000000     0.00000000
 C      1   2   0     2.535225937797   119.26689384     0.00000000
 H      3   1   2     2.052478081730   121.78253510   181.15275864
 C      3   1   2     2.784856464929   124.70578076   358.96801517
 O      5   3   1     2.334369365465   120.28834119   188.84231402
 C      1   2   3     2.769849066026   114.03162733   180.53860889
 C      7   1   2     2.639588578861   118.68851740   359.06276782
 C      7   1   2     2.651048038116   123.01940759   179.05147896
 C      8   7   1     2.625956548207   121.12980696   180.34890665
 H      8   7   1     2.051501495970   119.60722625     0.05257135
 C      9   7   1     2.609972480802   121.02951577   179.66681594
 H      9   7   1     2.050474711149   121.59210090     0.08208058
 C     10   8   7     2.627162530552   120.04001175     0.03450804
 H     10   8   7     2.052599022597   120.47146975   179.49250525
 O     14  10   8     2.566135758917   123.26139996   179.12428017
 H     16  14  10     1.824579875138   110.35207686     0.38589060
 O     12   9   7     2.596056050909   119.86452792   182.35921592
 C     18  12   9     2.709082934216   113.34052298   255.26796398
 H     19  18  12     2.066890520797   110.14096779    61.77872372
 H     19  18  12     2.056440298624   106.47872940   180.65244768
 H     19  18  12     2.063306466941   110.86405647   299.90225521
 C      6   5   3     6.118715215064    83.26263754   135.94012636
 H     23   6   5     2.056491229410    58.94830564   311.04717009
 C     23   6   5     2.542253907568    78.08202048    85.15653586
 H     25  23   6     2.051342460285   122.76513260   136.54778987
 C     25  23   6     2.746834509905   122.23589832   314.17470107
 O     27  25  23     2.337392020332   121.03578152   187.20718460
 C     23   6   5     2.758007581793   133.27879090   215.41276355
 C     29  23   6     2.641301684832   118.69466165    67.57481898
 C     29  23   6     2.652984904012   122.85351107   247.51648062
 C     30  29  23     2.624045069309   121.03376669   180.40337740
 H     30  29  23     2.051406434643   119.60491629     0.03332254
 C     31  29  23     2.607781344453   120.95135613   179.75474126
 H     31  29  23     2.050302567655   121.55326877     0.00000000
 C     32  30  29     2.628741861637   119.99263812   359.88658742
 H     32  30  29     2.052297104621   120.52611030   179.42237400
 O     36  32  30     2.562011262446   123.25668133   179.24116025
 H     38  36  32     1.824861496725   110.44833048     0.52134925
 O     34  31  29     2.594779867518   119.95255406   182.17053489
 C     40  34  31     2.709908664438   113.34422053   255.46554092
 H     41  40  34     2.066751010569   110.12442556    61.81706412
 H     41  40  34     2.056336748993   106.45841644   180.69969917
 H     41  40  34     2.063300231479   110.85477191   299.94029868
 C      5   3   1     2.751863210460   119.96356806    10.72899089
 H     45   5   3     2.048201389358   121.25004052    12.80533873
 H     28  27  25     3.275318632565   120.87761511   188.80870830
 O     47  28  27     1.873959277083   172.55075367    32.49735682
 O     48  47  28     3.979619249177   136.05245335     1.61694770
 N     49  48  47     2.232041831078    36.75889201     0.99241262

---------------------
BASIS SET INFORMATION
---------------------
There are 4 groups of distinct atoms

 Group   1 Type C   : 12s6p1d contracted to 5s4p1d pattern {63111/3111/1}
 Group   2 Type H   : 5s contracted to 3s pattern {311}
 Group   3 Type O   : 12s6p1d contracted to 5s4p1d pattern {63111/3111/1}
 Group   4 Type N   : 12s6p1d contracted to 5s4p1d pattern {63111/3111/1}

Atom   0C    basis set group =>   1
Atom   1H    basis set group =>   2
Atom   2C    basis set group =>   1
Atom   3H    basis set group =>   2
Atom   4C    basis set group =>   1
Atom   5O    basis set group =>   3
Atom   6C    basis set group =>   1
Atom   7C    basis set group =>   1
Atom   8C    basis set group =>   1
Atom   9C    basis set group =>   1
Atom  10H    basis set group =>   2
Atom  11C    basis set group =>   1
Atom  12H    basis set group =>   2
Atom  13C    basis set group =>   1
Atom  14H    basis set group =>   2
Atom  15O    basis set group =>   3
Atom  16H    basis set group =>   2
Atom  17O    basis set group =>   3
Atom  18C    basis set group =>   1
Atom  19H    basis set group =>   2
Atom  20H    basis set group =>   2
Atom  21H    basis set group =>   2
Atom  22C    basis set group =>   1
Atom  23H    basis set group =>   2
Atom  24C    basis set group =>   1
Atom  25H    basis set group =>   2
Atom  26C    basis set group =>   1
Atom  27O    basis set group =>   3
Atom  28C    basis set group =>   1
Atom  29C    basis set group =>   1
Atom  30C    basis set group =>   1
Atom  31C    basis set group =>   1
Atom  32H    basis set group =>   2
Atom  33C    basis set group =>   1
Atom  34H    basis set group =>   2
Atom  35C    basis set group =>   1
Atom  36H    basis set group =>   2
Atom  37O    basis set group =>   3
Atom  38H    basis set group =>   2
Atom  39O    basis set group =>   3
Atom  40C    basis set group =>   1
Atom  41H    basis set group =>   2
Atom  42H    basis set group =>   2
Atom  43H    basis set group =>   2
Atom  44C    basis set group =>   1
Atom  45H    basis set group =>   2
Atom  46H    basis set group =>   2
Atom  47O    basis set group =>   3
Atom  48O    basis set group =>   3
Atom  49N    basis set group =>   4
---------------------------------
AUXILIARY/J BASIS SET INFORMATION
---------------------------------
There are 4 groups of distinct atoms

 Group   1 Type C   : 12s5p4d2f1g contracted to 6s4p3d1f1g pattern {711111/2111/211/2/1}
 Group   2 Type H   : 5s2p1d contracted to 3s1p1d pattern {311/2/1}
 Group   3 Type O   : 12s5p4d2f1g contracted to 6s4p3d1f1g pattern {711111/2111/211/2/1}
 Group   4 Type N   : 12s5p4d2f1g contracted to 6s4p3d1f1g pattern {711111/2111/211/2/1}

Atom   0C    basis set group =>   1
Atom   1H    basis set group =>   2
Atom   2C    basis set group =>   1
Atom   3H    basis set group =>   2
Atom   4C    basis set group =>   1
Atom   5O    basis set group =>   3
Atom   6C    basis set group =>   1
Atom   7C    basis set group =>   1
Atom   8C    basis set group =>   1
Atom   9C    basis set group =>   1
Atom  10H    basis set group =>   2
Atom  11C    basis set group =>   1
Atom  12H    basis set group =>   2
Atom  13C    basis set group =>   1
Atom  14H    basis set group =>   2
Atom  15O    basis set group =>   3
Atom  16H    basis set group =>   2
Atom  17O    basis set group =>   3
Atom  18C    basis set group =>   1
Atom  19H    basis set group =>   2
Atom  20H    basis set group =>   2
Atom  21H    basis set group =>   2
Atom  22C    basis set group =>   1
Atom  23H    basis set group =>   2
Atom  24C    basis set group =>   1
Atom  25H    basis set group =>   2
Atom  26C    basis set group =>   1
Atom  27O    basis set group =>   3
Atom  28C    basis set group =>   1
Atom  29C    basis set group =>   1
Atom  30C    basis set group =>   1
Atom  31C    basis set group =>   1
Atom  32H    basis set group =>   2
Atom  33C    basis set group =>   1
Atom  34H    basis set group =>   2
Atom  35C    basis set group =>   1
Atom  36H    basis set group =>   2
Atom  37O    basis set group =>   3
Atom  38H    basis set group =>   2
Atom  39O    basis set group =>   3
Atom  40C    basis set group =>   1
Atom  41H    basis set group =>   2
Atom  42H    basis set group =>   2
Atom  43H    basis set group =>   2
Atom  44C    basis set group =>   1
Atom  45H    basis set group =>   2
Atom  46H    basis set group =>   2
Atom  47O    basis set group =>   3
Atom  48O    basis set group =>   3
Atom  49N    basis set group =>   4
------------------------------------------------------------------------------
                             ORCA STARTUP CALCULATIONS
                           -- RI-GTO INTEGRALS CHOSEN --
------------------------------------------------------------------------------
------------------------------------------------------------------------------
                   ___                                                        
                  /   \      - P O W E R E D   B Y -                         
                 /     \                                                     
                 |  |  |   _    _      __       _____    __    __             
                 |  |  |  | |  | |    /  \     |  _  \  |  |  /  |          
                  \  \/   | |  | |   /    \    | | | |  |  | /  /          
                 / \  \   | |__| |  /  /\  \   | |_| |  |  |/  /          
                |  |  |   |  __  | /  /__\  \  |    /   |      \           
                |  |  |   | |  | | |   __   |  |    \   |  |\   \          
                \     /   | |  | | |  |  |  |  | |\  \  |  | \   \       
                 \___/    |_|  |_| |__|  |__|  |_| \__\ |__|  \__/        
                                                                              
                      - O R C A' S   B I G   F R I E N D -                    
                                      &                                       
                       - I N T E G R A L  F E E D E R -                       
                                                                              
 v1 FN, 2020, v2 2021, v3 2022-2024                                           
------------------------------------------------------------------------------


----------------------
SHARK INTEGRAL PACKAGE
----------------------

Number of atoms                             ...     50
Number of basis functions                   ...    720
Number of shells                            ...    360
Maximum angular momentum                    ...      2
Integral batch strategy                     ... SHARK/LIBINT Hybrid
RI-J (if used) integral strategy            ... SPLIT-RIJ (Revised 2003 algorithm where possible)
Printlevel                                  ...      1
Contraction scheme used                     ... SEGMENTED contraction
Prescreening option                         ... SCHWARTZ
   Thresh                                   ... 2.500e-11
   Tcut                                     ... 2.500e-12
   Tpresel                                  ... 2.500e-12 
Coulomb Range Separation                    ... NOT USED
Exchange Range Separation                   ... Long Range
   Mu parameter                             ... 3.000e-01
   Scaling (regular/separated)              ... 1.500e-01 8.500e-01
Multipole approximations                    ... NOT USED
Finite Nucleus Model                        ... NOT USED
CABS basis                                  ... NOT available
Auxiliary Coulomb fitting basis             ... AVAILABLE
   # of basis functions in Aux-J            ...   1690
   # of shells in Aux-J                     ...    550
   Maximum angular momentum in Aux-J        ...      4
Auxiliary J/K fitting basis                 ... NOT available
Auxiliary Correlation fitting basis         ... NOT available
Auxiliary 'external' fitting basis          ... NOT available

Checking pre-screening integrals            ... done (  0.0 sec) Dimension = 360
Check shell pair data                       ... done (  0.0 sec)
Shell pair information
Shell pair cut-off parameter TPreSel        ...   2.5e-12
Total number of shell pairs                 ...     64980
Shell pairs after pre-screening             ...     39145
Total number of primitive shell pairs       ...    225475
Primitive shell pairs kept                  ...     85156
          la=0 lb=0:  12534 shell pairs
          la=1 lb=0:  16129 shell pairs
          la=1 lb=1:   5127 shell pairs
          la=2 lb=0:   3080 shell pairs
          la=2 lb=1:   2081 shell pairs
          la=2 lb=2:    194 shell pairs

Calculating one electron integrals          ... done (  0.2 sec)
Calculating RI/J V-Matrix + Cholesky decomp.... done (  0.5 sec)
Calculating Nuclear repulsion               ... done (  0.0 sec) ENN=   2595.007076410946 Eh

Diagonalization of the overlap matrix:
Smallest eigenvalue                        ... 1.350e-07
Time for diagonalization                   ...    0.051 sec
Threshold for overlap eigenvalues          ... 1.000e-07
Number of eigenvalues below threshold      ... 0

IMPORTANT:
Smallest eigenvalue of S below the DiffSThresh (1.000e-06) while
Thresh>1e-12 and/or TCut>1e-13! In order to avoid SCF convergence issues,
Thresh will be set to at least 1e-12 and TCut to at least 1e-13.
This can be turned off by adding %SCF DiffSThresh -1 END to the input.

Time for construction of square roots      ...    0.065 sec
Total time needed                          ...    0.125 sec

-------------------
DFT GRID GENERATION
-------------------

General Integration Accuracy     IntAcc      ... 4.388
Radial Grid Type                 RadialGrid  ... OptM3 with GC (2021)
Angular Grid (max. ang.)         AngularGrid ... 4 (Lebedev-302)
Angular grid pruning method      GridPruning ... 4 (adaptive)
Weight generation scheme         WeightScheme... mBecke (2022)
Basis function cutoff            BFCut       ... 1.0000e-11
Integration weight cutoff        WCut        ... 1.0000e-14
Partially contracted basis set               ... off
Rotationally invariant grid construction     ... off
Angular grids for H and He will be reduced by one unit
Diffuse basis detected: some atoms will have their outermost
                        angular grid increased by 1.

Total number of grid points                  ...   251719
Total number of batches                      ...     3959
Average number of points per batch           ...       63
Average number of grid points per atom       ...     5034

------------------
NL GRID GENERATION
------------------

General Integration Accuracy     IntAcc      ... 4.004
Radial Grid Type                 RadialGrid  ... OptM3 with GC (2021)
Angular Grid (max. ang.)         AngularGrid ... 2 (Lebedev-110)
Angular grid pruning method      GridPruning ... 4 (adaptive)
Weight generation scheme         WeightScheme... mBecke (2022)
Basis function cutoff            BFCut       ... 1.0000e-10
Integration weight cutoff        WCut        ... 1.0000e-14
Partially contracted basis set               ... off
Rotationally invariant grid construction     ... off
Angular grids for H and He will be reduced by one unit
Diffuse basis detected: some atoms will have their outermost
                        angular grid increased by 1.

Total number of grid points                  ...    83777
Total number of batches                      ...     1335
Average number of points per batch           ...       62
Average number of grid points per atom       ...     1676
Initializing property integral containers    ... done (  0.0 sec)

SHARK setup successfully completed in   5.5 seconds

Maximum memory used throughout the entire STARTUP-calculation: 138.4 MB
-------------------------------------------------------------------------------
                                 ORCA GUESS
                   Start orbitals & Density for SCF / CASSCF
-------------------------------------------------------------------------------

------------
SCF SETTINGS
------------
Hamiltonian:
 Density Functional     Method          .... DFT(GTOs)
  Functional kind                       .... Exchange-Correlation
  Functional name                       .... wB97M-V exchange-correlation functional
  Functional family                     .... Hybrid MGGA
  Functional refs                              
    [ 0] N. Mardirossian and M. Head-Gordon.,  J. Chem. Phys. 144, 214110 (2016), doi: 10.1063/1.4952647
  Fraction of HF Exchange (short range) .... 0.1500
  Fraction of HF Exchange (long range)  .... 1.0000
  Range separation parameter mu         .... 0.3000
  Functional external parameters        .... 17
    Parameter  0 _cx00      =  8.500000e-01 : u^00 coefficient for exchange
    Parameter  1 _cx01      =  1.007000e+00 : u^01 coefficient for exchange
    Parameter  2 _cx10      =  2.590000e-01 : u^10 coefficient for exchange
    Parameter  3 _css00     =  4.430000e-01 : u^00 coefficient for same-spin correlation
    Parameter  4 _css04     = -1.437000e+00 : u^04 coefficient for same-spin correlation
    Parameter  5 _css10     = -4.535000e+00 : u^10 coefficient for same-spin correlation
    Parameter  6 _css20     = -3.390000e+00 : u^20 coefficient for same-spin correlation
    Parameter  7 _css43     =  4.278000e+00 : u^43 coefficient for same-spin correlation
    Parameter  8 _cos00     =  1.000000e+00 : u^00 coefficient for opposite-spin correlation
    Parameter  9 _cos10     =  1.358000e+00 : u^10 coefficient for opposite-spin correlation
    Parameter 10 _cos20     =  2.924000e+00 : u^20 coefficient for opposite-spin correlation
    Parameter 11 _cos21     = -8.812000e+00 : u^21 coefficient for opposite-spin correlation
    Parameter 12 _cos60     = -1.390000e+00 : u^60 coefficient for opposite-spin correlation
    Parameter 13 _cos61     =  9.142000e+00 : u^61 coefficient for opposite-spin correlation
    Parameter 14 _alpha     =  1.000000e+00 : fraction of HF exchange
    Parameter 15 _beta      = -8.500000e-01 : fraction of short-range exchange
    Parameter 16 _omega     =  3.000000e-01 : range-separation constant
 Long-range corrected/Screened/Range-Separated Hybrid DFT is turned on
   Amount of maximum screened exact exchange              ....  0.850000
   Range separation parameter mu (erf(mu*r12)/r12)        ....  0.300000
   NL short-range parameter             ....  6.000000
   NL long-range parameter              ....  0.010000
 RI-approximation to the Coulomb term is turned on
   Number of AuxJ basis functions       .... 1690
   RIJ-ON(X) (HFX calculated with O(N)) .... on


General Settings:
 Integral files         IntName         .... CURCUMIN-OPT-FREQ-Prod-WB97M-V-6-311+G-D-363
 Hartree-Fock type      HFTyp           .... UHF
 Total Charge           Charge          ....    0
 Multiplicity           Mult            ....    2
 Number of Electrons    NEL             ....  217
 Basis Dimension        Dim             ....  720
 Nuclear Repulsion      ENuc            ....   2595.0070764109 Eh

Convergence Acceleration:
 AO-DIIS                CNVDIIS         .... on
   Start iteration      DIISMaxIt       ....    12
   Startup error        DIISStart       ....  0.200000
   # of expansion vecs  DIISMaxEq       ....     5
   Bias factor          DIISBfac        ....   1.050
   Max. coefficient     DIISMaxC        ....  10.000
 MO-DIIS                CNVKDIIS        .... off
 Trust-Rad. Augm. Hess. CNVTRAH         .... off
 SOSCF                  CNVSOSCF        .... on
   Start iteration      SOSCFMaxIt      ....   150
   Startup grad/error   SOSCFStart      ....  0.003300
   Hessian update       SOSCFHessUp     .... L-BFGS
 Level Shifting         CNVShift        .... on
   Level shift para.    LevelShift      ....    0.2500
   Turn off err/grad.   ShiftErr        ....    0.0010
 Zerner damping         CNVZerner       .... off
 Static damping         CNVDamp         .... on
   Fraction old density DampFac         ....    0.7000
   Max. Damping (<1)    DampMax         ....    0.9800
   Min. Damping (>=0)   DampMin         ....    0.0000
   Turn off err/grad.   DampErr         ....    0.1000

SCF Procedure:
 Maximum # iterations   MaxIter         ....   125
 SCF integral mode      SCFMode         .... Direct
   Integral package                     .... SHARK and LIBINT hybrid scheme
 Reset frequency        DirectResetFreq ....    20
 Integral Threshold     Thresh          ....  1.000e-12 Eh
 Primitive CutOff       TCut            ....  1.000e-13 Eh

Convergence Tolerance:
 Convergence Check Mode ConvCheckMode   .... Total+1el-Energy
 Convergence forced     ConvForced      .... 0
 Energy Change          TolE            ....  1.000e-08 Eh
 1-El. energy change                    ....  1.000e-05 Eh
 Orbital Gradient       TolG            ....  1.000e-05
 Orbital Rotation angle TolX            ....  1.000e-05
 DIIS Error             TolErr          ....  5.000e-07

------------------------------
INITIAL GUESS: MODEL POTENTIAL
------------------------------
Loading Hartree-Fock densities                     ... done
Calculating cut-offs                               ... done
Initializing the effective Hamiltonian             ... done
Setting up the integral package (SHARK)            ... done
Starting the Coulomb interaction                   ... done (   1.9 sec)
Making the grid                                    ... done (   0.8 sec)
Mapping shells                                     ... done
Starting the XC term evaluation                    ... done (   0.9 sec)
  promolecular density results
     # of electrons  =    216.987656935
     EX              =   -185.021542854
     EC              =     -7.289227112
     EX+EC           =   -192.310769966
Transforming the Hamiltonian                       ... done (   0.0 sec)
Diagonalizing the Hamiltonian                      ... done (   0.1 sec)
Back transforming the eigenvectors                 ... done (   0.1 sec)
Now organizing SCF variables                       ... done
                      ------------------
                      INITIAL GUESS DONE (   4.2 sec)
                      ------------------
             **** ENERGY FILE WAS UPDATED (CURCUMIN-OPT-FREQ-Prod-WB97M-V-6-311+G-D-363.en.tmp) ****
Finished Guess after   5.0 sec
Maximum memory used throughout the entire GUESS-calculation: 90.6 MB

-------------------------------------------------------------------------------------------
                                      ORCA LEAN-SCF
                              memory conserving SCF solver
-------------------------------------------------------------------------------------------

--------------------
CPCM SOLVATION MODEL
--------------------
CPCM parameters:
  Epsilon                                         ...       7.0000
  Refrac                                          ...       1.8534
  Rsolv                                           ...       1.3000
  Surface type                                    ... GAUSSIAN VDW
  Discretization scheme                           ... Constant charge density
    Threshold for H atoms                         ...       5.0000 (charges/Ang^2)
    Threshold for non-H atoms                     ...       5.0000 (charges/Ang^2)
  Epsilon function type                           ...         CPCM
Solvent:                                          ... CUSTOM
Radii:
  Scheme                                          ... Element-dependent radii
  Radius for C  used is    3.8550 Bohr (=   2.0400 Ang.)
  Radius for H  used is    2.4944 Bohr (=   1.3200 Ang.)
  Radius for O  used is    3.4469 Bohr (=   1.8240 Ang.)
  Radius for N  used is    3.5149 Bohr (=   1.8600 Ang.)
Calculating surface                               ...        done! (  0.0s)
Cavity surface points                             ...         4526
Cavity Volume                                     ...    3262.3425
Cavity Surface-area                               ...    1712.4012
Calculating surface distance matrix               ...        done! (  0.1s)
Performing Cholesky decomposition & store         ...        done! (  2.0s)
Overall time for CPCM initialization              ...                 2.1s

----------------------------------------D-I-I-S--------------------------------------------
Iteration    Energy (Eh)           Delta-E    RMSDP     MaxDP     DIISErr   Damp  Time(sec)
-------------------------------------------------------------------------------------------
               ***  Starting incremental Fock matrix formation  ***
    1    -1467.8349388496974370     0.00e+00  2.50e-02  4.58e+00  1.60e-01  0.700 232.7
    2    -1468.1120496480577913    -2.77e-01  1.79e-02  3.45e+00  7.60e-02  0.700 212.7
                               ***Turning on AO-DIIS***
    3    -1468.2502651556446835    -1.38e-01  2.08e-02  4.28e+00  2.78e-02  0.700 212.2
    4    -1468.3357480175691308    -8.55e-02  5.90e-02  1.15e+01  2.05e-02  0.000 206.7
    5    -1468.5276854282139993    -1.92e-01  5.40e-03  1.29e+00  4.73e-03  0.000 216.4
    6    -1468.5304605097180684    -2.78e-03  2.76e-03  7.16e-01  3.45e-03  0.000 194.5
                              *** Initializing SOSCF ***
---------------------------------------S-O-S-C-F--------------------------------------
Iteration    Energy (Eh)           Delta-E    RMSDP     MaxDP     MaxGrad    Time(sec)
--------------------------------------------------------------------------------------
    7    -1468.5319595524247234    -1.50e-03  3.38e-03  7.72e-01  2.78e-03   189.2
               *** Restarting incremental Fock matrix formation ***
    8    -1468.5331164960848582    -1.16e-03  3.04e-03  5.67e-01  5.65e-03   225.4
    9    -1468.5336423877938614    -5.26e-04  4.81e-03  7.53e-01  2.98e-03   185.0
   10    -1468.5338999167502152    -2.58e-04  9.66e-04  1.70e-01  1.20e-03   190.5
   11    -1468.5339633408859754    -6.34e-05  8.64e-04  1.07e-01  9.60e-04   176.3
   12    -1468.5339856145253634    -2.23e-05  1.19e-03  1.75e-01  3.90e-04   171.9
   13    -1468.5340007328563843    -1.51e-05  7.35e-04  9.44e-02  2.49e-04   169.9
   14    -1468.5340073532177030    -6.62e-06  1.29e-03  2.14e-01  1.30e-04   168.5
   15    -1468.5340088484094849    -1.50e-06  6.15e-04  1.30e-01  9.44e-05   166.5
   16    -1468.5340095565004503    -7.08e-07  1.14e-03  1.81e-01  4.06e-05   165.4
   17    -1468.5340097024977695    -1.46e-07  6.83e-04  1.16e-01  2.96e-05   167.1
   18    -1468.5340098031870184    -1.01e-07  1.45e-03  1.94e-01  1.86e-05   161.8
   19    -1468.5340098629462773    -5.98e-08  7.34e-04  9.93e-02  1.20e-05   163.2
   20    -1468.5340098596659573     3.28e-09  9.90e-04  2.02e-01  3.99e-06   161.6
                 **** Energy Check signals convergence ****

               *****************************************************
               *                     SUCCESS                       *
               *           SCF CONVERGED AFTER  20 CYCLES          *
               *****************************************************

             **** ENERGY FILE WAS UPDATED (CURCUMIN-OPT-FREQ-Prod-WB97M-V-6-311+G-D-363.en.tmp) ****

----------------
TOTAL SCF ENERGY
----------------

Total Energy       :      -1468.53400985966596 Eh          -39960.84198 eV

Components:
Nuclear Repulsion  :       2595.00707641094550 Eh           70613.73248 eV
Electronic Energy  :      -4064.31440274958140 Eh         -110595.61747 eV
One Electron Energy:      -7159.19093001070723 Eh         -194811.48923 eV
Two Electron Energy:       3094.87652726112583 Eh           84215.87176 eV
CPCM Dielectric    :         -0.04993393683520 Eh              -1.35877 eV

Virial components:
Potential Energy   :      -2933.35781536639479 Eh          -79820.72416 eV
Kinetic Energy     :       1464.82380550672860 Eh           39859.88219 eV
Virial Ratio       :          2.00253286732438

DFT components:
N(Alpha)           :      109.000038354603 electrons
N(Beta)            :      108.000033108824 electrons
N(Total)           :      217.000071463426 electrons
NL Energy, E(C,NL) :        0.823250415805 Eh       
E(XC)              :     -139.417706641213 Eh       

CPCM Solvation Model Properties:
Surface-charge          :         -0.03924411697597
Corrected charge        :         -0.00000000000000
Outlying charge corr.   :          0.00005831261332 Eh               0.00159 eV
Free-energy (cav+disp)  :  This term is not implemented in the current solvation scheme

---------------
SCF CONVERGENCE
---------------

  Last Energy change         ...   -3.2803e-09  Tolerance :   1.0000e-08
  Last MAX-Density change    ...    2.0247e-01  Tolerance :   1.0000e-07
  Last RMS-Density change    ...    9.8954e-04  Tolerance :   5.0000e-09
  Last DIIS Error            ...    2.7849e-03  Tolerance :   5.0000e-07
  Last Orbital Gradient      ...    3.9877e-06  Tolerance :   1.0000e-05
  Last Orbital Rotation      ...    1.9834e-05  Tolerance :   1.0000e-05


----------------------
UHF SPIN CONTAMINATION
----------------------

Warning: in a DFT calculation there is little theoretical justification to 
         calculate <S**2> as in Hartree-Fock theory. We will do it anyways
         but you should keep in mind that the values have only limited relevance

Expectation value of <S**2>     :     0.761094
Ideal value S*(S+1) for S=0.5   :     0.750000
Deviation                       :     0.011094

----------------
ORBITAL ENERGIES
----------------
                 SPIN UP ORBITALS
  NO   OCC          E(Eh)            E(eV) 
   0   1.0000     -19.403475      -527.9954 
   1   1.0000     -19.397398      -527.8300 
   2   1.0000     -19.379798      -527.3511 
   3   1.0000     -19.377428      -527.2866 
   4   1.0000     -19.359324      -526.7940 
   5   1.0000     -19.358118      -526.7612 
   6   1.0000     -19.354378      -526.6594 
   7   1.0000     -19.337761      -526.2072 
   8   1.0000     -14.691264      -399.7696 
   9   1.0000     -10.467924      -284.8467 
  10   1.0000     -10.452572      -284.4290 
  11   1.0000     -10.431412      -283.8532 
  12   1.0000     -10.427851      -283.7562 
  13   1.0000     -10.414481      -283.3924 
  14   1.0000     -10.412520      -283.3391 
  15   1.0000     -10.403012      -283.0804 
  16   1.0000     -10.390323      -282.7351 
  17   1.0000     -10.386039      -282.6185 
  18   1.0000     -10.385283      -282.5979 
  19   1.0000     -10.381867      -282.5050 
  20   1.0000     -10.371828      -282.2318 
  21   1.0000     -10.369701      -282.1739 
  22   1.0000     -10.367696      -282.1193 
  23   1.0000     -10.365497      -282.0595 
  24   1.0000     -10.364363      -282.0286 
  25   1.0000     -10.362368      -281.9744 
  26   1.0000     -10.361982      -281.9639 
  27   1.0000     -10.361805      -281.9591 
  28   1.0000     -10.359975      -281.9093 
  29   1.0000     -10.359779      -281.9039 
  30   1.0000      -1.364384       -37.1268 
  31   1.0000      -1.218540       -33.1582 
  32   1.0000      -1.215878       -33.0857 
  33   1.0000      -1.206095       -32.8195 
  34   1.0000      -1.192986       -32.4628 
  35   1.0000      -1.189043       -32.3555 
  36   1.0000      -1.187449       -32.3121 
  37   1.0000      -1.185993       -32.2725 
  38   1.0000      -1.007424       -27.4134 
  39   1.0000      -1.004354       -27.3299 
  40   1.0000      -0.957290       -26.0492 
  41   1.0000      -0.945977       -25.7413 
  42   1.0000      -0.911050       -24.7909 
  43   1.0000      -0.893290       -24.3077 
  44   1.0000      -0.890876       -24.2420 
  45   1.0000      -0.881815       -23.9954 
  46   1.0000      -0.861883       -23.4530 
  47   1.0000      -0.815507       -22.1911 
  48   1.0000      -0.814084       -22.1524 
  49   1.0000      -0.810721       -22.0608 
  50   1.0000      -0.795988       -21.6599 
  51   1.0000      -0.785678       -21.3794 
  52   1.0000      -0.757516       -20.6130 
  53   1.0000      -0.745919       -20.2975 
  54   1.0000      -0.714276       -19.4364 
  55   1.0000      -0.710276       -19.3276 
  56   1.0000      -0.698753       -19.0140 
  57   1.0000      -0.688649       -18.7391 
  58   1.0000      -0.676574       -18.4105 
  59   1.0000      -0.672965       -18.3123 
  60   1.0000      -0.654186       -17.8013 
  61   1.0000      -0.638000       -17.3609 
  62   1.0000      -0.633690       -17.2436 
  63   1.0000      -0.630544       -17.1580 
  64   1.0000      -0.627166       -17.0661 
  65   1.0000      -0.622215       -16.9313 
  66   1.0000      -0.618170       -16.8213 
  67   1.0000      -0.600766       -16.3477 
  68   1.0000      -0.596074       -16.2200 
  69   1.0000      -0.590823       -16.0771 
  70   1.0000      -0.582576       -15.8527 
  71   1.0000      -0.581121       -15.8131 
  72   1.0000      -0.580982       -15.8093 
  73   1.0000      -0.570269       -15.5178 
  74   1.0000      -0.557112       -15.1598 
  75   1.0000      -0.553423       -15.0594 
  76   1.0000      -0.550324       -14.9751 
  77   1.0000      -0.546774       -14.8785 
  78   1.0000      -0.542192       -14.7538 
  79   1.0000      -0.539857       -14.6903 
  80   1.0000      -0.535356       -14.5678 
  81   1.0000      -0.532691       -14.4953 
  82   1.0000      -0.528457       -14.3801 
  83   1.0000      -0.524099       -14.2615 
  84   1.0000      -0.515739       -14.0340 
  85   1.0000      -0.511338       -13.9142 
  86   1.0000      -0.492232       -13.3943 
  87   1.0000      -0.489037       -13.3074 
  88   1.0000      -0.487420       -13.2634 
  89   1.0000      -0.483707       -13.1623 
  90   1.0000      -0.483382       -13.1535 
  91   1.0000      -0.481569       -13.1042 
  92   1.0000      -0.475997       -12.9525 
  93   1.0000      -0.473394       -12.8817 
  94   1.0000      -0.452988       -12.3264 
  95   1.0000      -0.450393       -12.2558 
  96   1.0000      -0.448842       -12.2136 
  97   1.0000      -0.411414       -11.1951 
  98   1.0000      -0.402477       -10.9520 
  99   1.0000      -0.400457       -10.8970 
 100   1.0000      -0.392399       -10.6777 
 101   1.0000      -0.391322       -10.6484 
 102   1.0000      -0.384871       -10.4729 
 103   1.0000      -0.380618       -10.3571 
 104   1.0000      -0.359395        -9.7796 
 105   1.0000      -0.353760        -9.6263 
 106   1.0000      -0.351093        -9.5537 
 107   1.0000      -0.313664        -8.5352 
 108   1.0000      -0.308627        -8.3982 
 109   0.0000      -0.022015        -0.5991 
 110   0.0000       0.000861         0.0234 
 111   0.0000       0.017293         0.4706 
 112   0.0000       0.030834         0.8390 
 113   0.0000       0.037097         1.0095 
 114   0.0000       0.041778         1.1368 
 115   0.0000       0.043860         1.1935 
 116   0.0000       0.046212         1.2575 
 117   0.0000       0.047297         1.2870 
 118   0.0000       0.050285         1.3683 
 119   0.0000       0.053862         1.4657 

                 SPIN DOWN ORBITALS
  NO   OCC          E(Eh)            E(eV) 
   0   1.0000     -19.403436      -527.9943 
   1   1.0000     -19.397361      -527.8290 
   2   1.0000     -19.379786      -527.3508 
   3   1.0000     -19.377407      -527.2860 
   4   1.0000     -19.359325      -526.7940 
   5   1.0000     -19.358119      -526.7612 
   6   1.0000     -19.352323      -526.6035 
   7   1.0000     -19.332591      -526.0665 
   8   1.0000     -14.691035      -399.7634 
   9   1.0000     -10.468694      -284.8676 
  10   1.0000     -10.453978      -284.4672 
  11   1.0000     -10.431390      -283.8526 
  12   1.0000     -10.427812      -283.7552 
  13   1.0000     -10.414489      -283.3927 
  14   1.0000     -10.412538      -283.3396 
  15   1.0000     -10.391621      -282.7704 
  16   1.0000     -10.390131      -282.7298 
  17   1.0000     -10.386040      -282.6185 
  18   1.0000     -10.385284      -282.5979 
  19   1.0000     -10.381779      -282.5026 
  20   1.0000     -10.371827      -282.2318 
  21   1.0000     -10.369712      -282.1742 
  22   1.0000     -10.367677      -282.1188 
  23   1.0000     -10.365470      -282.0588 
  24   1.0000     -10.364330      -282.0278 
  25   1.0000     -10.362338      -281.9735 
  26   1.0000     -10.361813      -281.9593 
  27   1.0000     -10.361811      -281.9592 
  28   1.0000     -10.359988      -281.9096 
  29   1.0000     -10.359576      -281.8984 
  30   1.0000      -1.364247       -37.1230 
  31   1.0000      -1.218520       -33.1576 
  32   1.0000      -1.215843       -33.0848 
  33   1.0000      -1.203093       -32.7378 
[...]
108:   1382.28   0.035140  177.58  0.007933  (-0.081214  0.036500 -0.002275)
109:   1420.77   0.063903  322.94  0.014036  ( 0.112935  0.024883 -0.025739)
110:   1463.73   0.000663    3.35  0.000141  (-0.003796 -0.008237  0.007687)
111:   1468.28   0.001333    6.74  0.000283  (-0.015872  0.004941 -0.002641)
112:   1476.91   0.068539  346.37  0.014482  ( 0.080543  0.058847 -0.067318)
113:   1483.19   0.003139   15.87  0.000661  (-0.018836 -0.001176 -0.017446)
114:   1483.31   0.003852   19.47  0.000810  (-0.010564  0.026430 -0.000539)
115:   1492.14   0.007859   39.72  0.001644  ( 0.022286  0.028488 -0.018315)
116:   1492.83   0.010284   51.97  0.002150  ( 0.046237 -0.001953  0.002856)
117:   1493.62   0.005771   29.16  0.001206  ( 0.032854 -0.007056 -0.008744)
118:   1496.21   0.000781    3.95  0.000163  ( 0.009122  0.000646 -0.008908)
119:   1560.87   0.112072  566.37  0.022406  ( 0.145404 -0.035496 -0.002035)
120:   1561.35   0.046951  237.27  0.009384  (-0.044564 -0.085544  0.008962)
121:   1624.06   0.246132  1243.85  0.047294  (-0.144391  0.147044 -0.069452)
122:   1641.07   0.259691  1312.37  0.049382  ( 0.026326 -0.211493 -0.062930)
123:   1663.94   0.010888   55.03  0.002042  (-0.005924  0.044799  0.000188)
124:   1666.51   0.009127   46.12  0.001709  (-0.020686  0.004730 -0.035479)
125:   1680.49   0.025046  126.57  0.004651  (-0.063657  0.018255 -0.016295)
126:   1683.88   0.030964  156.48  0.005738  ( 0.067437  0.018330  0.029233)
127:   1702.31   0.058223  294.24  0.010673  ( 0.070094 -0.075803 -0.003747)
128:   1718.70   0.094466  477.39  0.017152  (-0.112855 -0.033138 -0.057599)
129:   1758.81   0.040617  205.26  0.007207  ( 0.078663 -0.008227 -0.030840)
130:   3043.77   0.013371   67.57  0.001371  ( 0.005044 -0.036584  0.002659)
131:   3045.95   0.013387   67.65  0.001372  ( 0.020953  0.007183 -0.029680)
132:   3122.23   0.008488   42.89  0.000848  ( 0.026476  0.005079  0.011026)
133:   3122.95   0.008321   42.05  0.000832  ( 0.014824 -0.024518  0.003258)
134:   3168.09   0.007328   37.03  0.000722  (-0.023318 -0.009709 -0.009157)
135:   3168.18   0.006918   34.96  0.000681  (-0.012215 -0.006627  0.022098)
136:   3168.89   0.001045    5.28  0.000103  (-0.009012 -0.004286 -0.001823)
137:   3173.89   0.001930    9.75  0.000190  ( 0.008425  0.007416 -0.007988)
138:   3181.55   0.002873   14.52  0.000282  (-0.013245  0.010301 -0.000510)
139:   3181.61   0.003024   15.28  0.000297  (-0.015524 -0.007032 -0.002480)
140:   3191.43   0.001188    6.00  0.000116  ( 0.008033  0.005576 -0.004532)
141:   3197.10   0.001998   10.10  0.000195  (-0.003042 -0.013530 -0.001641)
142:   3197.30   0.001316    6.65  0.000128  ( 0.011118  0.001199  0.001843)
143:   3197.54   0.002760   13.95  0.000269  ( 0.000418 -0.004811  0.015685)
144:   3203.73   0.001215    6.14  0.000118  ( 0.002596  0.005251 -0.009170)
145:   3206.86   0.001518    7.67  0.000148  (-0.011449 -0.004075 -0.000050)
146:   3222.78   0.000054    0.28  0.000005  ( 0.001319 -0.000078 -0.001879)
147:   3284.66   0.416825  2106.46  0.039601  (-0.152708  0.121712  0.038306)
148:   3800.11   0.038703  195.59  0.003178  ( 0.041926  0.006222  0.037171)
149:   3801.51   0.039685  200.55  0.003258  ( 0.015665 -0.054801 -0.003012)

* The epsilon (eps) is given for a Dirac delta lineshape.
** The dipole moment derivative (T) already includes vibrational overlap.

The first frequency considered to be a vibration is 6
The total number of vibrations considered is 144


--------------------------
THERMOCHEMISTRY AT 363.15K
--------------------------

Temperature         ...   363.15 K
Pressure            ...     1.00 atm
Total Mass          ...   414.39 AMU
Quasi RRHO          ...     True
Cut-Off Frequency   ...     1.00 cm^-1

Throughout the following assumptions are being made:
  (1) The electronic state is orbitally nondegenerate
      but the spin degeneracy is treated
  (2) There are no thermally accessible electronically excited states
  (3) Hindered rotations indicated by low frequency modes are not
      treated as such but are treated as vibrations and this may
      cause some error
  (4) All equations used are the standard statistical mechanics
      equations for an ideal gas
  (5) All vibrations are strictly harmonic

freq.       7.64  E(vib)   ...       0.71 
freq.      15.97  E(vib)   ...       0.70 
freq.      20.19  E(vib)   ...       0.69 
freq.      26.18  E(vib)   ...       0.68 
freq.      30.73  E(vib)   ...       0.68 
freq.      32.69  E(vib)   ...       0.68 
freq.      50.84  E(vib)   ...       0.65 
freq.      53.35  E(vib)   ...       0.65 
freq.      56.51  E(vib)   ...       0.64 
freq.      62.68  E(vib)   ...       0.64 
freq.      75.68  E(vib)   ...       0.62 
freq.      84.89  E(vib)   ...       0.61 
freq.      85.25  E(vib)   ...       0.61 
freq.     103.82  E(vib)   ...       0.58 
freq.     128.69  E(vib)   ...       0.55 
freq.     132.75  E(vib)   ...       0.55 
freq.     142.70  E(vib)   ...       0.54 
freq.     148.91  E(vib)   ...       0.53 
freq.     158.97  E(vib)   ...       0.52 
freq.     161.71  E(vib)   ...       0.52 
freq.     166.68  E(vib)   ...       0.51 
freq.     168.20  E(vib)   ...       0.51 
freq.     173.19  E(vib)   ...       0.50 
freq.     187.98  E(vib)   ...       0.49 
freq.     202.02  E(vib)   ...       0.47 
freq.     216.98  E(vib)   ...       0.46 
freq.     231.28  E(vib)   ...       0.44 
freq.     304.20  E(vib)   ...       0.37 
freq.     306.64  E(vib)   ...       0.37 
freq.     315.28  E(vib)   ...       0.36 
freq.     334.14  E(vib)   ...       0.35 
freq.     337.66  E(vib)   ...       0.34 
freq.     340.21  E(vib)   ...       0.34 
freq.     379.06  E(vib)   ...       0.31 
freq.     399.01  E(vib)   ...       0.30 
freq.     402.72  E(vib)   ...       0.29 
freq.     409.74  E(vib)   ...       0.29 
freq.     418.87  E(vib)   ...       0.28 
freq.     432.93  E(vib)   ...       0.27 
freq.     470.16  E(vib)   ...       0.25 
freq.     477.54  E(vib)   ...       0.24 
freq.     502.15  E(vib)   ...       0.23 
freq.     504.58  E(vib)   ...       0.23 
freq.     539.06  E(vib)   ...       0.21 
freq.     562.80  E(vib)   ...       0.19 
freq.     568.70  E(vib)   ...       0.19 
freq.     582.88  E(vib)   ...       0.18 
freq.     591.89  E(vib)   ...       0.18 
freq.     597.89  E(vib)   ...       0.18 
freq.     617.63  E(vib)   ...       0.17 
freq.     645.71  E(vib)   ...       0.15 
freq.     653.80  E(vib)   ...       0.15 
freq.     711.17  E(vib)   ...       0.13 
freq.     752.46  E(vib)   ...       0.11 
freq.     755.70  E(vib)   ...       0.11 
freq.     757.14  E(vib)   ...       0.11 
freq.     758.85  E(vib)   ...       0.11 
freq.     772.83  E(vib)   ...       0.11 
freq.     780.22  E(vib)   ...       0.11 
freq.     822.17  E(vib)   ...       0.09 
freq.     825.04  E(vib)   ...       0.09 
freq.     832.74  E(vib)   ...       0.09 
freq.     836.61  E(vib)   ...       0.09 
freq.     878.05  E(vib)   ...       0.08 
freq.     888.62  E(vib)   ...       0.08 
freq.     896.20  E(vib)   ...       0.08 
freq.     918.59  E(vib)   ...       0.07 
freq.     922.10  E(vib)   ...       0.07 
freq.     926.36  E(vib)   ...       0.07 
freq.     955.79  E(vib)   ...       0.06 
freq.     966.55  E(vib)   ...       0.06 
freq.     967.47  E(vib)   ...       0.06 
freq.     969.34  E(vib)   ...       0.06 
freq.     975.97  E(vib)   ...       0.06 
freq.     976.76  E(vib)   ...       0.06 
freq.    1010.35  E(vib)   ...       0.05 
freq.    1015.27  E(vib)   ...       0.05 
freq.    1057.43  E(vib)   ...       0.05 
freq.    1057.84  E(vib)   ...       0.05 
freq.    1144.69  E(vib)   ...       0.04 
freq.    1145.66  E(vib)   ...       0.04 
freq.    1175.33  E(vib)   ...       0.03 
freq.    1181.11  E(vib)   ...       0.03 
freq.    1187.06  E(vib)   ...       0.03 
freq.    1190.04  E(vib)   ...       0.03 
freq.    1204.23  E(vib)   ...       0.03 
freq.    1204.71  E(vib)   ...       0.03 
freq.    1210.44  E(vib)   ...       0.03 
freq.    1222.71  E(vib)   ...       0.03 
freq.    1225.49  E(vib)   ...       0.03 
freq.    1266.71  E(vib)   ...       0.02 
freq.    1273.16  E(vib)   ...       0.02 
freq.    1289.57  E(vib)   ...       0.02 
freq.    1291.06  E(vib)   ...       0.02 
freq.    1303.53  E(vib)   ...       0.02 
freq.    1314.97  E(vib)   ...       0.02 
freq.    1315.28  E(vib)   ...       0.02 
freq.    1325.84  E(vib)   ...       0.02 
freq.    1347.92  E(vib)   ...       0.02 
freq.    1362.60  E(vib)   ...       0.02 
freq.    1367.99  E(vib)   ...       0.02 
freq.    1378.40  E(vib)   ...       0.02 
freq.    1382.28  E(vib)   ...       0.02 
freq.    1420.77  E(vib)   ...       0.01 
freq.    1463.73  E(vib)   ...       0.01 
freq.    1468.28  E(vib)   ...       0.01 
freq.    1476.91  E(vib)   ...       0.01 
freq.    1483.19  E(vib)   ...       0.01 
freq.    1483.31  E(vib)   ...       0.01 
freq.    1492.14  E(vib)   ...       0.01 
freq.    1492.83  E(vib)   ...       0.01 
freq.    1493.62  E(vib)   ...       0.01 
freq.    1496.21  E(vib)   ...       0.01 
freq.    1560.87  E(vib)   ...       0.01 
freq.    1561.35  E(vib)   ...       0.01 
freq.    1624.06  E(vib)   ...       0.01 
freq.    1641.07  E(vib)   ...       0.01 
freq.    1663.94  E(vib)   ...       0.01 
freq.    1666.51  E(vib)   ...       0.01 
freq.    1680.49  E(vib)   ...       0.01 
freq.    1683.88  E(vib)   ...       0.01 
freq.    1702.31  E(vib)   ...       0.01 
freq.    1718.70  E(vib)   ...       0.01 
freq.    1758.81  E(vib)   ...       0.00 
freq.    3043.77  E(vib)   ...       0.00 
freq.    3045.95  E(vib)   ...       0.00 
freq.    3122.23  E(vib)   ...       0.00 
freq.    3122.95  E(vib)   ...       0.00 
freq.    3168.09  E(vib)   ...       0.00 
freq.    3168.18  E(vib)   ...       0.00 
freq.    3168.89  E(vib)   ...       0.00 
freq.    3173.89  E(vib)   ...       0.00 
freq.    3181.55  E(vib)   ...       0.00 
freq.    3181.61  E(vib)   ...       0.00 
freq.    3191.43  E(vib)   ...       0.00 
freq.    3197.10  E(vib)   ...       0.00 
freq.    3197.30  E(vib)   ...       0.00 
freq.    3197.54  E(vib)   ...       0.00 
freq.    3203.73  E(vib)   ...       0.00 
freq.    3206.86  E(vib)   ...       0.00 
freq.    3222.78  E(vib)   ...       0.00 
freq.    3284.66  E(vib)   ...       0.00 
freq.    3800.11  E(vib)   ...       0.00 
freq.    3801.51  E(vib)   ...       0.00 

------------
INNER ENERGY
------------

The inner energy is: U= E(el) + E(ZPE) + E(vib) + E(rot) + E(trans)
    E(el)   - is the total energy from the electronic structure calculation
              = E(kin-el) + E(nuc-el) + E(el-el) + E(nuc-nuc)
    E(ZPE)  - the the zero temperature vibrational energy from the frequency calculation
    E(vib)  - the the finite temperature correction to E(ZPE) due to population
              of excited vibrational states
    E(rot)  - is the rotational thermal energy
    E(trans)- is the translational thermal energy

Summary of contributions to the inner energy U:
Electronic energy                ...  -1468.53404277 Eh
Zero point energy                ...      0.37961843 Eh     238.21 kcal/mol
Thermal vibrational correction   ...      0.04001669 Eh      25.11 kcal/mol
Thermal rotational correction    ...      0.00172503 Eh       1.08 kcal/mol
Thermal translational correction ...      0.00172503 Eh       1.08 kcal/mol
-----------------------------------------------------------------------
Total thermal energy                  -1468.11095759 Eh


Summary of corrections to the electronic energy:
(perhaps to be used in another calculation)
Total thermal correction                  0.04346676 Eh      27.28 kcal/mol
Non-thermal (ZPE) correction              0.37961843 Eh     238.21 kcal/mol
-----------------------------------------------------------------------
Total correction                          0.42308518 Eh     265.49 kcal/mol


--------
ENTHALPY
--------

The enthalpy is H = U + kB*T
                kB is Boltzmann's constant
Total thermal energy              ...  -1468.11095759 Eh 
Thermal Enthalpy correction       ...      0.00115006 Eh       0.72 kcal/mol
-----------------------------------------------------------------------
Total Enthalpy                    ...  -1468.10980753 Eh


Note: Only C1 symmetry has been detected, increase convergence thresholds 
      if your molecule has a higher symmetry. Symmetry factor of 1.0 is   
      used for the rotational entropy correction. 
 

Note: Rotational entropy computed according to Herzberg 
Infrared and Raman Spectra, Chapter V,1, Van Nostrand Reinhold, 1945 
Point Group:  C1, Symmetry Number:   1  
Rotational constants in cm-1:     0.006423     0.001741     0.001445 

Vibrational entropy computed according to the QRRHO of S. Grimme
Chem.Eur.J. 2012 18 9955 using a reference frequency of 100.0 cm-1


-------
ENTROPY
-------

The entropy contributions are T*S = T*(S(el)+S(vib)+S(rot)+S(trans))
     S(el)   - electronic entropy
     S(vib)  - vibrational entropy
     S(rot)  - rotational entropy
     S(trans)- translational entropy
The entropies will be listed as multiplied by the temperature to get
units of energy

Electronic entropy                ...      0.00079714 Eh      0.50 kcal/mol
Vibrational entropy               ...      0.07575927 Eh     47.54 kcal/mol
Rotational entropy                ...      0.02224039 Eh     13.96 kcal/mol
Translational entropy             ...      0.02600477 Eh     16.32 kcal/mol
-----------------------------------------------------------------------
Final entropy term                ...      0.12480157 Eh     78.31 kcal/mol

In case the symmetry of your molecule has not been determined correctly
or in case you have a reason to use a different symmetry number we print 
out the resulting rotational entropy values for sn=1,12:

 non-linear molecules -----------------------------------
|  sn= 1 | S(rot)=       0.02224039 Eh     13.96 kcal/mol|
|  sn= 2 | S(rot)=       0.02144326 Eh     13.46 kcal/mol|
|  sn= 3 | S(rot)=       0.02097696 Eh     13.16 kcal/mol|
|  sn= 4 | S(rot)=       0.02064612 Eh     12.96 kcal/mol|
|  sn= 5 | S(rot)=       0.02038950 Eh     12.79 kcal/mol|
|  sn= 6 | S(rot)=       0.02017983 Eh     12.66 kcal/mol|
|  sn= 7 | S(rot)=       0.02000255 Eh     12.55 kcal/mol|
|  sn= 8 | S(rot)=       0.01984899 Eh     12.46 kcal/mol|
|  sn= 9 | S(rot)=       0.01971353 Eh     12.37 kcal/mol|
|  sn=10 | S(rot)=       0.01959237 Eh     12.29 kcal/mol|
|  sn=11 | S(rot)=       0.01948276 Eh     12.23 kcal/mol|
|  sn=12 | S(rot)=       0.01938269 Eh     12.16 kcal/mol|
 linear molecules ---------------------------------------
|  Dinfh | S(rot)=       0.01423409 Eh      8.93 kcal/mol|
|  Cinfv | S(rot)=       0.01503123 Eh      9.43 kcal/mol|
 --------------------------------------------------------


-------------------
GIBBS FREE ENERGY
-------------------

The Gibbs free energy is G = H - T*S

Total enthalpy                    ...  -1468.10980753 Eh 
Total entropy correction          ...     -0.12480157 Eh    -78.31 kcal/mol
-----------------------------------------------------------------------
Final Gibbs free energy         ...  -1468.23460910 Eh

For completeness - the Gibbs free energy minus the electronic energy
G-E(el)                           ...      0.29943367 Eh    187.90 kcal/mol



--------------------------------
SUGGESTED CITATIONS FOR THIS RUN
--------------------------------

Below you find a list of papers that are relevant to this ORCA run
We neither can nor want to force you to cite these papers, but we appreciate if you do
You receive ORCA, which is the product of decades of hard work by many enthusiastic individuals, for free
The only thing we kindly ask in return is that you cite our papers,
We deeply appreciate it, if you show your appreciation for ORCA by not just citing the generic ORCA reference.

Please note that relegating all ORCA citations to the supporting information does *not* help us.
SI sections are not indexed - citations you put there will not count into any citation statistics
But we need these citations in order to attract the funding resources that allow us to do what we are doing

Therefore, if you are a happy ORCA user, please consider citing a few of the papers listed below in the main body of your paper

In addition to the list printed below, the program has created the file CURCUMIN-OPT-FREQ-Prod-WB97M-V-6-311+G-D-363.bibtex that contains the list in bibtex format
You can import this file easily into all common literature databanks and citation aid programs


List of essential papers. We consider these as the minimum necessary citations

  1. Neese,F.
     Software update: the ORCA program system, version 5.0
     WIRES Comput. Molec. Sci., 2022 12(1)e1606
     doi.org/10.1002/wcms.1606

List of papers to cite with high priority. The work reported in these papers was absolutely
necessary for this run to complete.
Our perspective: the developers of density functionals and basis sets usually get cited in chemistry papers
Good! But without the algorithms to do something with them, the functionals or basis sets would not do anything.
Hence, in our opinion, the algorithm design and method developments papers are equally worthy of getting cited

  1. Neese,F.
     An improvement of the resolution of the identity approximation for the formation of the Coulomb matrix
     J. Comp. Chem., 2003 24(14)1740-1747
     doi.org/10.1002/jcc.10318
  2. Bykov,D.; Petrenko,T.; Izsak,R.; Kossmann,S.; Becker,U.; Valeev,E.; Neese,F.
     Efficient implementation of the analytic second derivatives of Hartree-Fock and hybrid DFT energies: a detailed analysis of different approximations
     Molec. Phys., 2015 113 1961-1977
     doi.org/10.1080/00268976.2015.1025114
  3. Garcia-Rates,M.; Neese,F.
     Effect of the Solute Cavity on the Solvation Energy and its Derivatives within the Framework of the Gaussian Charge Scheme
     J. Comput. Chem., 2020 41 922-939
     doi.org/10.1002/jcc.26139
  4. Neese,F.
     The SHARK Integral Generation and Digestion System
     J. Comp. Chem., 2022  1-16
     doi.org/10.1002/jcc.26942
  5. Lehtola,S.; Steigemann,C.; Oliveira,M.; Marques,M.
     Recent developments in Libxc - A comprehensive library of functionals for density functional theory
     Software X, 2018 7 
     doi.org/10.1016/j.softx.2017.11.002

List of suggested additional citations. These are papers that are important in the 'surrounding' of 
of this run, or papers that preceded the highly important papers. If you like your results we are grateful for a citation.

  1. Neese,F.
     The ORCA program system
     WIRES Comput. Molec. Sci., 2012 2(1)73-78
     doi.org/10.1002/wcms.81
  2. Neese,F.
     Software update: the ORCA program system, version 4.0
     WIRES Comput. Molec. Sci., 2018 8(1)1-6
     doi.org/10.1002/wcms.1327
  3. Neese,F.; Wennmohs,F.; Becker,U.; Riplinger,C.
     The ORCA quantum chemistry program package
     J. Chem. Phys., 2020 152 Art. No. L224108
     doi.org/10.1063/5.0004608

List of optional additional citations

  1. Neese,F.
     Approximate second-order SCF convergence for spin unrestricted wavefunctions
     Chem. Phys. Lett., 2000 325(1-3)93-98
     doi.org/10.1016/s0009-2614(00)00662-x

Timings for individual modules:

Sum of individual times          ...   583556.315 sec (=9725.939 min)
Startup calculation              ...       52.134 sec (=   0.869 min)   0.0 %
SCF iterations                   ...    18037.126 sec (= 300.619 min)   3.1 %
Property calculations            ...        0.270 sec (=   0.005 min)   0.0 %
SCF Gradient evaluation          ...     4335.317 sec (=  72.255 min)   0.7 %
Geometry relaxation              ...        0.483 sec (=   0.008 min)   0.0 %
Numerical frequency calculation  ...   561130.986 sec (=9352.183 min)  96.2 %
                             ****ORCA TERMINATED NORMALLY****
TOTAL RUN TIME: 6 days 17 hours 45 minutes 45 seconds 539 msec
