
                                 *****************
                                 * O   R   C   A *
                                 *****************

                                            #,                                       
                                            ###                                      
                                            ####                                     
                                            #####                                    
                                            ######                                   
                                           ########,                                 
                                     ,,################,,,,,                         
                               ,,#################################,,                 
                          ,,##########################################,,             
                       ,#########################################, ''#####,          
                    ,#############################################,,   '####,        
                  ,##################################################,,,,####,       
                ,###########''''           ''''###############################       
              ,#####''   ,,,,##########,,,,          '''####'''          '####       
            ,##' ,,,,###########################,,,                        '##       
           ' ,,###''''                  '''############,,,                           
         ,,##''                                '''############,,,,        ,,,,,,###''
      ,#''                                            '''#######################'''  
     '                                                          ''''####''''         
             ,#######,   #######,   ,#######,      ##                                
            ,#'     '#,  ##    ##  ,#'     '#,    #''#        ######   ,####,        
            ##       ##  ##   ,#'  ##            #'  '#       #        #'  '#        
            ##       ##  #######   ##           ,######,      #####,   #    #        
            '#,     ,#'  ##    ##  '#,     ,#' ,#      #,         ##   #,  ,#        
             '#######'   ##     ##  '#######'  #'      '#     #####' # '####'        



                  #######################################################
                  #                        -***-                        #
                  #          Department of theory and spectroscopy      #
                  #    Directorship and core code : Frank Neese         #
                  #        Max Planck Institute fuer Kohlenforschung    #
                  #                Kaiser Wilhelm Platz 1               #
                  #                 D-45470 Muelheim/Ruhr               #
                  #                      Germany                        #
                  #                                                     #
                  #                  All rights reserved                #
                  #                        -***-                        #
                  #######################################################


                         Program Version 5.0.4 -  RELEASE  -


 With contributions from (in alphabetic order):
   Daniel Aravena         : Magnetic Suceptibility
   Michael Atanasov       : Ab Initio Ligand Field Theory (pilot matlab implementation)
   Alexander A. Auer      : GIAO ZORA, VPT2 properties, NMR spectrum
   Ute Becker             : Parallelization
   Giovanni Bistoni       : ED, misc. LED, open-shell LED, HFLD
   Martin Brehm           : Molecular dynamics
   Dmytro Bykov           : SCF Hessian
   Vijay G. Chilkuri      : MRCI spin determinant printing, contributions to CSF-ICE
   Dipayan Datta          : RHF DLPNO-CCSD density
   Achintya Kumar Dutta   : EOM-CC, STEOM-CC
   Dmitry Ganyushin       : Spin-Orbit,Spin-Spin,Magnetic field MRCI
   Miquel Garcia          : C-PCM and meta-GGA Hessian, CC/C-PCM, Gaussian charge scheme
   Yang Guo               : DLPNO-NEVPT2, F12-NEVPT2, CIM, IAO-localization
   Andreas Hansen         : Spin unrestricted coupled pair/coupled cluster methods
   Benjamin Helmich-Paris : MC-RPA, TRAH-SCF, COSX integrals
   Lee Huntington         : MR-EOM, pCC
   Robert Izsak           : Overlap fitted RIJCOSX, COSX-SCS-MP3, EOM
   Marcus Kettner         : VPT2
   Christian Kollmar      : KDIIS, OOCD, Brueckner-CCSD(T), CCSD density, CASPT2, CASPT2-K
   Simone Kossmann        : Meta GGA functionals, TD-DFT gradient, OOMP2, MP2 Hessian
   Martin Krupicka        : Initial AUTO-CI
   Lucas Lang             : DCDCAS
   Marvin Lechner         : AUTO-CI (C++ implementation), FIC-MRCC
   Dagmar Lenk            : GEPOL surface, SMD
   Dimitrios Liakos       : Extrapolation schemes; Compound Job, initial MDCI parallelization
   Dimitrios Manganas     : Further ROCIS development; embedding schemes
   Dimitrios Pantazis     : SARC Basis sets
   Anastasios Papadopoulos: AUTO-CI, single reference methods and gradients
   Taras Petrenko         : DFT Hessian,TD-DFT gradient, ASA, ECA, R-Raman, ABS, FL, XAS/XES, NRVS
   Peter Pinski           : DLPNO-MP2, DLPNO-MP2 Gradient
   Christoph Reimann      : Effective Core Potentials
   Marius Retegan         : Local ZFS, SOC
   Christoph Riplinger    : Optimizer, TS searches, QM/MM, DLPNO-CCSD(T), (RO)-DLPNO pert. Triples
   Tobias Risthaus        : Range-separated hybrids, TD-DFT gradient, RPA, STAB
   Michael Roemelt        : Original ROCIS implementation
   Masaaki Saitow         : Open-shell DLPNO-CCSD energy and density
   Barbara Sandhoefer     : DKH picture change effects
   Avijit Sen             : IP-ROCIS
   Kantharuban Sivalingam : CASSCF convergence, NEVPT2, FIC-MRCI
   Bernardo de Souza      : ESD, SOC TD-DFT
   Georgi Stoychev        : AutoAux, RI-MP2 NMR, DLPNO-MP2 response
   Willem Van den Heuvel  : Paramagnetic NMR
   Boris Wezisla          : Elementary symmetry handling
   Frank Wennmohs         : Technical directorship


 We gratefully acknowledge several colleagues who have allowed us to
 interface, adapt or use parts of their codes:
   Stefan Grimme, W. Hujo, H. Kruse, P. Pracht,  : VdW corrections, initial TS optimization,
                  C. Bannwarth, S. Ehlert          DFT functionals, gCP, sTDA/sTD-DF
   Ed Valeev, F. Pavosevic, A. Kumar             : LibInt (2-el integral package), F12 methods
   Garnet Chan, S. Sharma, J. Yang, R. Olivares  : DMRG
   Ulf Ekstrom                                   : XCFun DFT Library
   Mihaly Kallay                                 : mrcc  (arbitrary order and MRCC methods)
   Jiri Pittner, Ondrej Demel                    : Mk-CCSD
   Frank Weinhold                                : gennbo (NPA and NBO analysis)
   Christopher J. Cramer and Donald G. Truhlar   : smd solvation model
   Lars Goerigk                                  : TD-DFT with DH, B97 family of functionals
   V. Asgeirsson, H. Jonsson                     : NEB implementation
   FAccTs GmbH                                   : IRC, NEB, NEB-TS, DLPNO-Multilevel, CI-OPT
                                                   MM, QMMM, 2- and 3-layer-ONIOM, Crystal-QMMM,
                                                   LR-CPCM, SF, NACMEs, symmetry and pop. for TD-DFT,
                                                   nearIR, NL-DFT gradient (VV10), updates on ESD,
                                                   ML-optimized integration grids
   S Lehtola, MJT Oliveira, MAL Marques          : LibXC Library
   Liviu Ungur et al                             : ANISO software


 Your calculation uses the libint2 library for the computation of 2-el integrals
 For citations please refer to: http://libint.valeyev.net

 Your ORCA version has been built with support for libXC version: 5.1.0
 For citations please refer to: https://tddft.org/programs/libxc/

 This ORCA versions uses:
   CBLAS   interface :  Fast vector & matrix operations
   LAPACKE interface :  Fast linear algebra routines
   SCALAPACK package :  Parallel linear algebra routines
   Shared memory     :  Shared parallel matrices
   BLAS/LAPACK       :  OpenBLAS 0.3.15  USE64BITINT DYNAMIC_ARCH NO_AFFINITY Sandybridge SINGLE_THREADED
        Core in use  :  Sandybridge
   Copyright (c) 2011-2014, The OpenBLAS Project


Your calculation utilizes the DFT-NL dispersion correction.
Cite in your paper:
Vydrov, O. A.; Van Voorhis, T. J. Chem. Phys. 2010, 133, 244103
Hujo, W.; Grimme, S. J. Chem. Theory Comput. 2011, 7, 3866 
   

================================================================================

----- Orbital basis set information -----
Your calculation utilizes the basis: 6-311G(d)
   H, Li - Ne  : R. Krishnan, J. S. Binkley, R. Seeger and J. A. Pople, J. Chem. Phys. 72, 650 (1980).
   Na - Ar     : A. D. McLean and G. S. Chandler J. Chem. Phys. 72, 5639, (1980).
   K  - Ca     : J.-P. Blaudeau, M. P. McGrath, L. A. Curtiss and L. Radom, J. Chem. Phys. 107, 5016 (1997).
   Ga - Kr     : L. A. Curtiss, M. P. McGrath, J.-P. Blandeau, N. E. Davis, R. C. Binning and L. Radom, J. Chem. Phys. 103, 6104 (1995).
   Pol./Diff.
   H, Li - Cl  : T. Clark, J. Chandrasekhar and P. v. R. Schleyer, J. Comp. Chem. 4, 294 (1983).
   H - Ne      : M. J. Frisch, J. A. Pople and J. S. Binkley, J. Chem. Phys. 80, 3265 (1984).

----- AuxJ basis set information -----
Your calculation utilizes the auxiliary basis: def2/J
   F. Weigend, Phys. Chem. Chem. Phys. 8, 1057 (2006).

================================================================================
                                        WARNINGS
                       Please study these warnings very carefully!
================================================================================

Using LibXC functional ID 531 : wB97M-V exchange-correlation functional
[ 1]  N. Mardirossian and M. Head-Gordon, J. Chem. Phys. 144, 214110 (2016)
Using LibXC functional ID 531 : wB97M-V exchange-correlation functional
[ 1]  N. Mardirossian and M. Head-Gordon, J. Chem. Phys. 144, 214110 (2016)

WARNING: B97M-V or wB97M-V functional requested.
  ===> : libXC variant has now been activated.
         Any manually given DFX/HFX/RangeSep scaling parameters are IGNORED!

Your calculation utilizes LibXC
 by S Lehtola, C Steigemann, MJT Oliveira & MAL Marques
Please cite in your paper:
 S Lehtola, C Steigemann, MJT Oliveira & MAL Marques, SoftwareX, 7, (2018), 1.
   


WARNING: your system is open-shell and RHF/RKS was chosen
  ===> : WILL SWITCH to UHF/UKS


WARNING: Geometry Optimization
  ===> : Switching off AutoStart
         For restart on a previous wavefunction, please use MOREAD

WARNING: Analytic gradients for DFT-NL dispersion can only be done using the self-consistent method,
  ===>   Switching to SCNL

WARNING: Self-consistent DFT-NL dispersion not compatible with AutoTRAH.
  ===>   Switching AutoTRAH off


INFO   : the flag for use of the SHARK integral package has been found!

================================================================================
                                       INPUT FILE
================================================================================
NAME = CURCUMIN-OPT-FREQ-TS-M06-2X-6-311G-D-363.inp
|  1> #
|  2> ! OptTS NumFreq wb97M-V 6-311G(d) CPCM RIJDX
|  3> %maxcore 2000
|  4> %cpcm
|  5> epsilon 7 # Dielectric constant
|  6> refrac 1.85341 # Refractive index
|  7> end
|  8> %FREQ temp 363.15 # temperature is 363.15K
|  9> end
| 10> * xyz 0 2
| 11>   C   2.20309717677694      1.23926016314856      0.62182641734380
| 12>   H   1.80627233353302      2.22199070718767      0.38235689407173
| 13>   C   1.50187341998622      0.41881691887010      1.41532527164717
| 14>   H   1.86232346856918     -0.56255516127361      1.71118641311369
| 15>   C   0.17974932011983      0.75213086038670      1.98279298288403
| 16>   O   -0.40667697506166     -0.06076617216583      2.67347856844794
| 17>   C   3.51961783533454      0.96688935958889      0.04295760422554
| 18>   C   4.36279316536076      2.03459127463087     -0.24306527436683
| 19>   C   4.06699188316990     -0.32667743253026     -0.12986925163830
| 20>   C   5.65653432118542      1.84697015020782     -0.71869429679857
| 21>   H   3.99939893258673      3.04376194578283     -0.08171302375049
| 22>   C   5.32184467023990     -0.54028828331151     -0.71367858963267
| 23>   H   4.50823497285022     -0.58198531733260      1.66871521608362
| 24>   C   6.14311732625763      0.56583162630223     -0.95928454539988
| 25>   H   6.28908320941853      2.70350474787212     -0.93015833791280
| 26>   O   7.36851977631331      0.30728398970277     -1.46465204420659
| 27>   H   7.84099394461159      1.13195317354331     -1.63195584731849
| 28>   O   5.70969926714770     -1.79806485555850     -1.04556282636303
| 29>   C   6.62241536688130     -2.39607335686328     -0.10396687714921
| 30>   H   6.13752602516283     -2.50023837553349      0.86844231898911
| 31>   H   6.86349354606496     -3.37740270901389     -0.50535051233176
| 32>   H   7.52908342262100     -1.79578934386791     -0.01702593730106
| 33>   C   -2.96764176582249      0.81243217156096      0.78542771773912
| 34>   H   -2.59794280692858      0.68070349515023      1.79938757114245
| 35>   C   -2.25380562730791      1.55597530113286     -0.07393010626621
| 36>   H   -2.56185997974725      1.70687788264613     -1.10461397725435
| 37>   C   -0.98619694823203      2.21773887084592      0.26775481837509
| 38>   O   -0.36612802033412      2.84094815296799     -0.57718640674290
| 39>   C   -4.22259539356227      0.11229750980227      0.50337127619651
| 40>   C   -4.81663778903269     -0.63601528418038      1.52143086019479
| 41>   C   -4.86154711083993      0.16145328899182     -0.74512785505545
| 42>   C   -6.00466655823431     -1.32385738370506      1.30633230640772
| 43>   H   -4.34066068959647     -0.68715745145452      2.49573895377496
| 44>   C   -6.03991970504853     -0.52038092288500     -0.97065398713950
| 45>   H   -4.44725604559201      0.72542043239852     -1.57420590878725
| 46>   C   -6.62336673596835     -1.27569718152777      0.06218477391753
| 47>   H   -6.45417674071620     -1.90931393369641      2.10326937108904
| 48>   O   -7.77386796418851     -1.93241816844034     -0.22534027103263
| 49>   H   -8.07901540914768     -2.41478531357477      0.55238321908763
| 50>   O   -6.61885348421363     -0.49066067626648     -2.21514962239231
| 51>   C   -7.78316846806845      0.34086766807826     -2.27998943804838
| 52>   H   -7.52819094467802      1.37371955622832     -2.02476951615226
| 53>   H   -8.13656234079269      0.29580115061476     -3.30847403429478
| 54>   H   -8.56297170628756     -0.02412176715551     -1.60854950797578
| 55>   C   -0.44190662398186      2.11461076946016      1.69316513910949
| 56>   H   -1.23547187386390      2.26838024662975      2.42444018570480
| 57>   H   0.29765293108374      2.90708878381569      1.81213974353278
| 58>   O   3.40430083064145     -2.46700463086593      0.51851356676833
| 59>   O   2.26132490278030     -1.45085927768735     -1.00039244237050
| 60>   N   3.16571865855011     -1.51336619865712     -0.19327975216484
| 61> *
| 62> 
| 63> 
| 64>                          ****END OF INPUT****
================================================================================

                       *****************************
                       * Geometry Optimization Run *
                       *****************************

Geometry optimization settings:
Update method            Update   .... Bofill
Choice of coordinates    CoordSys .... Z-matrix Internals
Initial Hessian          InHess   .... Almoef's Model

Convergence Tolerances:
Energy Change            TolE     ....  5.0000e-06 Eh
Max. Gradient            TolMAXG  ....  3.0000e-04 Eh/bohr
RMS Gradient             TolRMSG  ....  1.0000e-04 Eh/bohr
Max. Displacement        TolMAXD  ....  4.0000e-03 bohr
RMS Displacement         TolRMSD  ....  2.0000e-03 bohr
Strict Convergence                ....  False
------------------------------------------------------------------------------
                        ORCA OPTIMIZATION COORDINATE SETUP
------------------------------------------------------------------------------

The optimization will be done in new redundant internal coordinates
Making redundant internal coordinates   ...  (new redundants) done
Following TS mode number                ...     0
Evaluating the initial hessian          ...  (Almloef) done
Evaluating the coordinates              ...  done
Calculating the B-matrix                .... done
Calculating the G-matrix                .... done
Diagonalizing the G-matrix              .... done
Small eigenvalue found = 1.019e-03
Small eigenvalue found = 1.251e-03
Small eigenvalue found = 2.422e-03
Small eigenvalue found = 7.379e-03
Small eigenvalue found = 8.298e-03
Small eigenvalue found = 1.127e-02
Small eigenvalue found = 1.718e-02
Small eigenvalue found = 2.595e-02
Small eigenvalue found = 2.750e-02
The first mode is                       ....   97
The number of degrees of freedom        ....  144

    -----------------------------------------------------------------
                    Redundant Internal Coordinates


    -----------------------------------------------------------------
         Definition                    Initial Value    Approx d2E/dq
    -----------------------------------------------------------------
      1. B(H   1,C   0)                  1.0865         0.364703   
      2. B(C   2,C   0)                  1.3396         0.751927   
      3. B(H   3,C   2)                  1.0865         0.364719   
      4. B(C   4,C   2)                  1.4769         0.454100   
      5. B(O   5,C   4)                  1.2173         1.055496   
      6. B(C   6,C   0)                  1.4637         0.476551   
      7. B(C   7,C   6)                  1.3902         0.624267   
      8. B(C   8,C   6)                  1.4152         0.569544   
      9. B(C   9,C   7)                  1.3911         0.622251   
     10. B(H  10,C   7)                  1.0847         0.367216   
     11. B(C  11,C   8)                  1.4004         0.601377   
     12. B(H  12,C   8)                  1.8694         0.020554   
     13. B(C  13,C  11)                  1.3994         0.603596   
     14. B(C  13,C   9)                  1.3914         0.621617   
     15. B(H  14,C   9)                  1.0856         0.365993   
     16. B(O  15,C  13)                  1.3505         0.646983   
     17. B(H  16,O  15)                  0.9650         0.510418   
     18. B(O  17,C  11)                  1.3574         0.630754   
     19. B(C  18,O  17)                  1.4413         0.463525   
     20. B(H  19,C  18)                  1.0916         0.358015   
     21. B(H  20,C  18)                  1.0873         0.363681   
     22. B(H  21,C  18)                  1.0908         0.358982   
     23. B(H  23,C  22)                  1.0873         0.363737   
     24. B(C  24,C  22)                  1.3420         0.745331   
     25. B(H  25,C  24)                  1.0863         0.365071   
     26. B(C  26,C  24)                  1.4702         0.465342   
     27. B(O  27,C  26)                  1.2193         1.047479   
     28. B(C  28,C  22)                  1.4645         0.475266   
     29. B(C  29,C  28)                  1.3962         0.610783   
     30. B(C  30,C  28)                  1.4034         0.594867   
     31. B(C  31,C  29)                  1.3895         0.625866   
     32. B(H  32,C  29)                  1.0856         0.366018   
     33. B(C  33,C  30)                  1.3800         0.648243   
     34. B(H  34,C  30)                  1.0849         0.366874   
     35. B(C  35,C  33)                  1.4063         0.588490   
     36. B(C  35,C  31)                  1.3903         0.624044   
     37. B(H  36,C  31)                  1.0862         0.365102   
     38. B(O  37,C  35)                  1.3556         0.635017   
     39. B(H  38,O  37)                  0.9647         0.511055   
     40. B(O  39,C  33)                  1.3729         0.595908   
     41. B(C  40,O  39)                  1.4322         0.479188   
     42. B(H  41,C  40)                  1.0940         0.354789   
     43. B(H  42,C  40)                  1.0884         0.362171   
     44. B(H  43,C  40)                  1.0919         0.357658   
     45. B(C  44,C  26)                  1.5293         0.374571   
     46. B(C  44,C   4)                  1.5253         0.380011   
     47. B(H  45,C  44)                  1.0900         0.360067   
     48. B(H  46,C  44)                  1.0905         0.359479   
     49. B(N  49,O  48)                  1.2138         0.957541   
     50. B(N  49,O  47)                  1.2137         0.957930   
     51. B(N  49,C   8)                  1.4915         0.385437   
     52. A(H   1,C   0,C   2)          119.5589         0.365481   
     53. A(H   1,C   0,C   6)          114.1815         0.338365   
     54. A(C   2,C   0,C   6)          126.2359         0.428625   
     55. A(C   0,C   2,C   4)          123.9171         0.424935   
     56. A(H   3,C   2,C   4)          113.3411         0.335659   
     57. A(C   0,C   2,H   3)          122.7398         0.365484   
     58. A(O   5,C   4,C  44)          120.5238         0.434537   
     59. A(C   2,C   4,C  44)          119.5697         0.376855   
     60. A(C   2,C   4,O   5)          119.9062         0.448751   
     61. A(C   0,C   6,C   7)          118.9442         0.414619   
     62. A(C   0,C   6,C   8)          124.4902         0.407927   
     63. A(C   7,C   6,C   8)          116.2498         0.428026   
     64. A(C   6,C   7,H  10)          118.7341         0.354492   
     65. A(C   9,C   7,H  10)          119.2040         0.354298   
     66. A(C   6,C   7,C   9)          122.0602         0.434886   
     67. A(C  11,C   8,H  12)           99.7156         0.226087   
     68. A(C   6,C   8,H  12)           95.6603         0.224410   
     69. A(C   6,C   8,C  11)          122.4741         0.425171   
     70. A(H  12,C   8,N  49)           94.2938         0.211937   
     71. A(C   6,C   8,N  49)          119.9156         0.390471   
     72. A(C  11,C   8,N  49)          113.7274         0.394205   
     73. A(C   7,C   9,C  13)          120.5664         0.434553   
     74. A(C  13,C   9,H  14)          119.2774         0.354037   
     75. A(C   7,C   9,H  14)          120.1380         0.354098   
     76. A(C   8,C  11,C  13)          118.5862         0.429619   
     77. A(C   8,C  11,O  17)          119.9537         0.430198   
     78. A(C  13,C  11,O  17)          121.4535         0.430482   
     79. A(C   9,C  13,C  11)          119.4860         0.432180   
     80. A(C  11,C  13,O  15)          116.5428         0.432452   
     81. A(C   9,C  13,O  15)          123.9382         0.434746   
     82. A(C  13,O  15,H  16)          110.2132         0.371653   
     83. A(C  11,O  17,C  18)          113.9333         0.408025   
     84. A(H  20,C  18,H  21)          109.9861         0.291150   
     85. A(H  19,C  18,H  21)          110.5314         0.290433   
     86. A(O  17,C  18,H  21)          110.4930         0.333889   
     87. A(H  19,C  18,H  20)          109.9511         0.291026   
     88. A(O  17,C  18,H  20)          105.8854         0.334611   
     89. A(O  17,C  18,H  19)          109.8936         0.333740   
     90. A(C  24,C  22,C  28)          126.6826         0.427741   
     91. A(H  23,C  22,C  28)          114.3981         0.338064   
     92. A(H  23,C  22,C  24)          118.9109         0.364765   
     93. A(H  25,C  24,C  26)          113.7342         0.337082   
     94. A(C  22,C  24,C  26)          124.0001         0.426127   
     95. A(C  22,C  24,H  25)          122.2570         0.364994   
     96. A(C  24,C  26,O  27)          120.4948         0.450124   
     97. A(O  27,C  26,C  44)          119.9576         0.432817   
     98. A(C  24,C  26,C  44)          119.5469         0.377510   
     99. A(C  29,C  28,C  30)          118.2790         0.429692   
    100. A(C  22,C  28,C  30)          123.0086         0.410887   
    101. A(C  22,C  28,C  29)          118.7121         0.412816   
    102. A(C  31,C  29,H  32)          119.3728         0.354450   
    103. A(C  28,C  29,H  32)          119.5473         0.352988   
    104. A(C  28,C  29,C  31)          121.0788         0.433632   
    105. A(C  33,C  30,H  34)          117.2598         0.356710   
    106. A(C  28,C  30,H  34)          121.6142         0.351554   
    107. A(C  28,C  30,C  33)          121.1227         0.434313   
    108. A(C  35,C  31,H  36)          119.4092         0.354124   
    109. A(C  29,C  31,H  36)          120.4668         0.354299   
    110. A(C  29,C  31,C  35)          120.1222         0.435311   
    111. A(C  35,C  33,O  39)          120.1609         0.424190   
    112. A(C  30,C  33,O  39)          119.8370         0.431607   
    113. A(C  30,C  33,C  35)          119.9748         0.433472   
    114. A(C  33,C  35,O  37)          117.1639         0.429047   
    115. A(C  31,C  35,O  37)          123.4152         0.433592   
    116. A(C  31,C  35,C  33)          119.4195         0.430518   
    117. A(C  35,O  37,H  38)          109.8587         0.370540   
    118. A(C  33,O  39,C  40)          113.3543         0.406326   
    119. A(H  41,C  40,H  43)          109.7905         0.289852   
    120. A(O  39,C  40,H  43)          111.0193         0.335532   
    121. A(H  41,C  40,H  42)          109.5841         0.290423   
    122. A(O  39,C  40,H  42)          106.4205         0.336232   
    123. A(O  39,C  40,H  41)          110.3703         0.335083   
    124. A(H  42,C  40,H  43)          109.5940         0.290791   
    125. A(H  45,C  44,H  46)          108.5440         0.290756   
    126. A(C  26,C  44,H  46)          107.1017         0.324369   
    127. A(C   4,C  44,H  46)          110.6107         0.325138   
    128. A(C  26,C  44,H  45)          110.8969         0.324456   
    129. A(C   4,C  44,H  45)          107.1773         0.325226   
    130. A(C   4,C  44,C  26)          112.4743         0.364580   
    131. A(O  47,N  49,O  48)          125.2342         0.495344   
    132. A(C   8,N  49,O  48)          115.9474         0.422476   
    133. A(C   8,N  49,O  47)          118.7801         0.422507   
    134. D(C   4,C   2,C   0,H   1)      1.2741         0.040341   
    135. D(H   3,C   2,C   0,H   1)   -178.1845         0.040341   
    136. D(C   4,C   2,C   0,C   6)    179.3922         0.040341   
    137. D(H   3,C   2,C   0,C   6)     -0.0664         0.040341   
    138. D(C  44,C   4,C   2,C   0)     -1.3553         0.014052   
    139. D(C  44,C   4,C   2,H   3)    178.1487         0.014052   
    140. D(O   5,C   4,C   2,H   3)     -2.0451         0.014052   
    141. D(O   5,C   4,C   2,C   0)    178.4509         0.014052   
    142. D(C   8,C   6,C   0,C   2)     21.2184         0.015462   
    143. D(C   7,C   6,C   0,H   1)     26.1312         0.015462   
    144. D(C   7,C   6,C   0,C   2)   -152.0744         0.015462   
    145. D(C   8,C   6,C   0,H   1)   -160.5760         0.015462   
    146. D(H  10,C   7,C   6,C   0)     -3.4393         0.026990   
    147. D(C   9,C   7,C   6,C   8)      2.2418         0.026990   
    148. D(C   9,C   7,C   6,C   0)    176.0800         0.026990   
    149. D(H  10,C   7,C   6,C   8)   -177.2775         0.026990   
    150. D(H  12,C   8,C   6,C   7)     97.4713         0.024156   
    151. D(H  12,C   8,C   6,C   0)    -75.9851         0.024156   
    152. D(N  49,C   8,C   6,C   7)   -164.2591         0.024156   
    153. D(N  49,C   8,C   6,C   0)     22.2846         0.024156   
    154. D(C  11,C   8,C   6,C   7)     -7.8419         0.024156   
    155. D(C  11,C   8,C   6,C   0)    178.7017         0.024156   
    156. D(C  13,C   9,C   7,C   6)      1.6771         0.026805   
    157. D(H  14,C   9,C   7,C   6)   -179.8858         0.026805   
    158. D(C  13,C   9,C   7,H  10)   -178.8058         0.026805   
    159. D(H  14,C   9,C   7,H  10)     -0.3688         0.026805   
    160. D(O  17,C  11,C   8,C   6)   -169.7326         0.027090   
    161. D(C  13,C  11,C   8,H  12)    -93.8118         0.027090   
    162. D(C  13,C  11,C   8,N  49)    167.0841         0.027090   
    163. D(O  17,C  11,C   8,N  49)    -11.9913         0.027090   
    164. D(C  13,C  11,C   8,C   6)      9.3428         0.027090   
    165. D(O  17,C  11,C   8,H  12)     87.1128         0.027090   
    166. D(O  15,C  13,C  11,O  17)     -3.9657         0.025132   
    167. D(C   9,C  13,C  11,O  17)    174.0234         0.025132   
    168. D(C   9,C  13,C  11,C   8)     -5.0376         0.025132   
    169. D(O  15,C  13,C   9,H  14)     -0.8896         0.026747   
    170. D(O  15,C  13,C   9,C   7)    177.5608         0.026747   
    171. D(O  15,C  13,C  11,C   8)    176.9734         0.025132   
    172. D(C  11,C  13,C   9,H  14)   -178.7211         0.026747   
    173. D(C  11,C  13,C   9,C   7)     -0.2707         0.026747   
    174. D(H  16,O  15,C  13,C  11)    177.6696         0.030912   
    175. D(H  16,O  15,C  13,C   9)     -0.2205         0.030912   
    176. D(C  18,O  17,C  11,C  13)     79.6031         0.029264   
    177. D(C  18,O  17,C  11,C   8)   -101.3486         0.029264   
    178. D(H  21,C  18,O  17,C  11)    -59.5482         0.016929   
    179. D(H  20,C  18,O  17,C  11)   -178.6088         0.016929   
    180. D(H  19,C  18,O  17,C  11)     62.6888         0.016929   
    181. D(H  25,C  24,C  22,C  28)     -0.1405         0.039570   
    182. D(H  25,C  24,C  22,H  23)    178.7450         0.039570   
    183. D(C  26,C  24,C  22,C  28)   -178.9997         0.039570   
    184. D(C  26,C  24,C  22,H  23)     -0.1141         0.039570   
    185. D(C  44,C  26,C  24,H  25)    178.8200         0.014747   
    186. D(C  44,C  26,C  24,C  22)     -2.2339         0.014747   
    187. D(O  27,C  26,C  24,H  25)     -1.4977         0.014747   
    188. D(O  27,C  26,C  24,C  22)    177.4484         0.014747   
    189. D(C  30,C  28,C  22,C  24)     -1.2460         0.015379   
    190. D(C  30,C  28,C  22,H  23)    179.8252         0.015379   
    191. D(C  29,C  28,C  22,C  24)    178.9747         0.015379   
    192. D(C  29,C  28,C  22,H  23)      0.0459         0.015379   
    193. D(H  32,C  29,C  28,C  30)   -179.9215         0.025769   
    194. D(H  32,C  29,C  28,C  22)     -0.1317         0.025769   
    195. D(C  31,C  29,C  28,C  30)      0.4527         0.025769   
    196. D(C  31,C  29,C  28,C  22)   -179.7575         0.025769   
    197. D(H  34,C  30,C  28,C  29)   -179.9346         0.024373   
    198. D(H  34,C  30,C  28,C  22)      0.2852         0.024373   
    199. D(C  33,C  30,C  28,C  29)     -0.6096         0.024373   
    200. D(C  33,C  30,C  28,C  22)    179.6102         0.024373   
    201. D(H  36,C  31,C  29,H  32)     -0.1024         0.027137   
    202. D(H  36,C  31,C  29,C  28)    179.5240         0.027137   
    203. D(C  35,C  31,C  29,H  32)   -179.6134         0.027137   
    204. D(C  35,C  31,C  29,C  28)      0.0131         0.027137   
    205. D(O  39,C  33,C  30,H  34)      1.5470         0.029248   
    206. D(O  39,C  33,C  30,C  28)   -177.8063         0.029248   
    207. D(C  35,C  33,C  30,H  34)    179.6527         0.029248   
    208. D(C  35,C  33,C  30,C  28)      0.2994         0.029248   
    209. D(O  37,C  35,C  33,O  39)     -1.3064         0.023827   
    210. D(O  37,C  35,C  33,C  30)   -179.4059         0.023827   
    211. D(C  31,C  35,C  33,O  39)    178.2785         0.023827   
    212. D(C  31,C  35,C  33,C  30)      0.1790         0.023827   
    213. D(O  37,C  35,C  31,H  36)     -0.2922         0.026969   
    214. D(O  37,C  35,C  31,C  29)    179.2238         0.026969   
    215. D(C  33,C  35,C  31,H  36)   -179.8497         0.026969   
    216. D(C  33,C  35,C  31,C  29)     -0.3336         0.026969   
    217. D(H  38,O  37,C  35,C  33)    179.8876         0.029691   
    218. D(H  38,O  37,C  35,C  31)      0.3208         0.029691   
    219. D(C  40,O  39,C  33,C  35)     76.0495         0.025912   
    220. D(C  40,O  39,C  33,C  30)   -105.8483         0.025912   
    221. D(H  43,C  40,O  39,C  33)    -61.7447         0.018113   
    222. D(H  42,C  40,O  39,C  33)    179.0609         0.018113   
    223. D(H  41,C  40,O  39,C  33)     60.2330         0.018113   
    224. D(H  46,C  44,C  26,O  27)     17.9996         0.010489   
    225. D(H  46,C  44,C  26,C  24)   -162.3164         0.010489   
    226. D(H  45,C  44,C  26,O  27)    136.2706         0.010489   
    227. D(H  45,C  44,C  26,C  24)    -44.0454         0.010489   
    228. D(C   4,C  44,C  26,O  27)   -103.7260         0.010489   
    229. D(C   4,C  44,C  26,C  24)     75.9580         0.010489   
    230. D(H  46,C  44,C   4,O   5)    135.1227         0.010776   
    231. D(H  46,C  44,C   4,C   2)    -45.0723         0.010776   
    232. D(H  45,C  44,C   4,O   5)     16.9650         0.010776   
    233. D(H  45,C  44,C   4,C   2)   -163.2300         0.010776   
    234. D(C  26,C  44,C   4,O   5)   -105.1691         0.010776   
    235. D(C  26,C  44,C   4,C   2)     74.6359         0.010776   
    236. D(O  48,N  49,C   8,H  12)    151.7536         0.012708   
    237. D(O  48,N  49,C   8,C  11)   -105.6631         0.012708   
    238. D(O  48,N  49,C   8,C   6)     52.7026         0.012708   
    239. D(O  47,N  49,C   8,H  12)    -30.3795         0.012708   
    240. D(O  47,N  49,C   8,C  11)     72.2038         0.012708   
    241. D(O  47,N  49,C   8,C   6)   -129.4305         0.012708   
    -----------------------------------------------------------------

Number of atoms                         .... 50
Number of degrees of freedom            .... 241

         *************************************************************
         *                GEOMETRY OPTIMIZATION CYCLE   1            *
         *************************************************************
---------------------------------
CARTESIAN COORDINATES (ANGSTROEM)
---------------------------------
  C      2.203097    1.239260    0.621826
  H      1.806272    2.221991    0.382357
  C      1.501873    0.418817    1.415325
  H      1.862323   -0.562555    1.711186
  C      0.179749    0.752131    1.982793
  O     -0.406677   -0.060766    2.673479
  C      3.519618    0.966889    0.042958
  C      4.362793    2.034591   -0.243065
  C      4.066992   -0.326677   -0.129869
  C      5.656534    1.846970   -0.718694
  H      3.999399    3.043762   -0.081713
  C      5.321845   -0.540288   -0.713679
  H      4.508235   -0.581985    1.668715
  C      6.143117    0.565832   -0.959285
  H      6.289083    2.703505   -0.930158
  O      7.368520    0.307284   -1.464652
  H      7.840994    1.131953   -1.631956
  O      5.709699   -1.798065   -1.045563
  C      6.622415   -2.396073   -0.103967
  H      6.137526   -2.500238    0.868442
  H      6.863494   -3.377403   -0.505351
  H      7.529083   -1.795789   -0.017026
  C     -2.967642    0.812432    0.785428
  H     -2.597943    0.680703    1.799388
  C     -2.253806    1.555975   -0.073930
  H     -2.561860    1.706878   -1.104614
  C     -0.986197    2.217739    0.267755
  O     -0.366128    2.840948   -0.577186
  C     -4.222595    0.112298    0.503371
  C     -4.816638   -0.636015    1.521431
  C     -4.861547    0.161453   -0.745128
  C     -6.004667   -1.323857    1.306332
  H     -4.340661   -0.687157    2.495739
  C     -6.039920   -0.520381   -0.970654
  H     -4.447256    0.725420   -1.574206
  C     -6.623367   -1.275697    0.062185
  H     -6.454177   -1.909314    2.103269
  O     -7.773868   -1.932418   -0.225340
  H     -8.079015   -2.414785    0.552383
  O     -6.618853   -0.490661   -2.215150
  C     -7.783168    0.340868   -2.279989
  H     -7.528191    1.373720   -2.024770
  H     -8.136562    0.295801   -3.308474
  H     -8.562972   -0.024122   -1.608550
  C     -0.441907    2.114611    1.693165
  H     -1.235472    2.268380    2.424440
  H      0.297653    2.907089    1.812140
  O      3.404301   -2.467005    0.518514
  O      2.261325   -1.450859   -1.000392
  N      3.165719   -1.513366   -0.193280

----------------------------
CARTESIAN COORDINATES (A.U.)
----------------------------
  NO LB      ZA    FRAG     MASS         X           Y           Z
   0 C     6.0000    0    12.011    4.163250    2.341862    1.175082
   1 H     1.0000    0     1.008    3.413360    4.198954    0.722550
   2 C     6.0000    0    12.011    2.838129    0.791449    2.674577
   3 H     1.0000    0     1.008    3.519281   -1.063075    3.233674
   4 C     6.0000    0    12.011    0.339677    1.421321    3.746936
   5 O     8.0000    0    15.999   -0.768508   -0.114831    5.052142
   6 C     6.0000    0    12.011    6.651114    1.827156    0.081178
   7 C     6.0000    0    12.011    8.244484    3.844820   -0.459327
   8 C     6.0000    0    12.011    7.685501   -0.617331   -0.245417
   9 C     6.0000    0    12.011   10.689301    3.490268   -1.358135
  10 H     1.0000    0     1.008    7.557769    5.751876   -0.154415
  11 C     6.0000    0    12.011   10.056829   -1.020997   -1.348657
  12 H     1.0000    0     1.008    8.519329   -1.099793    3.153415
  13 C     6.0000    0    12.011   11.608809    1.069267   -1.812785
  14 H     1.0000    0     1.008   11.884645    5.108884   -1.757745
  15 O     8.0000    0    15.999   13.924484    0.580683   -2.767791
  16 H     1.0000    0     1.008   14.817331    2.139081   -3.083950
  17 O     8.0000    0    15.999   10.789768   -3.397850   -1.975827
  18 C     6.0000    0    12.011   12.514551   -4.527922   -0.196469
  19 H     1.0000    0     1.008   11.598243   -4.724766    1.641118
  20 H     1.0000    0     1.008   12.970123   -6.382366   -0.954974
  21 H     1.0000    0     1.008   14.227906   -3.393550   -0.032174
  22 C     6.0000    0    12.011   -5.608030    1.535274    1.484243
  23 H     1.0000    0     1.008   -4.909400    1.286343    3.400350
  24 C     6.0000    0    12.011   -4.259075    2.940367   -0.139708
  25 H     1.0000    0     1.008   -4.841214    3.225532   -2.087418
  26 C     6.0000    0    12.011   -1.863642    4.190919    0.505983
  27 O     8.0000    0    15.999   -0.691882    5.368614   -1.090724
  28 C     6.0000    0    12.011   -7.979549    0.212212    0.951234
  29 C     6.0000    0    12.011   -9.102126   -1.201895    2.875088
  30 C     6.0000    0    12.011   -9.186993    0.305102   -1.408088
  31 C     6.0000    0    12.011  -11.347175   -2.501728    2.468610
  32 H     1.0000    0     1.008   -8.202660   -1.298539    4.716263
  33 C     6.0000    0    12.011  -11.413794   -0.983377   -1.834270
  34 H     1.0000    0     1.008   -8.404096    1.370846   -2.974818
  35 C     6.0000    0    12.011  -12.516349   -2.410718    0.117512
  36 H     1.0000    0     1.008  -12.196626   -3.608080    3.974603
  37 O     8.0000    0    15.999  -14.690481   -3.651741   -0.425831
  38 H     1.0000    0     1.008  -15.267127   -4.563283    1.043853
  39 O     8.0000    0    15.999  -12.507820   -0.927214   -4.186026
  40 C     6.0000    0    12.011  -14.708057    0.644147   -4.308556
  41 H     1.0000    0     1.008  -14.226219    2.595954   -3.826260
  42 H     1.0000    0     1.008  -15.375874    0.558983   -6.252110
  43 H     1.0000    0     1.008  -16.181671   -0.045584   -3.039718
  44 C     6.0000    0    12.011   -0.835082    3.996035    3.199618
  45 H     1.0000    0     1.008   -2.334703    4.286617    4.581528
  46 H     1.0000    0     1.008    0.562483    5.493602    3.424448
  47 O     8.0000    0    15.999    6.433196   -4.661963    0.979849
  48 O     8.0000    0    15.999    4.273285   -2.741727   -1.890468
  49 N     7.0000    0    14.007    5.982341   -2.859848   -0.365246

--------------------------------
INTERNAL COORDINATES (ANGSTROEM)
--------------------------------
 C      0   0   0     0.000000000000     0.00000000     0.00000000
 H      1   0   0     1.086542650327     0.00000000     0.00000000
 C      1   2   0     1.339582885062   119.55886199     0.00000000
 H      3   1   2     1.086530815135   122.73980294   181.81546644
 C      3   1   2     1.476864896446   123.91714171     1.27406554
 O      5   3   1     1.217269059542   119.90617198   178.45089152
 C      1   2   3     1.463728664009   114.18146526   181.66385934
 C      7   1   2     1.390230593688   118.94424667    26.13124373
 C      7   1   2     1.415204054554   124.49016464   199.42397610
 C      8   7   1     1.391111365630   122.06018930   176.08001251
 H      8   7   1     1.084672927986   118.73410151   356.56073586
 C      9   7   1     1.400399391573   122.47408826   178.70171427
 H      9   7   1     1.869434050124    95.66029762   284.01492121
 C     10   8   7     1.391388732879   120.56644478     1.67707763
 H     10   8   7     1.085581251535   120.13795436   180.11415866
 O     14  10   8     1.350501519379   123.93815123   177.56083123
 H     16  14  10     0.965039721991   110.21319993   359.77951842
 O     12   9   7     1.357416752743   119.95370309   190.26735510
 C     18  12   9     1.441272971342   113.93328944   258.65141881
 H     19  18  12     1.091580354148   109.89358999    62.68882837
 H     19  18  12     1.087306216511   105.88536998   181.39124613
 H     19  18  12     1.090846729187   110.49299740   300.45177204
 C      6   5   3     3.299356304170    82.67504063   225.90296938
 H     23   6   5     1.087264617611    33.93612037   232.05630214
 C     23   6   5     1.341981478211    95.75081289     8.16811782
 H     25  23   6     1.086268067780   122.25702098   152.50568552
 C     25  23   6     1.470207935360   124.00007018   333.64652197
 O     27  25  23     1.219344479043   120.49478344   177.44842192
 C     23   6   5     1.464463379054   130.45445216   159.20395172
 C     29  23   6     1.396174674539   118.71206842    35.90278776
 C     29  23   6     1.403362272678   123.00861270   215.68203307
 C     30  29  23     1.389534633671   121.07881179   180.24248325
 H     30  29  23     1.085562518548   119.54731618   359.86832794
 C     31  29  23     1.379971702435   121.12272827   179.61020122
 H     31  29  23     1.084926930612   121.61418775     0.28524370
 C     32  30  29     1.390328161839   120.12222149     0.00000000
 H     32  30  29     1.086244659893   120.46683941   179.52403781
 O     36  32  30     1.355583336524   123.41518214   179.22384840
 H     38  36  32     0.964700395436   109.85867532     0.32082300
 O     34  31  29     1.372886375444   119.83703593   182.19370055
 C     40  34  31     1.432226578015   113.35434072   254.15165066
 H     41  40  34     1.094044683193   110.37029818    60.23300297
 H     41  40  34     1.088438691425   106.42049625   179.06085051
 H     41  40  34     1.091852534853   111.01934096   298.25534970
 C      5   3   1     1.525349764269   119.56972990   358.64472826
 H     45   5   3     1.090024794077   107.17728009   196.76999174
 H     45   5   3     1.090469942375   110.61068293   314.92768169
 O      9   7   1     2.332500852356   134.01968340   352.95348179
 O     48   9   7     2.155463016397    61.45715168    69.82047986
 N     48   9   7     1.213671059679    34.08700696    68.59113949

---------------------------
INTERNAL COORDINATES (A.U.)
---------------------------
 C      0   0   0     0.000000000000     0.00000000     0.00000000
 H      1   0   0     2.053268041943     0.00000000     0.00000000
 C      1   2   0     2.531444786455   119.55886199     0.00000000
 H      3   1   2     2.053245676672   122.73980294   181.81546644
 C      3   1   2     2.790870191084   123.91714171     1.27406554
 O      5   3   1     2.300305153831   119.90617198   178.45089152
 C      1   2   3     2.766046309347   114.18146526   181.66385934
 C      7   1   2     2.627155085070   118.94424667    26.13124373
 C      7   1   2     2.674348086721   124.49016464   199.42397610
 C      8   7   1     2.628819502825   122.06018930   176.08001251
 H      8   7   1     2.049734778772   118.73410151   356.56073586
 C      9   7   1     2.646371328183   122.47408826   178.70171427
 H      9   7   1     3.532718380162    95.66029762   284.01492121
 C     10   8   7     2.629343650965   120.56644478     1.67707763
 H     10   8   7     2.051451261521   120.13795436   180.11415866
 O     14  10   8     2.552078015070   123.93815123   177.56083123
 H     16  14  10     1.823660782919   110.21319993   359.77951842
 O     12   9   7     2.565145912280   119.95370309   190.26735510
 C     18  12   9     2.723611200060   113.93328944   258.65141881
 H     19  18  12     2.062787922508   109.89358999    62.68882837
 H     19  18  12     2.054710972916   105.88536998   181.39124613
 H     19  18  12     2.061401572247   110.49299740   300.45177204
 C      6   5   3     6.234879833108    82.67504063   225.90296938
 H     23   6   5     2.054632362388    33.93612037   232.05630214
 C     23   6   5     2.535977470614    95.75081289     8.16811782
 H     25  23   6     2.052749156129   122.25702098   152.50568552
 C     25  23   6     2.778290357748   124.00007018   333.64652197
 O     27  25  23     2.304227128299   120.49478344   177.44842192
 C     23   6   5     2.767434719568   130.45445216   159.20395172
 C     29  23   6     2.638387769996   118.71206842    35.90278776
 C     29  23   6     2.651970362039   123.00861270   215.68203307
 C     30  29  23     2.625839911236   121.07881179   180.24248325
 H     30  29  23     2.051415861306   119.54731618   359.86832794
 C     31  29  23     2.607768590163   121.12272827   179.61020122
 H     31  29  23     2.050214774172   121.61418775     0.28524370
 C     32  30  29     2.627339462154   120.12222149     0.00000000
 H     32  30  29     2.052704921632   120.46683941   179.52403781
 O     36  32  30     2.561681257737   123.41518214   179.22384840
 H     38  36  32     1.823019548660   109.85867532     0.32082300
 O     34  31  29     2.594379262582   119.83703593   182.19370055
 C     40  34  31     2.706515994171   113.35434072   254.15165066
 H     41  40  34     2.067444829507   110.37029818    60.23300297
 H     41  40  34     2.056851040357   106.42049625   179.06085051
 H     41  40  34     2.063302269500   111.01934096   298.25534970
 C      5   3   1     2.882493312910   119.56972990   358.64472826
 H     45   5   3     2.059848339989   107.17728009   196.76999174
 H     45   5   3     2.060689548362   110.61068293   314.92768169
 O      9   7   1     4.407787818091   134.01968340   352.95348179
 O     48   9   7     4.073234792786    61.45715168    69.82047986
 N     48   9   7     2.293505919460    34.08700696    68.59113949

---------------------
BASIS SET INFORMATION
---------------------
There are 4 groups of distinct atoms

 Group   1 Type C   : 11s5p1d contracted to 4s3p1d pattern {6311/311/1}
 Group   2 Type H   : 5s contracted to 3s pattern {311}
 Group   3 Type O   : 11s5p1d contracted to 4s3p1d pattern {6311/311/1}
 Group   4 Type N   : 11s5p1d contracted to 4s3p1d pattern {6311/311/1}

Atom   0C    basis set group =>   1
Atom   1H    basis set group =>   2
Atom   2C    basis set group =>   1
Atom   3H    basis set group =>   2
Atom   4C    basis set group =>   1
Atom   5O    basis set group =>   3
Atom   6C    basis set group =>   1
Atom   7C    basis set group =>   1
Atom   8C    basis set group =>   1
Atom   9C    basis set group =>   1
Atom  10H    basis set group =>   2
Atom  11C    basis set group =>   1
Atom  12H    basis set group =>   2
Atom  13C    basis set group =>   1
Atom  14H    basis set group =>   2
Atom  15O    basis set group =>   3
Atom  16H    basis set group =>   2
Atom  17O    basis set group =>   3
Atom  18C    basis set group =>   1
Atom  19H    basis set group =>   2
Atom  20H    basis set group =>   2
Atom  21H    basis set group =>   2
Atom  22C    basis set group =>   1
Atom  23H    basis set group =>   2
Atom  24C    basis set group =>   1
Atom  25H    basis set group =>   2
Atom  26C    basis set group =>   1
Atom  27O    basis set group =>   3
Atom  28C    basis set group =>   1
Atom  29C    basis set group =>   1
Atom  30C    basis set group =>   1
Atom  31C    basis set group =>   1
Atom  32H    basis set group =>   2
Atom  33C    basis set group =>   1
Atom  34H    basis set group =>   2
Atom  35C    basis set group =>   1
Atom  36H    basis set group =>   2
Atom  37O    basis set group =>   3
Atom  38H    basis set group =>   2
Atom  39O    basis set group =>   3
Atom  40C    basis set group =>   1
Atom  41H    basis set group =>   2
Atom  42H    basis set group =>   2
Atom  43H    basis set group =>   2
Atom  44C    basis set group =>   1
Atom  45H    basis set group =>   2
Atom  46H    basis set group =>   2
Atom  47O    basis set group =>   3
Atom  48O    basis set group =>   3
Atom  49N    basis set group =>   4
---------------------------------
AUXILIARY/J BASIS SET INFORMATION
---------------------------------
There are 4 groups of distinct atoms

 Group   1 Type C   : 12s5p4d2f1g contracted to 6s4p3d1f1g pattern {711111/2111/211/2/1}
 Group   2 Type H   : 5s2p1d contracted to 3s1p1d pattern {311/2/1}
 Group   3 Type O   : 12s5p4d2f1g contracted to 6s4p3d1f1g pattern {711111/2111/211/2/1}
 Group   4 Type N   : 12s5p4d2f1g contracted to 6s4p3d1f1g pattern {711111/2111/211/2/1}

Atom   0C    basis set group =>   1
Atom   1H    basis set group =>   2
Atom   2C    basis set group =>   1
Atom   3H    basis set group =>   2
Atom   4C    basis set group =>   1
Atom   5O    basis set group =>   3
Atom   6C    basis set group =>   1
Atom   7C    basis set group =>   1
Atom   8C    basis set group =>   1
Atom   9C    basis set group =>   1
Atom  10H    basis set group =>   2
Atom  11C    basis set group =>   1
Atom  12H    basis set group =>   2
Atom  13C    basis set group =>   1
Atom  14H    basis set group =>   2
Atom  15O    basis set group =>   3
Atom  16H    basis set group =>   2
Atom  17O    basis set group =>   3
Atom  18C    basis set group =>   1
Atom  19H    basis set group =>   2
Atom  20H    basis set group =>   2
Atom  21H    basis set group =>   2
Atom  22C    basis set group =>   1
Atom  23H    basis set group =>   2
Atom  24C    basis set group =>   1
Atom  25H    basis set group =>   2
Atom  26C    basis set group =>   1
Atom  27O    basis set group =>   3
Atom  28C    basis set group =>   1
Atom  29C    basis set group =>   1
Atom  30C    basis set group =>   1
Atom  31C    basis set group =>   1
Atom  32H    basis set group =>   2
Atom  33C    basis set group =>   1
Atom  34H    basis set group =>   2
Atom  35C    basis set group =>   1
Atom  36H    basis set group =>   2
Atom  37O    basis set group =>   3
Atom  38H    basis set group =>   2
Atom  39O    basis set group =>   3
Atom  40C    basis set group =>   1
Atom  41H    basis set group =>   2
Atom  42H    basis set group =>   2
Atom  43H    basis set group =>   2
Atom  44C    basis set group =>   1
Atom  45H    basis set group =>   2
Atom  46H    basis set group =>   2
Atom  47O    basis set group =>   3
Atom  48O    basis set group =>   3
Atom  49N    basis set group =>   4
------------------------------------------------------------------------------
                           ORCA GTO INTEGRAL CALCULATION
                           -- RI-GTO INTEGRALS CHOSEN --
------------------------------------------------------------------------------
------------------------------------------------------------------------------
                   ___                                                        
                  /   \      - P O W E R E D   B Y -                         
                 /     \                                                     
                 |  |  |   _    _      __       _____    __    __             
                 |  |  |  | |  | |    /  \     |  _  \  |  |  /  |          
                  \  \/   | |  | |   /    \    | | | |  |  | /  /          
                 / \  \   | |__| |  /  /\  \   | |_| |  |  |/  /          
                |  |  |   |  __  | /  /__\  \  |    /   |      \           
                |  |  |   | |  | | |   __   |  |    \   |  |\   \          
                \     /   | |  | | |  |  |  |  | |\  \  |  | \   \       
                 \___/    |_|  |_| |__|  |__|  |_| \__\ |__|  \__/        
                                                                              
                      - O R C A' S   B I G   F R I E N D -                    
                                      &                                       
                       - I N T E G R A L  F E E D E R -                       
                                                                              
 v1 FN, 2020, v2 2021                                                         
------------------------------------------------------------------------------


Reading SHARK input file CURCUMIN-OPT-FREQ-TS-M06-2X-6-311G-D-363.SHARKINP.tmp ... ok
----------------------
SHARK INTEGRAL PACKAGE
----------------------

Number of atoms                             ...     50
Number of basis functions                   ...    600
Number of shells                            ...    300
Maximum angular momentum                    ...      2
Integral batch strategy                     ... SHARK/LIBINT Hybrid
RI-J (if used) integral strategy            ... SPLIT-RIJ (Revised 2003 algorithm where possible)
Printlevel                                  ...      1
Contraction scheme used                     ... SEGMENTED contraction
Coulomb Range Separation                    ... NOT USED
Exchange Range Separation                   ... Long Range
   Mu parameter                             ...  0.300000
   Scaling (regular/separated)              ...  0.150000  0.850000
Finite Nucleus Model                        ... NOT USED
Auxiliary Coulomb fitting basis             ... AVAILABLE
   # of basis functions in Aux-J            ...   1690
   # of shells in Aux-J                     ...    550
   Maximum angular momentum in Aux-J        ...      4
Auxiliary J/K fitting basis                 ... NOT available
Auxiliary Correlation fitting basis         ... NOT available
Auxiliary 'external' fitting basis          ... NOT available
Integral threshold                          ...     2.500000e-11
Primitive cut-off                           ...     2.500000e-12
Primitive pair pre-selection threshold      ...     2.500000e-12

Calculating pre-screening integrals         ... done (  0.2 sec) Dimension = 300
Organizing shell pair data                  ... done (  0.3 sec)
Shell pair information
Total number of shell pairs                 ...     45150
Shell pairs after pre-screening             ...     21989
Total number of primitive shell pairs       ...    187045
Primitive shell pairs kept                  ...     53789
          la=0 lb=0:   7538 shell pairs
          la=1 lb=0:   8208 shell pairs
          la=1 lb=1:   2287 shell pairs
          la=2 lb=0:   2414 shell pairs
          la=2 lb=1:   1330 shell pairs
          la=2 lb=2:    212 shell pairs

Calculating one electron integrals          ... done (  0.2 sec)
Calculating RI/J V-Matrix + Cholesky decomp.... done (  0.6 sec)
Calculating Nuclear repulsion               ... done (  0.0 sec) ENN=   2720.536222155143 Eh

SHARK setup successfully completed in   1.7 seconds

Maximum memory used throughout the entire GTOINT-calculation: 121.7 MB
-------------------------------------------------------------------------------
                                 ORCA SCF
-------------------------------------------------------------------------------

------------
SCF SETTINGS
------------
Hamiltonian:
 Density Functional     Method          .... DFT(GTOs)
  Functional kind                       .... Exchange-Correlation
  Functional name                       .... wB97M-V exchange-correlation functional
  Functional family                     .... Hybrid MGGA
  Functional refs                              
    [ 0] N. Mardirossian and M. Head-Gordon, J. Chem. Phys. 144, 214110 (2016)
  Fraction of HF Exchange (short range) .... 0.1500
  Fraction of HF Exchange (long range)  .... 1.0000
  Range separation parameter mu         .... 0.3000
  Functional external parameters         .... 0
   Density functional embedding theory  .... OFF
 Long-range corrected/Screened/Range-Separated Hybrid DFT is turned on
   Amount of maximum screened exact exchange              ....  0.850000
   Range separation parameter mu (erf(mu*r12)/r12)        ....  0.300000
   NL short-range parameter             ....  6.000000
   NL long-range parameter              ....  0.010000
 RI-approximation to the Coulomb term is turned on
   Number of AuxJ basis functions       .... 1690
   RIJ-ON(X) (HFX calculated with O(N)) .... on


General Settings:
 Integral files         IntName         .... CURCUMIN-OPT-FREQ-TS-M06-2X-6-311G-D-363
 Hartree-Fock type      HFTyp           .... UHF
 Total Charge           Charge          ....    0
 Multiplicity           Mult            ....    2
 Number of Electrons    NEL             ....  217
 Basis Dimension        Dim             ....  600
 Nuclear Repulsion      ENuc            ....   2720.5362221551 Eh

Convergence Acceleration:
 DIIS                   CNVDIIS         .... on
   Start iteration      DIISMaxIt       ....    12
   Startup error        DIISStart       ....  0.200000
   # of expansion vecs  DIISMaxEq       ....     5
   Bias factor          DIISBfac        ....   1.050
   Max. coefficient     DIISMaxC        ....  10.000
 Trust-Rad. Augm. Hess. CNVTRAH         .... off
 SOSCF                  CNVSOSCF        .... off
 Level Shifting         CNVShift        .... on
   Level shift para.    LevelShift      ....    0.2500
   Turn off err/grad.   ShiftErr        ....    0.0010
 Zerner damping         CNVZerner       .... off
 Static damping         CNVDamp         .... on
   Fraction old density DampFac         ....    0.7000
   Max. Damping (<1)    DampMax         ....    0.9800
   Min. Damping (>=0)   DampMin         ....    0.0000
   Turn off err/grad.   DampErr         ....    0.1000
 Fernandez-Rico         CNVRico         .... off

SCF Procedure:
 Maximum # iterations   MaxIter         ....   125
 SCF integral mode      SCFMode         .... Direct
   Integral package                     .... SHARK and LIBINT hybrid scheme
 Reset frequency        DirectResetFreq ....    20
 Integral Threshold     Thresh          ....  2.500e-11 Eh
 Primitive CutOff       TCut            ....  2.500e-12 Eh

Convergence Tolerance:
 Convergence Check Mode ConvCheckMode   .... Total+1el-Energy
 Convergence forced     ConvForced      .... 0
 Energy Change          TolE            ....  1.000e-08 Eh
 1-El. energy change                    ....  1.000e-05 Eh
 DIIS Error             TolErr          ....  5.000e-07


Diagonalization of the overlap matrix:
Smallest eigenvalue                        ... 1.693e-04
Time for diagonalization                   ...    0.080 sec
Threshold for overlap eigenvalues          ... 1.000e-08
Number of eigenvalues below threshold      ... 0
Time for construction of square roots      ...    0.081 sec
Total time needed                          ...    0.162 sec

Time for model grid setup =    2.047 sec

------------------------------
INITIAL GUESS: MODEL POTENTIAL
------------------------------
Loading Hartree-Fock densities                     ... done
Calculating cut-offs                               ... done
Initializing the effective Hamiltonian             ... done
Setting up the integral package (SHARK)            ... done
Starting the Coulomb interaction                   ... done (   2.7 sec)
Reading the grid                                   ... done
Mapping shells                                     ... done
Starting the XC term evaluation                    ... done (   1.2 sec)
  promolecular density results
     # of electrons  =    216.985540150
     EX              =   -185.079646595
     EC              =     -7.321379439
     EX+EC           =   -192.401026034
Transforming the Hamiltonian                       ... done (   0.0 sec)
Diagonalizing the Hamiltonian                      ... done (   0.1 sec)
Back transforming the eigenvectors                 ... done (   0.0 sec)
Now organizing SCF variables                       ... done
                      ------------------
                      INITIAL GUESS DONE (   6.2 sec)
                      ------------------
-------------------
DFT GRID GENERATION
-------------------

General Integration Accuracy     IntAcc      ... 4.388
Radial Grid Type                 RadialGrid  ... OptM3 with GC (2021)
Angular Grid (max. ang.)         AngularGrid ... 4 (Lebedev-302)
Angular grid pruning method      GridPruning ... 4 (adaptive)
Weight generation scheme         WeightScheme... Becke
Basis function cutoff            BFCut       ... 1.0000e-11
Integration weight cutoff        WCut        ... 1.0000e-14
Angular grids for H and He will be reduced by one unit
Partially contracted basis set               ... off
Rotationally invariant grid construction     ... off

Total number of grid points                  ...   243720
Total number of batches                      ...     3832
Average number of points per batch           ...       63
Average number of grid points per atom       ...     4874

------------------
NL GRID GENERATION
------------------

General Integration Accuracy     IntAcc      ... 4.004
Radial Grid Type                 RadialGrid  ... OptM3 with GC (2021)
Angular Grid (max. ang.)         AngularGrid ... 2 (Lebedev-110)
Angular grid pruning method      GridPruning ... 4 (adaptive)
Weight generation scheme         WeightScheme... Becke
Basis function cutoff            BFCut       ... 1.0000e-10
Integration weight cutoff        WCut        ... 1.0000e-14
Angular grids for H and He will be reduced by one unit
Partially contracted basis set               ... off
Rotationally invariant grid construction     ... off

Total number of grid points                  ...    78428
Total number of batches                      ...     1251
Average number of points per batch           ...       62
Average number of grid points per atom       ...     1569
Time for grid setup =    8.519 sec


--------------------
CPCM SOLVATION MODEL
--------------------
CPCM parameters:
  Epsilon                                         ...       7.0000
  Refrac                                          ...       1.8534
  Rsolv                                           ...       1.3000
  Surface type                                    ... GAUSSIAN VDW
  Epsilon function type                           ...         CPCM
Radii:
 Radius for C  used is    3.8550 Bohr (=   2.0400 Ang.)
 Radius for H  used is    2.4944 Bohr (=   1.3200 Ang.)
 Radius for O  used is    3.4469 Bohr (=   1.8240 Ang.)
 Radius for N  used is    3.5149 Bohr (=   1.8600 Ang.)
Calculating surface                               ...        done! (  0.0s)
GEPOL surface points                              ...         2637
GEPOL Volume                                      ...    3184.9973
GEPOL Surface-area                                ...    1622.8038
Calculating surface distance matrix               ...        done! (  0.1s)
Performing Cholesky decomposition & store         ...        done! (  0.8s)
Overall time for CPCM initialization              ...                 0.9s
--------------
SCF ITERATIONS
--------------
ITER       Energy         Delta-E        Max-DP      RMS-DP      [F,P]     Damp
               ***  Starting incremental Fock matrix formation  ***
  0  -1467.6278800207   0.000000000000 0.05556694  0.00053167  0.1473293 0.7000
  1  -1467.9450131124  -0.317133091677 0.03911405  0.00039314  0.0705911 0.7000
                               ***Turning on DIIS***
  2  -1468.1004688210  -0.155455708589 0.05351927  0.00073149  0.0284711 0.0000
  3  -1468.3755017479  -0.275032926914 0.04142186  0.00028588  0.0363142 0.0000
  4  -1468.4120356976  -0.036533949724 0.01760721  0.00008886  0.0129752 0.0000
  5  -1468.4167428924  -0.004707194821 0.01738982  0.00006454  0.0079249 0.0000
  6  -1468.4192944934  -0.002551600948 0.01545864  0.00005842  0.0059277 0.0000
  7  -1468.4210779177  -0.001783424291 0.00983542  0.00004354  0.0038781 0.0000
  8  -1468.4219511801  -0.000873262469 0.00533532  0.00002733  0.0019966 0.0000
  9  -1468.4222790697  -0.000327889571 0.00530568  0.00002884  0.0009596 0.0000
 10  -1468.4224471132  -0.000168043490 0.00133325  0.00000841  0.0004222 0.0000
 11  -1468.4224682816  -0.000021168373 0.00096774  0.00000519  0.0003266 0.0000
 12  -1468.4224759562  -0.000007674672 0.00050407  0.00000299  0.0002773 0.0000
 13  -1468.4224789194  -0.000002963144 0.00036837  0.00000235  0.0001432 0.0000
 14  -1468.4224804864  -0.000001567027 0.00021775  0.00000134  0.0000762 0.0000
 15  -1468.4224810483  -0.000000561891 0.00010787  0.00000097  0.0000439 0.0000
 16  -1468.4224814244  -0.000000376143 0.00008540  0.00000092  0.0000388 0.0000
 17  -1468.4224816771  -0.000000252676 0.00005027  0.00000057  0.0000230 0.0000
 18  -1468.4224817876  -0.000000110438 0.00003404  0.00000039  0.0000246 0.0000
 19  -1468.4224818335  -0.000000045970 0.00002024  0.00000025  0.0000179 0.0000
               *** Restarting incremental Fock matrix formation ***
                                   *** Resetting DIIS ***
 20  -1468.4224818407  -0.000000007125 0.00001439  0.00000012  0.0000083 0.0000
 21  -1468.4224818541  -0.000000013437 0.00000473  0.00000006  0.0000106 0.0000
 22  -1468.4224818662  -0.000000012087 0.00001515  0.00000013  0.0000051 0.0000
 23  -1468.4224818692  -0.000000003058 0.00000886  0.00000009  0.0000039 0.0000
 24  -1468.4224818779  -0.000000008696 0.00000283  0.00000005  0.0000021 0.0000
                 **** Energy Check signals convergence ****

               *****************************************************
               *                     SUCCESS                       *
               *           SCF CONVERGED AFTER  25 CYCLES          *
               *****************************************************


----------------
TOTAL SCF ENERGY
----------------

Total Energy       :        -1468.42248187 Eh          -39957.80715 eV

Components:
Nuclear Repulsion  :         2720.53622216 Eh           74029.55419 eV
Electronic Energy  :        -4188.95870403 Eh         -113987.36134 eV
One Electron Energy:        -7411.69604999 Eh         -201682.50286 eV
Two Electron Energy:         3222.73734596 Eh           87695.14152 eV
CPCM Dielectric    :           -0.04254796 Eh              -1.15779 eV

Virial components:
Potential Energy   :        -2933.61949967 Eh          -79827.84496 eV
Kinetic Energy     :         1465.19701780 Eh           39870.03781 eV
Virial Ratio       :            2.00220139


DFT components:
N(Alpha)           :      108.999838556912 electrons
N(Beta)            :      107.999849673613 electrons
N(Total)           :      216.999688230525 electrons
NL Energy, E(C,NL) :        0.815435059421 Eh       
E(XC)              :     -139.529056575774 Eh       
DFET-embed. en.    :        0.000000000000 Eh       
CPCM Solvation Model Properties:
Surface-charge          :           -0.02938857
Charge-correction       :            0.00002013 Eh               0.00055 eV
Free-energy (cav+disp)  :  This term is not implemented in the current solvation scheme

---------------
SCF CONVERGENCE
---------------

  Last Energy change         ...    6.4108e-09  Tolerance :   1.0000e-08
  Last MAX-Density change    ...    4.5423e-06  Tolerance :   1.0000e-07
  Last RMS-Density change    ...    3.4915e-08  Tolerance :   5.0000e-09
  Last DIIS Error            ...    1.1352e-06  Tolerance :   5.0000e-07

             **** THE GBW FILE WAS UPDATED (CURCUMIN-OPT-FREQ-TS-M06-2X-6-311G-D-363.gbw) ****
             **** DENSITY CURCUMIN-OPT-FREQ-TS-M06-2X-6-311G-D-363.scfp WAS UPDATED ****
             **** ENERGY FILE WAS UPDATED (CURCUMIN-OPT-FREQ-TS-M06-2X-6-311G-D-363.en.tmp) ****
----------------------
UHF SPIN CONTAMINATION
----------------------

Warning: in a DFT calculation there is little theoretical justification to 
         calculate <S**2> as in Hartree-Fock theory. We will do it anyways
         but you should keep in mind that the values have only limited relevance

Expectation value of <S**2>     :     0.772453
Ideal value S*(S+1) for S=0.5   :     0.750000
Deviation                       :     0.022453

             **** THE GBW FILE WAS UPDATED (CURCUMIN-OPT-FREQ-TS-M06-2X-6-311G-D-363.gbw) ****
             **** DENSITY CURCUMIN-OPT-FREQ-TS-M06-2X-6-311G-D-363.scfp WAS UPDATED ****
----------------
ORBITAL ENERGIES
----------------
                 SPIN UP ORBITALS
  NO   OCC          E(Eh)            E(eV) 
   0   1.0000     -19.378760      -527.3229 
   1   1.0000     -19.378235      -527.3086 
   2   1.0000     -19.376617      -527.2646 
   3   1.0000     -19.366333      -526.9847 
   4   1.0000     -19.365591      -526.9645 
   5   1.0000     -19.346964      -526.4576 
   6   1.0000     -19.329339      -525.9781 
   7   1.0000     -19.324343      -525.8421 
   8   1.0000     -14.764722      -401.7685 
   9   1.0000     -10.450545      -284.3738 
  10   1.0000     -10.446609      -284.2667 
  11   1.0000     -10.437640      -284.0226 
  12   1.0000     -10.436912      -284.0028 
  13   1.0000     -10.435681      -283.9693 
  14   1.0000     -10.421860      -283.5932 
  15   1.0000     -10.405823      -283.1569 
  16   1.0000     -10.390816      -282.7485 
  17   1.0000     -10.388490      -282.6852 
  18   1.0000     -10.382543      -282.5234 
  19   1.0000     -10.380887      -282.4783 
  20   1.0000     -10.375261      -282.3252 
  21   1.0000     -10.374206      -282.2965 
  22   1.0000     -10.372911      -282.2612 
  23   1.0000     -10.362780      -281.9856 
  24   1.0000     -10.361610      -281.9537 
  25   1.0000     -10.358429      -281.8672 
  26   1.0000     -10.356887      -281.8252 
  27   1.0000     -10.356242      -281.8077 
  28   1.0000     -10.353677      -281.7379 
  29   1.0000     -10.350277      -281.6454 
  30   1.0000      -1.389652       -37.8143 
  31   1.0000      -1.224287       -33.3146 
  32   1.0000      -1.210614       -32.9425 
  33   1.0000      -1.209436       -32.9104 
  34   1.0000      -1.199145       -32.6304 
  35   1.0000      -1.186864       -32.2962 
  36   1.0000      -1.180493       -32.1229 
  37   1.0000      -1.179961       -32.1084 
  38   1.0000      -1.031891       -28.0792 
  39   1.0000      -0.998608       -27.1735 
  40   1.0000      -0.954456       -25.9721 
  41   1.0000      -0.942615       -25.6499 
  42   1.0000      -0.939741       -25.5717 
  43   1.0000      -0.906256       -24.6605 
  44   1.0000      -0.885795       -24.1037 
  45   1.0000      -0.883448       -24.0398 
  46   1.0000      -0.859062       -23.3763 
  47   1.0000      -0.843253       -22.9461 
  48   1.0000      -0.819392       -22.2968 
  49   1.0000      -0.809464       -22.0266 
  50   1.0000      -0.782384       -21.2897 
  51   1.0000      -0.777554       -21.1583 
  52   1.0000      -0.746385       -20.3102 
  53   1.0000      -0.741271       -20.1710 
  54   1.0000      -0.733035       -19.9469 
  55   1.0000      -0.702927       -19.1276 
  56   1.0000      -0.697646       -18.9839 
  57   1.0000      -0.688603       -18.7379 
  58   1.0000      -0.671463       -18.2714 
  59   1.0000      -0.664181       -18.0733 
  60   1.0000      -0.647979       -17.6324 
  61   1.0000      -0.645327       -17.5602 
  62   1.0000      -0.641367       -17.4525 
  63   1.0000      -0.633608       -17.2413 
  64   1.0000      -0.624612       -16.9965 
  65   1.0000      -0.623247       -16.9594 
  66   1.0000      -0.616013       -16.7626 
  67   1.0000      -0.603025       -16.4091 
  68   1.0000      -0.594299       -16.1717 
  69   1.0000      -0.593093       -16.1389 
  70   1.0000      -0.582774       -15.8581 
  71   1.0000      -0.575903       -15.6711 
  72   1.0000      -0.570626       -15.5275 
  73   1.0000      -0.563428       -15.3317 
  74   1.0000      -0.557544       -15.1716 
  75   1.0000      -0.550459       -14.9788 
  76   1.0000      -0.545348       -14.8397 
  77   1.0000      -0.540650       -14.7118 
  78   1.0000      -0.539449       -14.6792 
  79   1.0000      -0.534744       -14.5511 
  80   1.0000      -0.528068       -14.3695 
  81   1.0000      -0.520959       -14.1760 
  82   1.0000      -0.514857       -14.0100 
  83   1.0000      -0.513775       -13.9805 
  84   1.0000      -0.505132       -13.7454 
  85   1.0000      -0.503171       -13.6920 
  86   1.0000      -0.492343       -13.3973 
  87   1.0000      -0.491737       -13.3808 
  88   1.0000      -0.484059       -13.1719 
  89   1.0000      -0.479656       -13.0521 
  90   1.0000      -0.474198       -12.9036 
  91   1.0000      -0.472043       -12.8449 
  92   1.0000      -0.465999       -12.6805 
  93   1.0000      -0.463452       -12.6112 
  94   1.0000      -0.443068       -12.0565 
  95   1.0000      -0.435274       -11.8444 
  96   1.0000      -0.433095       -11.7851 
  97   1.0000      -0.428562       -11.6618 
  98   1.0000      -0.403193       -10.9715 
  99   1.0000      -0.399010       -10.8576 
 100   1.0000      -0.395823       -10.7709 
 101   1.0000      -0.391403       -10.6506 
 102   1.0000      -0.384793       -10.4708 
 103   1.0000      -0.375673       -10.2226 
 104   1.0000      -0.358879        -9.7656 
 105   1.0000      -0.346458        -9.4276 
 106   1.0000      -0.327919        -8.9231 
 107   1.0000      -0.306026        -8.3274 
 108   1.0000      -0.304043        -8.2734 
 109   0.0000      -0.014102        -0.3837 
 110   0.0000       0.001037         0.0282 
 111   0.0000       0.012214         0.3323 
 112   0.0000       0.050338         1.3698 
 113   0.0000       0.065673         1.7870 
 114   0.0000       0.076560         2.0833 
 115   0.0000       0.096180         2.6172 
 116   0.0000       0.107432         2.9234 
 117   0.0000       0.112252         3.0545 
 118   0.0000       0.119759         3.2588 
 119   0.0000       0.129433         3.5221 
 120   0.0000       0.132027         3.5926 
 121   0.0000       0.142002         3.8641 
 122   0.0000       0.143892         3.9155 
 123   0.0000       0.148654         4.0451 
 124   0.0000       0.153139         4.1671 
 125   0.0000       0.159861         4.3500 
 126   0.0000       0.163658         4.4534 
 127   0.0000       0.177412         4.8276 
 128   0.0000       0.179673         4.8891 
 129   0.0000       0.187693         5.1074 
 130   0.0000       0.190870         5.1938 
 131   0.0000       0.193403         5.2628 
 132   0.0000       0.195332         5.3153 
 133   0.0000       0.198052         5.3893 
 134   0.0000       0.206787         5.6270 
 135   0.0000       0.217188         5.9100 
 136   0.0000       0.219494         5.9727 
 137   0.0000       0.226705         6.1690 
 138   0.0000       0.233228         6.3465 
 139   0.0000       0.241633         6.5752 
 140   0.0000       0.251985         6.8569 
 141   0.0000       0.264164         7.1883 
 142   0.0000       0.264408         7.1949 
 143   0.0000       0.285464         7.7679 
 144   0.0000       0.300148         8.1674 
 145   0.0000       0.303624         8.2620 
 146   0.0000       0.307628         8.3710 
 147   0.0000       0.311444         8.4748 
 148   0.0000       0.328626         8.9424 
 149   0.0000       0.336881         9.1670 
 150   0.0000       0.341538         9.2937 
 151   0.0000       0.348275         9.4770 
 152   0.0000       0.354194         9.6381 
 153   0.0000       0.356325         9.6961 
 154   0.0000       0.363617         9.8945 
 155   0.0000       0.371097        10.0981 
 156   0.0000       0.379451        10.3254 
 157   0.0000       0.381335        10.3766 
 158   0.0000       0.385696        10.4953 
 159   0.0000       0.391913        10.6645 
 160   0.0000       0.395798        10.7702 
 161   0.0000       0.398127        10.8336 
 162   0.0000       0.411763        11.2046 
 163   0.0000       0.416130        11.3235 
 164   0.0000       0.421359        11.4657 
 165   0.0000       0.429137        11.6774 
 166   0.0000       0.435122        11.8403 
 167   0.0000       0.440364        11.9829 
 168   0.0000       0.441911        12.0250 
 169   0.0000       0.447175        12.1682 
 170   0.0000       0.447505        12.1772 
 171   0.0000       0.455666        12.3993 
 172   0.0000       0.460135        12.5209 
 173   0.0000       0.463869        12.6225 
 174   0.0000       0.469178        12.7670 
 175   0.0000       0.473102        12.8738 
 176   0.0000       0.473226        12.8771 
 177   0.0000       0.482285        13.1236 
 178   0.0000       0.484548        13.1852 
 179   0.0000       0.491736        13.3808 
 180   0.0000       0.494926        13.4676 
 181   0.0000       0.503366        13.6973 
 182   0.0000       0.507520        13.8103 
 183   0.0000       0.510798        13.8995 
 184   0.0000       0.511695        13.9239 
 185   0.0000       0.517854        14.0915 
 186   0.0000       0.520309        14.1583 
 187   0.0000       0.523775        14.2526 
 188   0.0000       0.532766        14.4973 
 189   0.0000       0.534803        14.5527 
 190   0.0000       0.537589        14.6285 
 191   0.0000       0.539124        14.6703 
 192   0.0000       0.542906        14.7732 
 193   0.0000       0.547856        14.9079 
 194   0.0000       0.552346        15.0301 
 195   0.0000       0.554764        15.0959 
 196   0.0000       0.566424        15.4132 
 197   0.0000       0.570771        15.5315 
 198   0.0000       0.573883        15.6162 
 199   0.0000       0.578707        15.7474 
 200   0.0000       0.585991        15.9456 
 201   0.0000       0.593528        16.1507 
 202   0.0000       0.601471        16.3669 
 203   0.0000       0.607546        16.5322 
 204   0.0000       0.610798        16.6206 
 205   0.0000       0.612734        16.6733 
 206   0.0000       0.616720        16.7818 
 207   0.0000       0.629872        17.1397 
 208   0.0000       0.633002        17.2249 
 209   0.0000       0.638039        17.3619 
 210   0.0000       0.639830        17.4107 
 211   0.0000       0.650528        17.7018 
 212   0.0000       0.653782        17.7903 
 213   0.0000       0.656267        17.8579 
 214   0.0000       0.658365        17.9150 
 215   0.0000       0.665310        18.1040 
 216   0.0000       0.670056        18.2331 
 217   0.0000       0.675431        18.3794 
 218   0.0000       0.684452        18.6249 
 219   0.0000       0.685362        18.6496 
 220   0.0000       0.688784        18.7428 
 221   0.0000       0.694063        18.8864 
 222   0.0000       0.699583        19.0366 
 223   0.0000       0.701575        19.0908 
 224   0.0000       0.703822        19.1520 
 225   0.0000       0.707729        19.2583 
 226   0.0000       0.712678        19.3930 
 227   0.0000       0.716659        19.5013 
 228   0.0000       0.719312        19.5735 
 229   0.0000       0.725578        19.7440 
 230   0.0000       0.729500        19.8507 
 231   0.0000       0.734803        19.9950 
 232   0.0000       0.737435        20.0666 
 233   0.0000       0.748639        20.3715 
 234   0.0000       0.752421        20.4744 
 235   0.0000       0.756892        20.5961 
 236   0.0000       0.769395        20.9363 
 237   0.0000       0.773692        21.0532 
 238   0.0000       0.776028        21.1168 
 239   0.0000       0.792751        21.5719 
 240   0.0000       0.794820        21.6281 
 241   0.0000       0.802236        21.8300 
[...]
 52:    575.53   0.012177   61.54  0.006603  ( 0.075438 -0.000519 -0.030190)
 53:    579.28   0.007506   37.93  0.004043  (-0.054739 -0.029680 -0.012889)
 54:    596.79   0.000051    0.26  0.000027  (-0.003913 -0.003316  0.000456)
 55:    615.35   0.004006   20.25  0.002032  (-0.044703  0.005151  0.002594)
 56:    618.78   0.003677   18.58  0.001854  (-0.041474 -0.007458  0.008871)
 57:    624.01   0.001796    9.08  0.000898  (-0.013043 -0.026406  0.005542)
 58:    659.35   0.002126   10.75  0.001006  ( 0.011263 -0.026093 -0.014095)
 59:    690.64   0.005173   26.14  0.002338  (-0.041363 -0.012267 -0.021821)
 60:    727.15   0.002671   13.50  0.001146  ( 0.001683  0.017200  0.029110)
 61:    732.14   0.000954    4.82  0.000407  ( 0.010663  0.010900 -0.013194)
 62:    750.62   0.000358    1.81  0.000149  ( 0.000769  0.006096  0.010540)
 63:    769.61   0.001697    8.58  0.000688  (-0.005602 -0.008734 -0.024096)
 64:    772.95   0.001517    7.66  0.000612  ( 0.019928  0.002781  0.014402)
 65:    809.77   0.007367   37.23  0.002839  (-0.052748 -0.007529 -0.000048)
 66:    820.37   0.005515   27.87  0.002098  (-0.041548 -0.018189 -0.006399)
 67:    826.52   0.012500   63.17  0.004720  (-0.018969  0.058433  0.030746)
 68:    836.25   0.010790   54.53  0.004026  ( 0.030821 -0.022101  0.050873)
 69:    842.30   0.011345   57.33  0.004203  (-0.044515 -0.046969 -0.003954)
 70:    858.46   0.000765    3.87  0.000278  (-0.008152 -0.003984  0.013994)
 71:    878.90   0.002834   14.32  0.001006  (-0.007274 -0.017441  0.025476)
 72:    895.47   0.001122    5.67  0.000391  ( 0.007698 -0.012814 -0.012942)
 73:    921.52   0.001766    8.93  0.000598  (-0.006295  0.020742  0.011326)
 74:    940.95   0.000302    1.53  0.000100  ( 0.001975 -0.009725 -0.001358)
 75:    956.27   0.000715    3.62  0.000233  ( 0.006748 -0.005995 -0.012328)
 76:    958.16   0.001259    6.36  0.000410  ( 0.005482  0.009209 -0.017182)
 77:    965.04   0.000248    1.25  0.000080  (-0.006270 -0.003197 -0.005547)
 78:    970.33   0.007865   39.75  0.002529  (-0.020856  0.024787  0.038471)
 79:    990.23   0.008021   40.54  0.002528  ( 0.045973  0.012425 -0.016126)
 80:   1010.77   0.034914  176.44  0.010779  ( 0.099951 -0.024251  0.014178)
 81:   1024.00   0.014832   74.95  0.004520  ( 0.051316  0.024713  0.035719)
 82:   1028.03   0.015715   79.42  0.004770  ( 0.042503 -0.049974 -0.021599)
 83:   1058.45   0.022558  114.00  0.006651  ( 0.072319 -0.029728  0.023176)
 84:   1094.35   0.023307  117.78  0.006646  (-0.025828  0.075102 -0.018404)
 85:   1134.52   0.007217   36.47  0.001985  ( 0.000181  0.016512  0.041381)
 86:   1144.32   0.037841  191.23  0.010319  ( 0.054987  0.079375 -0.031551)
 87:   1173.06   0.005618   28.39  0.001495  (-0.031390 -0.013375  0.018176)
 88:   1176.49   0.022186  112.12  0.005885  (-0.065270 -0.004762  0.040025)
 89:   1178.24   0.002721   13.75  0.000721  (-0.022891 -0.012177 -0.006959)
 90:   1187.23   0.007298   36.88  0.001918  ( 0.019410  0.038531 -0.007548)
 91:   1192.21   0.011939   60.34  0.003125  ( 0.048470 -0.001840 -0.027793)
 92:   1203.59   0.006106   30.86  0.001583  (-0.022892 -0.007582 -0.031647)
 93:   1215.67   0.024189  122.24  0.006209  (-0.070820  0.011857  0.032455)
 94:   1220.84   0.075782  382.97  0.019371  ( 0.131843  0.044178 -0.006068)
 95:   1232.18   0.096544  487.89  0.024451  (-0.155335 -0.015756 -0.008579)
 96:   1252.37   0.034872  176.23  0.008689  (-0.091116  0.019303 -0.003839)
 97:   1271.65   0.008576   43.34  0.002105  ( 0.027397 -0.007703  0.035980)
 98:   1289.35   0.016515   83.46  0.003997  ( 0.033090  0.019607  0.050177)
 99:   1292.00   0.095218  481.19  0.022999  (-0.139294  0.059928 -0.002106)
100:   1300.39   0.065784  332.45  0.015787  ( 0.116325  0.020997  0.042594)
101:   1309.89   0.013277   67.09  0.003163  (-0.040937  0.033901  0.018380)
102:   1318.29   0.029362  148.38  0.006950  (-0.063717 -0.051926 -0.013935)
103:   1323.18   0.043235  218.49  0.010197  ( 0.017045  0.068710  0.072007)
104:   1332.73   0.034825  175.99  0.008154  (-0.089489  0.001921  0.011934)
105:   1344.60   0.002733   13.81  0.000634  ( 0.020533 -0.010200 -0.010423)
106:   1362.03   0.046277  233.86  0.010603  ( 0.087977 -0.025089 -0.047258)
107:   1371.66   0.017100   86.42  0.003890  (-0.061891  0.005574  0.005376)
108:   1373.84   0.009446   47.73  0.002146  (-0.015792 -0.043403 -0.003518)
109:   1385.02   0.027663  139.80  0.006233  (-0.068770 -0.022166 -0.031816)
110:   1450.08   0.006127   30.96  0.001319  (-0.011810 -0.032640 -0.010663)
111:   1465.71   0.036344  183.67  0.007738  (-0.044913 -0.075598 -0.002413)
112:   1468.35   0.001197    6.05  0.000254  ( 0.009359  0.001675  0.012808)
113:   1482.37   0.002839   14.35  0.000598  ( 0.012753 -0.020271 -0.004905)
114:   1484.45   0.002743   13.86  0.000577  ( 0.013012  0.017215 -0.010537)
115:   1486.95   0.003930   19.86  0.000825  ( 0.023535  0.009281 -0.013595)
116:   1488.08   0.003869   19.55  0.000811  (-0.010458 -0.013702 -0.022679)
117:   1493.54   0.003552   17.95  0.000742  ( 0.002514  0.020522  0.017740)
118:   1497.46   0.007018   35.47  0.001463  ( 0.032991 -0.001429  0.019289)
119:   1501.54   0.000933    4.71  0.000194  (-0.000924 -0.005147 -0.012905)
120:   1553.99   0.045802  231.46  0.009198  (-0.075167  0.036863  0.046782)
121:   1561.80   0.071500  361.33  0.014286  (-0.101766 -0.045688 -0.042927)
122:   1635.80   0.037030  187.13  0.007064  ( 0.083940 -0.004122 -0.001125)
123:   1656.48   0.032830  165.91  0.006185  (-0.072335  0.030835  0.001324)
124:   1662.08   0.089860  454.12  0.016872  ( 0.047853 -0.063116  0.102947)
125:   1665.01   0.002798   14.14  0.000524  (-0.006188 -0.015952  0.015220)
126:   1678.88   0.066782  337.49  0.012413  (-0.085111 -0.067854  0.023770)
127:   1713.96   0.035494  179.37  0.006462  (-0.071464 -0.036547 -0.004428)
128:   1717.96   0.014558   73.57  0.002644  ( 0.042389 -0.027915 -0.008272)
129:   1741.72   0.277461  1402.17  0.049713  (-0.151693 -0.114154  0.116921)
130:   1768.21   0.012200   61.65  0.002153  ( 0.029462  0.017263 -0.031417)
131:   3043.54   0.013735   69.41  0.001408  ( 0.025714 -0.025881  0.008788)
132:   3063.85   0.009258   46.79  0.000943  ( 0.020067 -0.017037  0.015811)
133:   3105.01   0.000406    2.05  0.000041  (-0.000037 -0.005024 -0.003945)
134:   3117.95   0.010046   50.77  0.001005  (-0.023082 -0.021726  0.000836)
135:   3143.69   0.006866   34.70  0.000682  ( 0.022055  0.005609 -0.012795)
136:   3160.17   0.002379   12.02  0.000235  ( 0.014543  0.003866 -0.002910)
137:   3162.83   0.008174   41.31  0.000807  ( 0.005247  0.003099  0.027738)
138:   3180.19   0.006011   30.38  0.000590  ( 0.003969 -0.020986 -0.011562)
139:   3180.23   0.000625    3.16  0.000061  ( 0.007185  0.002676  0.001583)
140:   3181.91   0.002967   15.00  0.000291  (-0.013242 -0.010753  0.000181)
141:   3184.57   0.001430    7.23  0.000140  (-0.008008  0.007172 -0.004953)
142:   3187.28   0.001566    7.91  0.000153  (-0.007611 -0.002510 -0.009437)
143:   3191.70   0.000125    0.63  0.000012  ( 0.000321  0.002975  0.001799)
144:   3194.88   0.001833    9.26  0.000179  ( 0.012605 -0.001610 -0.004190)
145:   3198.71   0.002823   14.27  0.000275  ( 0.001329  0.006131 -0.015365)
146:   3205.57   0.001171    5.92  0.000114  (-0.002659  0.002593 -0.010011)
147:   3211.26   0.000829    4.19  0.000081  (-0.001938 -0.008563  0.001866)
148:   3803.37   0.044276  223.75  0.003633  ( 0.049319  0.027474 -0.021110)
149:   3807.17   0.038833  196.25  0.003183  (-0.038918 -0.033863  0.022841)

* The epsilon (eps) is given for a Dirac delta lineshape.
** The dipole moment derivative (T) already includes vibrational overlap.

The first frequency considered to be a vibration is 7
The total number of vibrations considered is 143


--------------------------
THERMOCHEMISTRY AT 363.15K
--------------------------

Temperature         ... 363.15 K
Pressure            ... 1.00 atm
Total Mass          ... 414.39 AMU

Throughout the following assumptions are being made:
  (1) The electronic state is orbitally nondegenerate
      but the spin degeneracy is treated
  (2) There are no thermally accessible electronically excited states
  (3) Hindered rotations indicated by low frequency modes are not
      treated as such but are treated as vibrations and this may
      cause some error
  (4) All equations used are the standard statistical mechanics
      equations for an ideal gas
  (5) All vibrations are strictly harmonic

freq.      11.26  E(vib)   ...       0.71 
freq.      20.09  E(vib)   ...       0.69 
freq.      25.53  E(vib)   ...       0.69 
freq.      37.76  E(vib)   ...       0.67 
freq.      50.76  E(vib)   ...       0.65 
freq.      58.72  E(vib)   ...       0.64 
freq.      67.50  E(vib)   ...       0.63 
freq.      78.46  E(vib)   ...       0.62 
freq.      84.70  E(vib)   ...       0.61 
freq.      86.07  E(vib)   ...       0.61 
freq.     108.11  E(vib)   ...       0.58 
freq.     116.76  E(vib)   ...       0.57 
freq.     121.38  E(vib)   ...       0.56 
freq.     138.22  E(vib)   ...       0.54 
freq.     153.64  E(vib)   ...       0.52 
freq.     160.11  E(vib)   ...       0.52 
freq.     160.75  E(vib)   ...       0.52 
freq.     171.53  E(vib)   ...       0.50 
freq.     184.27  E(vib)   ...       0.49 
freq.     185.37  E(vib)   ...       0.49 
freq.     200.99  E(vib)   ...       0.47 
freq.     222.69  E(vib)   ...       0.45 
freq.     230.01  E(vib)   ...       0.44 
freq.     253.22  E(vib)   ...       0.42 
freq.     280.19  E(vib)   ...       0.39 
freq.     301.56  E(vib)   ...       0.37 
freq.     305.82  E(vib)   ...       0.37 
freq.     317.38  E(vib)   ...       0.36 
freq.     327.55  E(vib)   ...       0.35 
freq.     341.64  E(vib)   ...       0.34 
freq.     384.71  E(vib)   ...       0.31 
freq.     390.46  E(vib)   ...       0.30 
freq.     404.02  E(vib)   ...       0.29 
freq.     410.65  E(vib)   ...       0.29 
freq.     419.48  E(vib)   ...       0.28 
freq.     430.44  E(vib)   ...       0.27 
freq.     443.37  E(vib)   ...       0.26 
freq.     460.68  E(vib)   ...       0.25 
freq.     471.03  E(vib)   ...       0.25 
freq.     479.25  E(vib)   ...       0.24 
freq.     485.88  E(vib)   ...       0.24 
freq.     503.84  E(vib)   ...       0.23 
freq.     528.45  E(vib)   ...       0.21 
freq.     538.48  E(vib)   ...       0.21 
freq.     566.98  E(vib)   ...       0.19 
freq.     575.53  E(vib)   ...       0.19 
freq.     579.28  E(vib)   ...       0.19 
freq.     596.79  E(vib)   ...       0.18 
freq.     615.35  E(vib)   ...       0.17 
freq.     618.78  E(vib)   ...       0.17 
freq.     624.01  E(vib)   ...       0.16 
freq.     659.35  E(vib)   ...       0.15 
freq.     690.64  E(vib)   ...       0.14 
freq.     727.15  E(vib)   ...       0.12 
freq.     732.14  E(vib)   ...       0.12 
freq.     750.62  E(vib)   ...       0.12 
freq.     769.61  E(vib)   ...       0.11 
freq.     772.95  E(vib)   ...       0.11 
freq.     809.77  E(vib)   ...       0.10 
freq.     820.37  E(vib)   ...       0.09 
freq.     826.52  E(vib)   ...       0.09 
freq.     836.25  E(vib)   ...       0.09 
freq.     842.30  E(vib)   ...       0.09 
freq.     858.46  E(vib)   ...       0.08 
freq.     878.90  E(vib)   ...       0.08 
freq.     895.47  E(vib)   ...       0.08 
freq.     921.52  E(vib)   ...       0.07 
freq.     940.95  E(vib)   ...       0.07 
freq.     956.27  E(vib)   ...       0.06 
freq.     958.16  E(vib)   ...       0.06 
freq.     965.04  E(vib)   ...       0.06 
freq.     970.33  E(vib)   ...       0.06 
freq.     990.23  E(vib)   ...       0.06 
freq.    1010.77  E(vib)   ...       0.05 
freq.    1024.00  E(vib)   ...       0.05 
freq.    1028.03  E(vib)   ...       0.05 
freq.    1058.45  E(vib)   ...       0.05 
freq.    1094.35  E(vib)   ...       0.04 
freq.    1134.52  E(vib)   ...       0.04 
freq.    1144.32  E(vib)   ...       0.04 
freq.    1173.06  E(vib)   ...       0.03 
freq.    1176.49  E(vib)   ...       0.03 
freq.    1178.24  E(vib)   ...       0.03 
freq.    1187.23  E(vib)   ...       0.03 
freq.    1192.21  E(vib)   ...       0.03 
freq.    1203.59  E(vib)   ...       0.03 
freq.    1215.67  E(vib)   ...       0.03 
freq.    1220.84  E(vib)   ...       0.03 
freq.    1232.18  E(vib)   ...       0.03 
freq.    1252.37  E(vib)   ...       0.03 
freq.    1271.65  E(vib)   ...       0.02 
freq.    1289.35  E(vib)   ...       0.02 
freq.    1292.00  E(vib)   ...       0.02 
freq.    1300.39  E(vib)   ...       0.02 
freq.    1309.89  E(vib)   ...       0.02 
freq.    1318.29  E(vib)   ...       0.02 
freq.    1323.18  E(vib)   ...       0.02 
freq.    1332.73  E(vib)   ...       0.02 
freq.    1344.60  E(vib)   ...       0.02 
freq.    1362.03  E(vib)   ...       0.02 
freq.    1371.66  E(vib)   ...       0.02 
freq.    1373.84  E(vib)   ...       0.02 
freq.    1385.02  E(vib)   ...       0.02 
freq.    1450.08  E(vib)   ...       0.01 
freq.    1465.71  E(vib)   ...       0.01 
freq.    1468.35  E(vib)   ...       0.01 
freq.    1482.37  E(vib)   ...       0.01 
freq.    1484.45  E(vib)   ...       0.01 
freq.    1486.95  E(vib)   ...       0.01 
freq.    1488.08  E(vib)   ...       0.01 
freq.    1493.54  E(vib)   ...       0.01 
freq.    1497.46  E(vib)   ...       0.01 
freq.    1501.54  E(vib)   ...       0.01 
freq.    1553.99  E(vib)   ...       0.01 
freq.    1561.80  E(vib)   ...       0.01 
freq.    1635.80  E(vib)   ...       0.01 
freq.    1656.48  E(vib)   ...       0.01 
freq.    1662.08  E(vib)   ...       0.01 
freq.    1665.01  E(vib)   ...       0.01 
freq.    1678.88  E(vib)   ...       0.01 
freq.    1713.96  E(vib)   ...       0.01 
freq.    1717.96  E(vib)   ...       0.01 
freq.    1741.72  E(vib)   ...       0.01 
freq.    1768.21  E(vib)   ...       0.00 
freq.    3043.54  E(vib)   ...       0.00 
freq.    3063.85  E(vib)   ...       0.00 
freq.    3105.01  E(vib)   ...       0.00 
freq.    3117.95  E(vib)   ...       0.00 
freq.    3143.69  E(vib)   ...       0.00 
freq.    3160.17  E(vib)   ...       0.00 
freq.    3162.83  E(vib)   ...       0.00 
freq.    3180.19  E(vib)   ...       0.00 
freq.    3180.23  E(vib)   ...       0.00 
freq.    3181.91  E(vib)   ...       0.00 
freq.    3184.57  E(vib)   ...       0.00 
freq.    3187.28  E(vib)   ...       0.00 
freq.    3191.70  E(vib)   ...       0.00 
freq.    3194.88  E(vib)   ...       0.00 
freq.    3198.71  E(vib)   ...       0.00 
freq.    3205.57  E(vib)   ...       0.00 
freq.    3211.26  E(vib)   ...       0.00 
freq.    3803.37  E(vib)   ...       0.00 
freq.    3807.17  E(vib)   ...       0.00 

------------
INNER ENERGY
------------

The inner energy is: U= E(el) + E(ZPE) + E(vib) + E(rot) + E(trans)
    E(el)   - is the total energy from the electronic structure calculation
              = E(kin-el) + E(nuc-el) + E(el-el) + E(nuc-nuc)
    E(ZPE)  - the the zero temperature vibrational energy from the frequency calculation
    E(vib)  - the the finite temperature correction to E(ZPE) due to population
              of excited vibrational states
    E(rot)  - is the rotational thermal energy
    E(trans)- is the translational thermal energy

Summary of contributions to the inner energy U:
Electronic energy                ...  -1468.42248363 Eh
Zero point energy                ...      0.37635733 Eh     236.17 kcal/mol
Thermal vibrational correction   ...      0.03779247 Eh      23.72 kcal/mol
Thermal rotational correction    ...      0.00172503 Eh       1.08 kcal/mol
Thermal translational correction ...      0.00172503 Eh       1.08 kcal/mol
-----------------------------------------------------------------------
Total thermal energy                  -1468.00488376 Eh


Summary of corrections to the electronic energy:
(perhaps to be used in another calculation)
Total thermal correction                  0.04124254 Eh      25.88 kcal/mol
Non-thermal (ZPE) correction              0.37635733 Eh     236.17 kcal/mol
-----------------------------------------------------------------------
Total correction                          0.41759987 Eh     262.05 kcal/mol


--------
ENTHALPY
--------

The enthalpy is H = U + kB*T
                kB is Boltzmann's constant
Total free energy                 ...  -1468.00488376 Eh 
Thermal Enthalpy correction       ...      0.00115006 Eh       0.72 kcal/mol
-----------------------------------------------------------------------
Total Enthalpy                    ...  -1468.00373371 Eh


Note: Only C1 symmetry has been detected, increase convergence thresholds 
      if your molecule has a higher symmetry. Symmetry factor of 1.0 is   
      used for the rotational entropy correction. 
 

Note: Rotational entropy computed according to Herzberg 
Infrared and Raman Spectra, Chapter V,1, Van Nostrand Reinhold, 1945 
Point Group:  C1, Symmetry Number:   1  
Rotational constants in cm-1:     0.011221     0.001668     0.001618 

Vibrational entropy computed according to the QRRHO of S. Grimme
Chem.Eur.J. 2012 18 9955


-------
ENTROPY
-------

The entropy contributions are T*S = T*(S(el)+S(vib)+S(rot)+S(trans))
     S(el)   - electronic entropy
     S(vib)  - vibrational entropy
     S(rot)  - rotational entropy
     S(trans)- translational entropy
The entropies will be listed as multiplied by the temperature to get
units of energy

Electronic entropy                ...      0.00079714 Eh      0.50 kcal/mol
Vibrational entropy               ...      0.06941670 Eh     43.56 kcal/mol
Rotational entropy                ...      0.02187926 Eh     13.73 kcal/mol
Translational entropy             ...      0.02600477 Eh     16.32 kcal/mol
-----------------------------------------------------------------------
Final entropy term                ...      0.11809786 Eh     74.11 kcal/mol

In case the symmetry of your molecule has not been determined correctly
or in case you have a reason to use a different symmetry number we print 
out the resulting rotational entropy values for sn=1,12 :
 --------------------------------------------------------
|  sn= 1 | S(rot)=       0.02187926 Eh     13.73 kcal/mol|
|  sn= 2 | S(rot)=       0.02108212 Eh     13.23 kcal/mol|
|  sn= 3 | S(rot)=       0.02061583 Eh     12.94 kcal/mol|
|  sn= 4 | S(rot)=       0.02028499 Eh     12.73 kcal/mol|
|  sn= 5 | S(rot)=       0.02002837 Eh     12.57 kcal/mol|
|  sn= 6 | S(rot)=       0.01981869 Eh     12.44 kcal/mol|
|  sn= 7 | S(rot)=       0.01964142 Eh     12.33 kcal/mol|
|  sn= 8 | S(rot)=       0.01948785 Eh     12.23 kcal/mol|
|  sn= 9 | S(rot)=       0.01935240 Eh     12.14 kcal/mol|
|  sn=10 | S(rot)=       0.01923123 Eh     12.07 kcal/mol|
|  sn=11 | S(rot)=       0.01912162 Eh     12.00 kcal/mol|
|  sn=12 | S(rot)=       0.01902156 Eh     11.94 kcal/mol|
 --------------------------------------------------------


-------------------
GIBBS FREE ENERGY
-------------------

The Gibbs free energy is G = H - T*S

Total enthalpy                    ...  -1468.00373371 Eh 
Total entropy correction          ...     -0.11809786 Eh    -74.11 kcal/mol
-----------------------------------------------------------------------
Final Gibbs free energy         ...  -1468.12183157 Eh

For completeness - the Gibbs free energy minus the electronic energy
G-E(el)                           ...      0.30065207 Eh    188.66 kcal/mol



Timings for individual modules:

Sum of individual times         ...   431484.118 sec (=7191.402 min)
GTO integral calculation        ...       34.505 sec (=   0.575 min)   0.0 %
SCF iterations                  ...    35106.833 sec (= 585.114 min)   8.1 %
SCF Gradient evaluation         ...     6700.843 sec (= 111.681 min)   1.6 %
Geometry relaxation             ...        2.328 sec (=   0.039 min)   0.0 %
Numerical frequency calculation ...   389639.610 sec (=6493.993 min)  90.3 %
                             ****ORCA TERMINATED NORMALLY****
TOTAL RUN TIME: 4 days 23 hours 38 minutes 49 seconds 546 msec
