 Entering Gaussian System, Link 0=g16
 Initial command:
 /sw/cluster/pub/apps//g16/l1.exe "/data/natrosa/25355/Gau-1291674.inp" -scrdir="/data/natrosa/25355/"
 Entering Link 1 = /sw/cluster/pub/apps//g16/l1.exe PID=   1291675.
  
 Copyright (c) 1988,1990,1992,1993,1995,1998,2003,2009,2016,
            Gaussian, Inc.  All Rights Reserved.
  
 This is part of the Gaussian(R) 16 program.  It is based on
 the Gaussian(R) 09 system (copyright 2009, Gaussian, Inc.),
 the Gaussian(R) 03 system (copyright 2003, Gaussian, Inc.),
 the Gaussian(R) 98 system (copyright 1998, Gaussian, Inc.),
 the Gaussian(R) 94 system (copyright 1995, Gaussian, Inc.),
 the Gaussian 92(TM) system (copyright 1992, Gaussian, Inc.),
 the Gaussian 90(TM) system (copyright 1990, Gaussian, Inc.),
 the Gaussian 88(TM) system (copyright 1988, Gaussian, Inc.),
 the Gaussian 86(TM) system (copyright 1986, Carnegie Mellon
 University), and the Gaussian 82(TM) system (copyright 1983,
 Carnegie Mellon University). Gaussian is a federally registered
 trademark of Gaussian, Inc.
  
 This software contains proprietary and confidential information,
 including trade secrets, belonging to Gaussian, Inc.
  
 This software is provided under written license and may be
 used, copied, transmitted, or stored only in accord with that
 written license.
  
 The following legend is applicable only to US Government
 contracts under FAR:
  
                    RESTRICTED RIGHTS LEGEND
  
 Use, reproduction and disclosure by the US Government is
 subject to restrictions as set forth in subparagraphs (a)
 and (c) of the Commercial Computer Software - Restricted
 Rights clause in FAR 52.227-19.
  
 Gaussian, Inc.
 340 Quinnipiac St., Bldg. 40, Wallingford CT 06492
  
  
 ---------------------------------------------------------------
 Warning -- This program may not be used in any manner that
 competes with the business of Gaussian, Inc. or will provide
 assistance to any competitor of Gaussian, Inc.  The licensee
 of this program is prohibited from giving any competitor of
 Gaussian, Inc. access to this program.  By using this program,
 the user acknowledges that Gaussian, Inc. is engaged in the
 business of creating and licensing software in the field of
 computational chemistry and represents and warrants to the
 licensee that it is not a competitor of Gaussian, Inc. and that
 it will not use this program in any manner prohibited above.
 ---------------------------------------------------------------
  

 Cite this work as:
 Gaussian 16, Revision A.03,
 M. J. Frisch, G. W. Trucks, H. B. Schlegel, G. E. Scuseria, 
 M. A. Robb, J. R. Cheeseman, G. Scalmani, V. Barone, 
 G. A. Petersson, H. Nakatsuji, X. Li, M. Caricato, A. V. Marenich, 
 J. Bloino, B. G. Janesko, R. Gomperts, B. Mennucci, H. P. Hratchian, 
 J. V. Ortiz, A. F. Izmaylov, J. L. Sonnenberg, D. Williams-Young, 
 F. Ding, F. Lipparini, F. Egidi, J. Goings, B. Peng, A. Petrone, 
 T. Henderson, D. Ranasinghe, V. G. Zakrzewski, J. Gao, N. Rega, 
 G. Zheng, W. Liang, M. Hada, M. Ehara, K. Toyota, R. Fukuda, 
 J. Hasegawa, M. Ishida, T. Nakajima, Y. Honda, O. Kitao, H. Nakai, 
 T. Vreven, K. Throssell, J. A. Montgomery, Jr., J. E. Peralta, 
 F. Ogliaro, M. J. Bearpark, J. J. Heyd, E. N. Brothers, K. N. Kudin, 
 V. N. Staroverov, T. A. Keith, R. Kobayashi, J. Normand, 
 K. Raghavachari, A. P. Rendell, J. C. Burant, S. S. Iyengar, 
 J. Tomasi, M. Cossi, J. M. Millam, M. Klene, C. Adamo, R. Cammi, 
 J. W. Ochterski, R. L. Martin, K. Morokuma, O. Farkas, 
 J. B. Foresman, and D. J. Fox, Gaussian, Inc., Wallingford CT, 2016.
 
 ******************************************
 Gaussian 16:  ES64L-G16RevA.03 25-Dec-2016
                 4-Nov-2024 
 ******************************************
 %oldchk=/home/natrosa/MOSSRI/REACAO-1/M06-2X-6-311G-D/CURCUMIN-OPT-FREQ-TS-M06-2
 X-6-311G-D-298.chk
 %chk=CURCUMIN-OPT-FREQ-TS-M06-2X-6-311G-D-363.chk
 Copying data from "/home/natrosa/MOSSRI/REACAO-1/M06-2X-6-311G-D/CURCUMIN-OPT-FREQ-TS-M06-2X-6-311G-D-298.chk" to current chk file "CURCUMIN-OPT-FREQ-TS-M06-2X-6-311G-D-363.chk"
 IOpt=  2 FromEx=T IUOpen= 4 IOptOp= 5 NList=   0 IFRang= 0 IUIn= 4 IUOut= 2.
 ----------------------------------------------------------------------
 # opt=(calcfc,noeigen,ts) freq=noraman M062X/6-311g(d) scrf=(smd,solve
 nt=generic,read) temperature=363.15 Geom=Check Guess=Read
 ----------------------------------------------------------------------
 1/5=1,10=4,11=1,18=20,26=3,29=2,38=1,40=2,112=363150/1,3;
 2/9=110,12=2,40=1/2;
 3/5=4,6=6,7=1,11=2,14=-4,25=1,30=1,70=32203,71=2,72=-2,74=-55,116=-2,140=1/1,2,3;
 4/5=1/1;
 5/5=2,38=6/2;
 8/6=4,10=90,11=11/1;
 11/6=1,8=1,9=11,15=111,16=1/1,2,10;
 10/6=1,13=1/2;
 6/7=2,8=2,9=2,10=2,28=1/1;
 7/10=1,18=20,25=1/1,2,3,16;
 1/5=1,10=4,11=1,18=20,26=3/3(2);
 2/9=110/2;
 99//99;
 2/9=110/2;
 3/5=4,6=6,7=1,11=2,14=-2,25=1,30=1,70=32205,71=1,72=-2,74=-55/1,2,3;
 4/5=5,16=3,69=1/1;
 5/5=2,38=5/2;
 7//1,2,3,16;
 1/5=1,11=1,18=20,26=3/3(-5);
 2/9=110/2;
 6/7=2,8=2,9=2,10=2,19=2,28=1/1;
 99/9=1/99;
 --------------
 TS1 - reacao 1
 --------------
 Structure from the checkpoint file:  "CURCUMIN-OPT-FREQ-TS-M06-2X-6-311G-D-363.chk"
 Charge =  0 Multiplicity = 2
 Redundant internal coordinates found in file.  (old form).
 C,0,2.2253347478,1.3014082344,0.0534496474
 H,0,1.8743308119,2.1093384308,-0.5823857735
 C,0,1.5002884446,0.9385008677,1.1216714371
 H,0,1.8206302303,0.1636601069,1.8129422199
 C,0,0.2135254633,1.5602305482,1.4949124875
 O,0,-0.37688767,1.1824320464,2.4845813681
 C,0,3.5169982967,0.7473788537,-0.3394170628
 C,0,4.3942693977,1.5327711145,-1.0804223736
 C,0,4.0219007648,-0.4935716744,0.1196251248
 C,0,5.6823369876,1.1101586331,-1.3911035981
 H,0,4.0624475484,2.5095356424,-1.4138882793
 C,0,5.2747590977,-0.9852949314,-0.2647047034
 H,0,4.3670557924,0.066057653,1.8310942909
 C,0,6.1315414097,-0.1423781363,-0.9838576253
 H,0,6.3413304146,1.7513611857,-1.9680161459
 O,0,7.3526887343,-0.6322514233,-1.271122379
 H,0,7.8541622022,0.0073950214,-1.793959766
 O,0,5.6378374253,-2.2467723189,0.0559786431
 C,0,6.4727171559,-2.325658005,1.2215384852
 H,0,5.9426685683,-1.9276042404,2.0895841078
 H,0,6.6837163525,-3.3820728627,1.3708464913
 H,0,7.4040447684,-1.7799848547,1.0605558957
 C,0,-2.8779722605,1.1198884001,0.3287544644
 H,0,-2.5257309647,1.4332388466,1.3085106333
 C,0,-2.149593111,1.4286745562,-0.7561559037
 H,0,-2.4485299816,1.1241855182,-1.7546526182
 C,0,-0.8869296397,2.1819302126,-0.716124995
 O,0,-0.2725551937,2.4107143916,-1.7386042741
 C,0,-4.1306340705,0.3674382148,0.3474507876
 C,0,-4.735339943,0.0973512613,1.5773813474
 C,0,-4.7608404365,-0.0941919435,-0.8195190096
 C,0,-5.9239411703,-0.6178393603,1.649277553
 H,0,-4.2653254919,0.4440533578,2.4915361298
 C,0,-5.9408625157,-0.8079909727,-0.7609386
 H,0,-4.3345784542,0.085941285,-1.8003427632
 C,0,-6.5342757838,-1.0773702277,0.4875546154
 H,0,-6.3791487549,-0.8295072823,2.6121370739
 O,0,-7.6826907557,-1.7905226936,0.4846712941
 H,0,-7.990657007,-1.9203324219,1.3909653107
 O,0,-6.5098284331,-1.2803136093,-1.9077787643
 C,0,-7.6865118727,-0.5733253669,-2.2981428853
 H,0,-7.4551766554,0.4808120581,-2.4777736801
 H,0,-8.0303005948,-1.0320535238,-3.2236257601
 H,0,-8.4664750716,-0.6561428713,-1.5389605723
 C,0,-0.353779077,2.6800921116,0.6280785244
 H,0,-1.1474413095,3.1605020247,1.1997628001
 H,0,0.4183314973,3.4188381027,0.4126730836
 O,0,3.2913282667,-2.0825572869,1.6586159777
 O,0,2.1898020164,-1.8443519481,-0.170948389
 N,0,3.0827078238,-1.5563247237,0.5902131274
 Recover connectivity data from disk.

 GradGradGradGradGradGradGradGradGradGradGradGradGradGradGradGradGradGrad
 Berny optimization.
 Initialization pass.
                           ----------------------------
                           !    Initial Parameters    !
                           ! (Angstroms and Degrees)  !
 --------------------------                            --------------------------
 ! Name  Definition              Value          Derivative Info.                !
 --------------------------------------------------------------------------------
 ! R1    R(1,2)                  1.0864         calculate D2E/DX2 analytically  !
 ! R2    R(1,3)                  1.3411         calculate D2E/DX2 analytically  !
 ! R3    R(1,7)                  1.4593         calculate D2E/DX2 analytically  !
 ! R4    R(3,4)                  1.0867         calculate D2E/DX2 analytically  !
 ! R5    R(3,5)                  1.477          calculate D2E/DX2 analytically  !
 ! R6    R(5,6)                  1.2128         calculate D2E/DX2 analytically  !
 ! R7    R(5,45)                 1.5256         calculate D2E/DX2 analytically  !
 ! R8    R(7,8)                  1.3912         calculate D2E/DX2 analytically  !
 ! R9    R(7,9)                  1.4162         calculate D2E/DX2 analytically  !
 ! R10   R(8,10)                 1.3908         calculate D2E/DX2 analytically  !
 ! R11   R(8,11)                 1.0841         calculate D2E/DX2 analytically  !
 ! R12   R(9,12)                 1.3997         calculate D2E/DX2 analytically  !
 ! R13   R(9,13)                 1.8334         calculate D2E/DX2 analytically  !
 ! R14   R(9,50)                 1.4943         calculate D2E/DX2 analytically  !
 ! R15   R(10,14)                1.3916         calculate D2E/DX2 analytically  !
 ! R16   R(10,15)                1.0855         calculate D2E/DX2 analytically  !
 ! R17   R(12,14)                1.4006         calculate D2E/DX2 analytically  !
 ! R18   R(12,18)                1.3513         calculate D2E/DX2 analytically  !
 ! R19   R(14,16)                1.3467         calculate D2E/DX2 analytically  !
 ! R20   R(16,17)                0.9664         calculate D2E/DX2 analytically  !
 ! R21   R(18,19)                1.4359         calculate D2E/DX2 analytically  !
 ! R22   R(19,20)                1.0922         calculate D2E/DX2 analytically  !
 ! R23   R(19,21)                1.0876         calculate D2E/DX2 analytically  !
 ! R24   R(19,22)                1.0914         calculate D2E/DX2 analytically  !
 ! R25   R(23,24)                1.0873         calculate D2E/DX2 analytically  !
 ! R26   R(23,25)                1.3427         calculate D2E/DX2 analytically  !
 ! R27   R(23,29)                1.4614         calculate D2E/DX2 analytically  !
 ! R28   R(25,26)                1.0859         calculate D2E/DX2 analytically  !
 ! R29   R(25,27)                1.4708         calculate D2E/DX2 analytically  !
 ! R30   R(27,28)                1.2146         calculate D2E/DX2 analytically  !
 ! R31   R(27,45)                1.5295         calculate D2E/DX2 analytically  !
 ! R32   R(29,30)                1.3969         calculate D2E/DX2 analytically  !
 ! R33   R(29,31)                1.4043         calculate D2E/DX2 analytically  !
 ! R34   R(30,32)                1.389          calculate D2E/DX2 analytically  !
 ! R35   R(30,33)                1.0848         calculate D2E/DX2 analytically  !
 ! R36   R(31,34)                1.3804         calculate D2E/DX2 analytically  !
 ! R37   R(31,35)                1.0845         calculate D2E/DX2 analytically  !
 ! R38   R(32,36)                1.3904         calculate D2E/DX2 analytically  !
 ! R39   R(32,37)                1.0859         calculate D2E/DX2 analytically  !
 ! R40   R(34,36)                1.4083         calculate D2E/DX2 analytically  !
 ! R41   R(34,40)                1.3646         calculate D2E/DX2 analytically  !
 ! R42   R(36,38)                1.3518         calculate D2E/DX2 analytically  !
 ! R43   R(38,39)                0.966          calculate D2E/DX2 analytically  !
 ! R44   R(40,41)                1.4272         calculate D2E/DX2 analytically  !
 ! R45   R(41,42)                1.0941         calculate D2E/DX2 analytically  !
 ! R46   R(41,43)                1.0886         calculate D2E/DX2 analytically  !
 ! R47   R(41,44)                1.0916         calculate D2E/DX2 analytically  !
 ! R48   R(45,46)                1.0897         calculate D2E/DX2 analytically  !
 ! R49   R(45,47)                1.0901         calculate D2E/DX2 analytically  !
 ! R50   R(48,50)                1.2091         calculate D2E/DX2 analytically  !
 ! R51   R(49,50)                1.2081         calculate D2E/DX2 analytically  !
 ! A1    A(2,1,3)              119.5224         calculate D2E/DX2 analytically  !
 ! A2    A(2,1,7)              114.2515         calculate D2E/DX2 analytically  !
 ! A3    A(3,1,7)              126.1728         calculate D2E/DX2 analytically  !
 ! A4    A(1,3,4)              122.7031         calculate D2E/DX2 analytically  !
 ! A5    A(1,3,5)              123.9435         calculate D2E/DX2 analytically  !
 ! A6    A(4,3,5)              113.3415         calculate D2E/DX2 analytically  !
 ! A7    A(3,5,6)              119.9477         calculate D2E/DX2 analytically  !
 ! A8    A(3,5,45)             119.2993         calculate D2E/DX2 analytically  !
 ! A9    A(6,5,45)             120.7523         calculate D2E/DX2 analytically  !
 ! A10   A(1,7,8)              119.1556         calculate D2E/DX2 analytically  !
 ! A11   A(1,7,9)              124.1222         calculate D2E/DX2 analytically  !
 ! A12   A(8,7,9)              116.2638         calculate D2E/DX2 analytically  !
 ! A13   A(7,8,10)             122.1031         calculate D2E/DX2 analytically  !
 ! A14   A(7,8,11)             118.649          calculate D2E/DX2 analytically  !
 ! A15   A(10,8,11)            119.2438         calculate D2E/DX2 analytically  !
 ! A16   A(7,9,12)             122.5443         calculate D2E/DX2 analytically  !
 ! A17   A(7,9,13)              95.8675         calculate D2E/DX2 analytically  !
 ! A18   A(7,9,50)             120.0789         calculate D2E/DX2 analytically  !
 ! A19   A(12,9,13)            101.2471         calculate D2E/DX2 analytically  !
 ! A20   A(12,9,50)            113.528          calculate D2E/DX2 analytically  !
 ! A21   A(13,9,50)             92.3747         calculate D2E/DX2 analytically  !
 ! A22   A(8,10,14)            120.4708         calculate D2E/DX2 analytically  !
 ! A23   A(8,10,15)            120.0993         calculate D2E/DX2 analytically  !
 ! A24   A(14,10,15)           119.4234         calculate D2E/DX2 analytically  !
 ! A25   A(9,12,14)            118.4962         calculate D2E/DX2 analytically  !
 ! A26   A(9,12,18)            120.2183         calculate D2E/DX2 analytically  !
 ! A27   A(14,12,18)           121.2854         calculate D2E/DX2 analytically  !
 ! A28   A(10,14,12)           119.6356         calculate D2E/DX2 analytically  !
 ! A29   A(10,14,16)           123.8956         calculate D2E/DX2 analytically  !
 ! A30   A(12,14,16)           116.4412         calculate D2E/DX2 analytically  !
 ! A31   A(14,16,17)           110.1909         calculate D2E/DX2 analytically  !
 ! A32   A(12,18,19)           113.5876         calculate D2E/DX2 analytically  !
 ! A33   A(18,19,20)           110.0563         calculate D2E/DX2 analytically  !
 ! A34   A(18,19,21)           106.1174         calculate D2E/DX2 analytically  !
 ! A35   A(18,19,22)           110.4247         calculate D2E/DX2 analytically  !
 ! A36   A(20,19,21)           109.8191         calculate D2E/DX2 analytically  !
 ! A37   A(20,19,22)           110.4356         calculate D2E/DX2 analytically  !
 ! A38   A(21,19,22)           109.8988         calculate D2E/DX2 analytically  !
 ! A39   A(24,23,25)           119.0825         calculate D2E/DX2 analytically  !
 ! A40   A(24,23,29)           114.491          calculate D2E/DX2 analytically  !
 ! A41   A(25,23,29)           126.4217         calculate D2E/DX2 analytically  !
 ! A42   A(23,25,26)           121.9488         calculate D2E/DX2 analytically  !
 ! A43   A(23,25,27)           124.1578         calculate D2E/DX2 analytically  !
 ! A44   A(26,25,27)           113.8897         calculate D2E/DX2 analytically  !
 ! A45   A(25,27,28)           120.5168         calculate D2E/DX2 analytically  !
 ! A46   A(25,27,45)           119.339          calculate D2E/DX2 analytically  !
 ! A47   A(28,27,45)           120.144          calculate D2E/DX2 analytically  !
 ! A48   A(23,29,30)           118.8078         calculate D2E/DX2 analytically  !
 ! A49   A(23,29,31)           122.9079         calculate D2E/DX2 analytically  !
 ! A50   A(30,29,31)           118.2837         calculate D2E/DX2 analytically  !
 ! A51   A(29,30,32)           121.0339         calculate D2E/DX2 analytically  !
 ! A52   A(29,30,33)           119.5124         calculate D2E/DX2 analytically  !
 ! A53   A(32,30,33)           119.4516         calculate D2E/DX2 analytically  !
 ! A54   A(29,31,34)           121.222          calculate D2E/DX2 analytically  !
 ! A55   A(29,31,35)           121.3697         calculate D2E/DX2 analytically  !
 ! A56   A(34,31,35)           117.4047         calculate D2E/DX2 analytically  !
 ! A57   A(30,32,36)           120.1678         calculate D2E/DX2 analytically  !
 ! A58   A(30,32,37)           120.3299         calculate D2E/DX2 analytically  !
 ! A59   A(36,32,37)           119.5003         calculate D2E/DX2 analytically  !
 ! A60   A(31,34,36)           119.7841         calculate D2E/DX2 analytically  !
 ! A61   A(31,34,40)           119.9843         calculate D2E/DX2 analytically  !
 ! A62   A(36,34,40)           120.2089         calculate D2E/DX2 analytically  !
 ! A63   A(32,36,34)           119.5058         calculate D2E/DX2 analytically  !
 ! A64   A(32,36,38)           123.301          calculate D2E/DX2 analytically  !
 ! A65   A(34,36,38)           117.1915         calculate D2E/DX2 analytically  !
 ! A66   A(36,38,39)           109.861          calculate D2E/DX2 analytically  !
 ! A67   A(34,40,41)           113.7151         calculate D2E/DX2 analytically  !
 ! A68   A(40,41,42)           110.3573         calculate D2E/DX2 analytically  !
 ! A69   A(40,41,43)           106.5086         calculate D2E/DX2 analytically  !
 ! A70   A(40,41,44)           111.1801         calculate D2E/DX2 analytically  !
 ! A71   A(42,41,43)           109.4626         calculate D2E/DX2 analytically  !
 ! A72   A(42,41,44)           109.7777         calculate D2E/DX2 analytically  !
 ! A73   A(43,41,44)           109.4897         calculate D2E/DX2 analytically  !
 ! A74   A(5,45,27)            112.9491         calculate D2E/DX2 analytically  !
 ! A75   A(5,45,46)            107.2392         calculate D2E/DX2 analytically  !
 ! A76   A(5,45,47)            110.2647         calculate D2E/DX2 analytically  !
 ! A77   A(27,45,46)           110.5346         calculate D2E/DX2 analytically  !
 ! A78   A(27,45,47)           107.0954         calculate D2E/DX2 analytically  !
 ! A79   A(46,45,47)           108.7091         calculate D2E/DX2 analytically  !
 ! A80   A(9,50,48)            118.6436         calculate D2E/DX2 analytically  !
 ! A81   A(9,50,49)            115.8274         calculate D2E/DX2 analytically  !
 ! A82   A(48,50,49)           125.4838         calculate D2E/DX2 analytically  !
 ! D1    D(2,1,3,4)           -177.6364         calculate D2E/DX2 analytically  !
 ! D2    D(2,1,3,5)              1.0215         calculate D2E/DX2 analytically  !
 ! D3    D(7,1,3,4)             -0.4531         calculate D2E/DX2 analytically  !
 ! D4    D(7,1,3,5)            178.2048         calculate D2E/DX2 analytically  !
 ! D5    D(2,1,7,8)             23.9038         calculate D2E/DX2 analytically  !
 ! D6    D(2,1,7,9)           -164.166          calculate D2E/DX2 analytically  !
 ! D7    D(3,1,7,8)           -153.408          calculate D2E/DX2 analytically  !
 ! D8    D(3,1,7,9)             18.5222         calculate D2E/DX2 analytically  !
 ! D9    D(1,3,5,6)           -179.3655         calculate D2E/DX2 analytically  !
 ! D10   D(1,3,5,45)             0.3383         calculate D2E/DX2 analytically  !
 ! D11   D(4,3,5,6)             -0.5955         calculate D2E/DX2 analytically  !
 ! D12   D(4,3,5,45)           179.1084         calculate D2E/DX2 analytically  !
 ! D13   D(3,5,45,27)           72.1377         calculate D2E/DX2 analytically  !
 ! D14   D(3,5,45,46)         -165.8413         calculate D2E/DX2 analytically  !
 ! D15   D(3,5,45,47)          -47.6395         calculate D2E/DX2 analytically  !
 ! D16   D(6,5,45,27)         -108.1609         calculate D2E/DX2 analytically  !
 ! D17   D(6,5,45,46)           13.8601         calculate D2E/DX2 analytically  !
 ! D18   D(6,5,45,47)          132.0619         calculate D2E/DX2 analytically  !
 ! D19   D(1,7,8,10)           174.472          calculate D2E/DX2 analytically  !
 ! D20   D(1,7,8,11)            -4.7854         calculate D2E/DX2 analytically  !
 ! D21   D(9,7,8,10)             1.9179         calculate D2E/DX2 analytically  !
 ! D22   D(9,7,8,11)          -177.3394         calculate D2E/DX2 analytically  !
 ! D23   D(1,7,9,12)          -179.0971         calculate D2E/DX2 analytically  !
 ! D24   D(1,7,9,13)           -71.7493         calculate D2E/DX2 analytically  !
 ! D25   D(1,7,9,50)            24.4309         calculate D2E/DX2 analytically  !
 ! D26   D(8,7,9,12)            -6.9544         calculate D2E/DX2 analytically  !
 ! D27   D(8,7,9,13)           100.3934         calculate D2E/DX2 analytically  !
 ! D28   D(8,7,9,50)          -163.4264         calculate D2E/DX2 analytically  !
 ! D29   D(7,8,10,14)            1.1913         calculate D2E/DX2 analytically  !
 ! D30   D(7,8,10,15)         -179.7432         calculate D2E/DX2 analytically  !
 ! D31   D(11,8,10,14)        -179.5556         calculate D2E/DX2 analytically  !
 ! D32   D(11,8,10,15)          -0.4901         calculate D2E/DX2 analytically  !
 ! D33   D(7,9,12,14)            8.6913         calculate D2E/DX2 analytically  !
 ! D34   D(7,9,12,18)         -171.2682         calculate D2E/DX2 analytically  !
 ! D35   D(13,9,12,14)         -95.8187         calculate D2E/DX2 analytically  !
 ! D36   D(13,9,12,18)          84.2218         calculate D2E/DX2 analytically  !
 ! D37   D(50,9,12,14)         166.5581         calculate D2E/DX2 analytically  !
 ! D38   D(50,9,12,18)         -13.4015         calculate D2E/DX2 analytically  !
 ! D39   D(7,9,50,48)         -130.0884         calculate D2E/DX2 analytically  !
 ! D40   D(7,9,50,49)           52.222          calculate D2E/DX2 analytically  !
 ! D41   D(12,9,50,48)          71.4439         calculate D2E/DX2 analytically  !
 ! D42   D(12,9,50,49)        -106.2457         calculate D2E/DX2 analytically  !
 ! D43   D(13,9,50,48)         -31.9099         calculate D2E/DX2 analytically  !
 ! D44   D(13,9,50,49)         150.4005         calculate D2E/DX2 analytically  !
 ! D45   D(8,10,14,12)           0.478          calculate D2E/DX2 analytically  !
 ! D46   D(8,10,14,16)         178.4975         calculate D2E/DX2 analytically  !
 ! D47   D(15,10,14,12)       -178.5938         calculate D2E/DX2 analytically  !
 ! D48   D(15,10,14,16)         -0.5743         calculate D2E/DX2 analytically  !
 ! D49   D(9,12,14,10)          -5.2292         calculate D2E/DX2 analytically  !
 ! D50   D(9,12,14,16)         176.6068         calculate D2E/DX2 analytically  !
 ! D51   D(18,12,14,10)        174.7299         calculate D2E/DX2 analytically  !
 ! D52   D(18,12,14,16)         -3.4341         calculate D2E/DX2 analytically  !
 ! D53   D(9,12,18,19)         -98.3835         calculate D2E/DX2 analytically  !
 ! D54   D(14,12,18,19)         81.6581         calculate D2E/DX2 analytically  !
 ! D55   D(10,14,16,17)         -0.1431         calculate D2E/DX2 analytically  !
 ! D56   D(12,14,16,17)        177.9343         calculate D2E/DX2 analytically  !
 ! D57   D(12,18,19,20)         60.8566         calculate D2E/DX2 analytically  !
 ! D58   D(12,18,19,21)        179.6207         calculate D2E/DX2 analytically  !
 ! D59   D(12,18,19,22)        -61.3236         calculate D2E/DX2 analytically  !
 ! D60   D(24,23,25,26)        178.9131         calculate D2E/DX2 analytically  !
 ! D61   D(24,23,25,27)         -0.3458         calculate D2E/DX2 analytically  !
 ! D62   D(29,23,25,26)         -0.2494         calculate D2E/DX2 analytically  !
 ! D63   D(29,23,25,27)       -179.5082         calculate D2E/DX2 analytically  !
 ! D64   D(24,23,29,30)         -1.3178         calculate D2E/DX2 analytically  !
 ! D65   D(24,23,29,31)        178.4049         calculate D2E/DX2 analytically  !
 ! D66   D(25,23,29,30)        177.8779         calculate D2E/DX2 analytically  !
 ! D67   D(25,23,29,31)         -2.3994         calculate D2E/DX2 analytically  !
 ! D68   D(23,25,27,28)        179.0865         calculate D2E/DX2 analytically  !
 ! D69   D(23,25,27,45)         -1.0847         calculate D2E/DX2 analytically  !
 ! D70   D(26,25,27,28)         -0.2257         calculate D2E/DX2 analytically  !
 ! D71   D(26,25,27,45)        179.6031         calculate D2E/DX2 analytically  !
 ! D72   D(25,27,45,5)          73.1801         calculate D2E/DX2 analytically  !
 ! D73   D(25,27,45,46)        -46.9706         calculate D2E/DX2 analytically  !
 ! D74   D(25,27,45,47)       -165.2364         calculate D2E/DX2 analytically  !
 ! D75   D(28,27,45,5)        -106.9905         calculate D2E/DX2 analytically  !
 ! D76   D(28,27,45,46)        132.8589         calculate D2E/DX2 analytically  !
 ! D77   D(28,27,45,47)         14.593          calculate D2E/DX2 analytically  !
 ! D78   D(23,29,30,32)       -179.7797         calculate D2E/DX2 analytically  !
 ! D79   D(23,29,30,33)         -0.3065         calculate D2E/DX2 analytically  !
 ! D80   D(31,29,30,32)          0.4847         calculate D2E/DX2 analytically  !
 ! D81   D(31,29,30,33)        179.9579         calculate D2E/DX2 analytically  !
 ! D82   D(23,29,31,34)        179.6731         calculate D2E/DX2 analytically  !
 ! D83   D(23,29,31,35)          0.3756         calculate D2E/DX2 analytically  !
 ! D84   D(30,29,31,34)         -0.6029         calculate D2E/DX2 analytically  !
 ! D85   D(30,29,31,35)       -179.9004         calculate D2E/DX2 analytically  !
 ! D86   D(29,30,32,36)         -0.0771         calculate D2E/DX2 analytically  !
 ! D87   D(29,30,32,37)        179.4127         calculate D2E/DX2 analytically  !
 ! D88   D(33,30,32,36)       -179.5507         calculate D2E/DX2 analytically  !
 ! D89   D(33,30,32,37)         -0.0608         calculate D2E/DX2 analytically  !
 ! D90   D(29,31,34,36)          0.3106         calculate D2E/DX2 analytically  !
 ! D91   D(29,31,34,40)       -177.9614         calculate D2E/DX2 analytically  !
 ! D92   D(35,31,34,36)        179.6349         calculate D2E/DX2 analytically  !
 ! D93   D(35,31,34,40)          1.363          calculate D2E/DX2 analytically  !
 ! D94   D(30,32,36,34)         -0.2266         calculate D2E/DX2 analytically  !
 ! D95   D(30,32,36,38)        179.283          calculate D2E/DX2 analytically  !
 ! D96   D(37,32,36,34)       -179.7207         calculate D2E/DX2 analytically  !
 ! D97   D(37,32,36,38)         -0.2111         calculate D2E/DX2 analytically  !
 ! D98   D(31,34,36,32)          0.1108         calculate D2E/DX2 analytically  !
 ! D99   D(31,34,36,38)       -179.4283         calculate D2E/DX2 analytically  !
 ! D100  D(40,34,36,32)        178.3788         calculate D2E/DX2 analytically  !
 ! D101  D(40,34,36,38)         -1.1603         calculate D2E/DX2 analytically  !
 ! D102  D(31,34,40,41)       -107.3174         calculate D2E/DX2 analytically  !
 ! D103  D(36,34,40,41)         74.418          calculate D2E/DX2 analytically  !
 ! D104  D(32,36,38,39)         -0.0812         calculate D2E/DX2 analytically  !
 ! D105  D(34,36,38,39)        179.4388         calculate D2E/DX2 analytically  !
 ! D106  D(34,40,41,42)         60.4308         calculate D2E/DX2 analytically  !
 ! D107  D(34,40,41,43)        179.1579         calculate D2E/DX2 analytically  !
 ! D108  D(34,40,41,44)        -61.6309         calculate D2E/DX2 analytically  !
 --------------------------------------------------------------------------------
 Trust Radius=3.00D-01 FncErr=1.00D-07 GrdErr=1.00D-06 EigMax=2.50D+02 EigMin=1.00D-04
 Number of steps in this run=    251 maximum allowed number of steps=    300.
 Search for a saddle point of order  1.
 GradGradGradGradGradGradGradGradGradGradGradGradGradGradGradGradGradGrad

                          Input orientation:                          
 ---------------------------------------------------------------------
 Center     Atomic      Atomic             Coordinates (Angstroms)
 Number     Number       Type             X           Y           Z
 ---------------------------------------------------------------------
      1          6           0        2.225335    1.301408    0.053450
      2          1           0        1.874331    2.109338   -0.582386
      3          6           0        1.500288    0.938501    1.121671
      4          1           0        1.820630    0.163660    1.812942
      5          6           0        0.213525    1.560231    1.494912
      6          8           0       -0.376888    1.182432    2.484581
      7          6           0        3.516998    0.747379   -0.339417
      8          6           0        4.394269    1.532771   -1.080422
      9          6           0        4.021901   -0.493572    0.119625
     10          6           0        5.682337    1.110159   -1.391104
     11          1           0        4.062448    2.509536   -1.413888
     12          6           0        5.274759   -0.985295   -0.264705
     13          1           0        4.367056    0.066058    1.831094
     14          6           0        6.131541   -0.142378   -0.983858
     15          1           0        6.341330    1.751361   -1.968016
     16          8           0        7.352689   -0.632251   -1.271122
     17          1           0        7.854162    0.007395   -1.793960
     18          8           0        5.637837   -2.246772    0.055979
     19          6           0        6.472717   -2.325658    1.221538
     20          1           0        5.942669   -1.927604    2.089584
     21          1           0        6.683716   -3.382073    1.370846
     22          1           0        7.404045   -1.779985    1.060556
     23          6           0       -2.877972    1.119888    0.328754
     24          1           0       -2.525731    1.433239    1.308511
     25          6           0       -2.149593    1.428675   -0.756156
     26          1           0       -2.448530    1.124186   -1.754653
     27          6           0       -0.886930    2.181930   -0.716125
     28          8           0       -0.272555    2.410714   -1.738604
     29          6           0       -4.130634    0.367438    0.347451
     30          6           0       -4.735340    0.097351    1.577381
     31          6           0       -4.760840   -0.094192   -0.819519
     32          6           0       -5.923941   -0.617839    1.649278
     33          1           0       -4.265325    0.444053    2.491536
     34          6           0       -5.940863   -0.807991   -0.760939
     35          1           0       -4.334578    0.085941   -1.800343
     36          6           0       -6.534276   -1.077370    0.487555
     37          1           0       -6.379149   -0.829507    2.612137
     38          8           0       -7.682691   -1.790523    0.484671
     39          1           0       -7.990657   -1.920332    1.390965
     40          8           0       -6.509828   -1.280314   -1.907779
     41          6           0       -7.686512   -0.573325   -2.298143
     42          1           0       -7.455177    0.480812   -2.477774
     43          1           0       -8.030301   -1.032054   -3.223626
     44          1           0       -8.466475   -0.656143   -1.538961
     45          6           0       -0.353779    2.680092    0.628079
     46          1           0       -1.147441    3.160502    1.199763
     47          1           0        0.418331    3.418838    0.412673
     48          8           0        3.291328   -2.082557    1.658616
     49          8           0        2.189802   -1.844352   -0.170948
     50          7           0        3.082708   -1.556325    0.590213
 ---------------------------------------------------------------------
                    Distance matrix (angstroms):
                    1          2          3          4          5
     1  C    0.000000
     2  H    1.086389   0.000000
     3  C    1.341079   2.101090   0.000000
     4  H    2.134027   3.086445   1.086670   0.000000
     5  C    2.488409   2.715688   1.477029   2.152751   0.000000
     6  O    3.563161   3.915792   2.332556   2.513579   1.212751
     7  C    1.459345   2.147632   2.497684   2.801971   3.865026
     8  C    2.458347   2.632596   3.684766   4.107267   4.910369
     9  C    2.540469   3.446740   3.068136   2.853922   4.540181
    10  C    3.751556   4.019116   4.881909   5.106324   6.199964
    11  H    2.643414   2.374744   3.932159   4.576168   4.916961
    12  C    3.824817   4.608751   4.457539   4.191386   5.932288
    13  H    3.045173   4.026607   3.079414   2.548360   4.426893
    14  C    4.291733   4.832727   5.200967   5.147786   6.638229
    15  H    4.607624   4.690651   5.800224   6.103538   7.041193
    16  O    5.637667   6.164664   6.514853   6.383463   7.964018
    17  H    6.063917   6.453252   7.052629   7.031193   8.462110
    18  O    4.922882   5.791994   5.329257   4.844396   6.781369
    19  C    5.706163   6.638410   5.948929   5.309273   7.372404
    20  H    5.328315   6.323583   5.374584   4.630455   6.733625
    21  H    6.599068   7.556514   6.752583   6.034673   8.142796
    22  H    6.109688   6.957286   6.499864   5.959728   7.940357
    23  C    5.113950   4.938985   4.453177   5.019368   3.333344
    24  H    4.915809   4.836646   4.060604   4.556000   2.748527
    25  C    4.451028   4.084784   4.133780   4.895222   3.266335
    26  H    5.014544   4.586051   4.888853   5.645890   4.223310
    27  C    3.324719   2.765450   3.259206   4.219061   2.546802
    28  O    3.268252   2.456988   3.673086   4.695121   3.378643
    29  C    6.430947   6.321267   5.712514   6.132433   4.648779
    30  C    7.226556   7.238814   6.308587   6.560536   5.161210
    31  C    7.177494   6.995518   6.635993   7.093102   5.730447
    32  C    8.522962   8.557503   7.603930   7.785622   6.514316
    33  H    6.986272   7.065235   5.946706   6.130087   4.722205
    34  C    8.473463   8.343856   7.871797   8.234667   6.969493
    35  H    6.924332   6.642899   6.581086   7.137819   5.806676
    36  C    9.087233   9.055636   8.307831   8.549928   7.314679
    37  H    9.226311   9.325327   8.211752   8.298281   7.100873
    38  O   10.388212  10.377099   9.601065   9.792663   8.637035
    39  H   10.795140  10.837451   9.915820  10.039046   8.912560
    40  O    9.317445   9.140051   8.846620   9.237173   8.052980
    41  C   10.358056  10.077213   9.918571  10.384119   9.019419
    42  H   10.039560   9.658380   9.662600  10.225039   8.703814
    43  H   11.016457  10.721297  10.658181  11.128234   9.846076
    44  H   10.985562  10.746869  10.438306  10.850432   9.458282
    45  C    2.980402   2.599126   2.591204   3.530494   1.525557
    46  H    4.018194   3.662254   3.457436   4.262218   2.121370
    47  H    2.806744   2.196558   2.797388   3.810955   2.160465
    48  O    3.894114   4.960036   3.552876   2.689287   4.771747
    49  O    3.153954   3.987539   3.144927   2.846792   4.274569
    50  N    3.031475   4.033888   3.001775   2.458913   4.331698
                    6          7          8          9         10
     6  O    0.000000
     7  C    4.829760   0.000000
     8  C    5.966232   1.391235   0.000000
     9  C    5.267955   1.416194   2.384290   0.000000
    10  C    7.193077   2.434409   1.390770   2.758859   0.000000
    11  H    6.055325   2.134760   1.084147   3.372234   2.140751
    12  C    6.648212   2.469304   2.789501   1.399698   2.413674
    13  H    4.917147   2.428563   3.260202   1.833424   3.633548
    14  C    7.492986   2.835984   2.415277   2.406573   1.391575
    15  H    8.079837   3.411329   2.150965   3.844180   1.085468
    16  O    8.783208   4.181384   3.670958   3.612141   2.416705
    17  H    9.350765   4.634033   3.847956   4.312656   2.468847
    18  O    7.337198   3.690425   4.137973   2.385166   3.655819
    19  C    7.798658   4.540530   4.950398   3.252269   4.388102
    20  H    7.054441   4.351949   4.941728   3.102666   4.627198
    21  H    8.480993   5.477725   5.950292   4.122409   5.367613
    22  H    8.446696   4.843204   4.961541   3.738864   4.162672
    23  C    3.302563   6.440564   7.419013   7.089093   8.731375
    24  H    2.462433   6.300845   7.321428   6.928025   8.646657
    25  C    3.702094   5.722595   6.552719   6.522987   7.864079
    26  H    4.718707   6.142671   6.888064   6.927953   8.139003
    27  C    3.391705   4.646980   5.333403   5.652734   6.690258
    28  O    4.399416   4.368653   4.794084   5.507290   6.105157
    29  C    4.395697   7.687810   8.721858   8.201041   9.993428
    30  C    4.582196   8.496925   9.616346   8.897388  10.879599
    31  C    5.636124   8.334348   9.302210   8.841835  10.527921
    32  C    5.891393   9.744232  10.887693  10.063551  12.121699
    33  H    3.957929   8.286789   9.430418   8.670826  10.699279
    34  C    6.741884   9.594164  10.601707  10.006543  11.797253
    35  H    5.935165   8.013680   8.877183   8.593768  10.077455
    36  C    6.856256  10.248985  11.344800  10.578708  12.552301
    37  H    6.331770  10.446625  11.631074  10.700808  12.855648
    38  O    8.137128  11.513171  12.623263  11.781885  13.804219
    39  H    8.294132  11.938888  13.092673  12.163614  14.278464
    40  O    7.935421  10.349326  11.291471  10.753913  12.435040
    41  C    8.909980  11.449869  12.323302  11.955705  13.504923
    42  H    8.672913  11.181782  11.977837  11.807591  13.197393
    43  H    9.801138  12.034332  12.866297  12.518900  13.999416
    44  H    9.220123  12.124867  13.053749  12.599082  14.259403
    45  C    2.385398   4.433322   5.174871   5.429295   6.555645
    46  H    2.481385   5.472589   6.209614   6.421919   7.586987
    47  H    3.150665   4.159816   4.647006   5.327151   6.024397
    48  O    4.979777   3.471542   4.667913   2.329615   5.021070
    49  O    4.775056   2.916659   4.134221   2.294695   4.734523
    50  N    4.801898   2.521878   3.748830   1.494316   4.218272
                   11         12         13         14         15
    11  H    0.000000
    12  C    3.873521   0.000000
    13  H    4.073485   2.514287   0.000000
    14  C    3.390977   1.400630   3.328785   0.000000
    15  H    2.464791   3.395310   4.601222   2.144488   0.000000
    16  O    4.551582   2.335660   4.361810   1.346736   2.681439
    17  H    4.558757   3.158698   5.030345   1.909482   2.315248
    18  O    5.221573   1.351292   3.180425   2.398641   4.536136
    19  C    6.011154   2.332508   3.244329   3.122000   5.178089
    20  H    5.958000   2.622351   2.554224   3.559319   5.491615
    21  H    7.024019   3.225637   4.179515   4.042914   6.133301
    22  H    5.974038   2.630913   3.636606   2.912155   4.772003
    23  C    7.289537   8.441032   7.473822   9.191714   9.522051
    24  H    7.209297   8.316968   7.046473   9.093178   9.458415
    25  C    6.339584   7.822390   7.142640   8.431918   8.583036
    26  H    6.665444   8.143651   7.773637   8.707235   8.814790
    27  C    5.009045   6.942730   6.210443   7.398177   7.348494
    28  O    4.348270   6.669179   6.306041   6.935444   6.650628
    29  C    8.649710   9.521872   8.631498  10.360721  10.813818
    30  C    9.600385  10.235599   9.105985  11.167208  11.747264
    31  C    9.218627  10.090349   9.506310  10.893728  11.312971
    32  C   10.903734  11.367024  10.315299  12.348851  13.005184
    33  H    9.427108  10.032603   8.665857  10.978028  11.580061
    34  C   10.559287  11.227994  10.664698  12.092794  12.603951
    35  H    8.748326   9.790051   9.429007  10.500402  10.806330
    36  C   11.347772  11.833329  11.043168  12.785233  13.409429
    37  H   11.678400  12.004751  10.811706  13.035363  13.764057
    38  O   12.650822  13.004056  12.266056  13.989495  14.670848
    39  H   13.144134  13.401000  12.524078  14.430433  15.171353
    40  O   11.241882  11.902236  11.580091  12.726066  13.204051
    41  C   12.178834  13.126277  12.757269  13.887104  14.222992
    42  H   11.743221  13.003784  12.589819  13.682802  13.864262
    43  H   12.729987  13.630188  13.433186  14.365440  14.692438
    44  H   12.923276  13.804115  13.288279  14.617598  15.008373
    45  C    4.868447   6.775881   5.528716   7.254244   7.240631
    46  H    5.864970   7.783120   6.354828   8.286182   8.252406
    47  H    4.176451   6.590912   5.370799   6.875560   6.597733
    48  O    5.578730   2.972734   2.409042   4.337485   6.095400
    49  O    4.899800   3.203706   3.521118   4.369765   5.778736
    50  N    4.637621   2.421167   2.412770   3.711109   5.301315
                   16         17         18         19         20
    16  O    0.000000
    17  H    0.966428   0.000000
    18  O    2.703440   3.662736   0.000000
    19  C    3.139321   4.055214   1.435889   0.000000
    20  H    3.867873   4.741302   2.080947   1.092200   0.000000
    21  H    3.871568   4.782723   2.027720   1.087578   1.783596
    22  H    2.599356   3.397881   2.084839   1.091350   1.793408
    23  C   10.502191  10.996466   9.161213  10.005211   9.496917
    24  H   10.416522  10.927055   9.041856   9.752381   9.144350
    25  C    9.736836  10.157371   8.649425   9.609918   9.211273
    26  H    9.969090  10.363119   8.946009  10.017374   9.721306
    27  C    8.724618   9.071770   7.923518   8.845185   8.450070
    28  O    8.223292   8.474818   7.735984   8.757532   8.491469
    29  C   11.639839  12.179927  10.116427  10.974874  10.477293
    30  C   12.440528  13.033403  10.743016  11.472495  10.880380
    31  C   12.133880  12.652990  10.655168  11.633494  11.242303
    32  C   13.594037  14.215588  11.784174  12.521052  11.946790
    33  H   12.259457  12.862275  10.547280  11.161978  10.487586
    34  C   13.304498  13.857658  11.696313  12.662168  12.271810
    35  H   11.721267  12.188995  10.408485  11.478032  11.171737
    36  C   14.004958  14.608531  12.235771  13.087353  12.608074
    37  H   14.271719  14.923178  12.367318  13.013174  12.381682
    38  O   15.181800  15.805647  13.335232  14.184672  13.720239
    39  H   15.625752  16.276307  13.697613  14.470044  13.950831
    40  O   13.892253  14.422045  12.343264  13.395218  13.094372
    41  C   15.074342  15.559691  13.633803  14.694985  14.381960
    42  H   14.898584  15.331914  13.612003  14.681533  14.358394
    43  H   15.511559  15.982508  14.108485  15.224008  14.975850
    44  H   15.821449  16.336111  14.283052  15.283557  14.913295
    45  C    8.600478   8.965483   7.778223   8.485917   7.938017
    46  H    9.630289   9.996666   8.751392   9.389635   8.772130
    47  H    8.205596   8.473414   7.711654   8.385051   7.868594
    48  O    5.213579   6.091604   2.846317   3.220461   2.690604
    49  O    5.416177   6.176416   3.478848   4.529242   4.381888
    50  N    4.748812   5.558442   2.700150   3.533074   3.250436
                   21         22         23         24         25
    21  H    0.000000
    22  H    1.783771   0.000000
    23  C   10.619769  10.708159   0.000000
    24  H   10.392547  10.439671   1.087283   0.000000
    25  C   10.280797  10.240505   1.342727   2.098654   0.000000
    26  H   10.652372  10.650485   2.127210   3.079682   1.085851
    27  C    9.624358   9.359146   2.486756   2.710232   1.470821
    28  O    9.571561   9.182998   3.567689   3.913715   2.335140
    29  C   11.491577  11.754521   1.461401   2.152970   2.503736
    30  C   11.939175  12.294558   2.460582   2.596008   3.728794
    31  C   12.107260  12.424211   2.517482   3.443439   3.023533
    32  C   12.910133  13.391504   3.747186   3.983827   4.921385
    33  H   11.652326  11.965294   2.656902   2.324699   3.999163
    34  C   13.059495  13.503672   3.779609   4.579176   4.401865
    35  H   11.978580  12.225453   2.779173   3.840847   2.769011
    36  C   13.446456  13.967776   4.268690   4.800579   5.201204
    37  H   13.367679  13.902778   4.612181   4.654921   5.859516
    38  O   14.481436  15.097726   5.619619   6.137229   6.520587
    39  H   14.747011  15.398887   6.042415   6.412383   7.067107
    40  O   13.756322  14.235749   4.894224   5.794904   5.260846
    41  C   15.094834  15.506830   5.734947   6.608170   6.086312
    42  H   15.153945  15.441096   5.407016   6.288283   5.657882
    43  H   15.592757  16.035356   6.617911   7.544416   6.835665
    44  H   15.666077  16.121225   6.154186   6.911299   6.697928
    45  C    9.318148   8.958971   2.982513   2.595189   2.589807
    46  H   10.205958   9.877029   2.813805   2.212453   2.798062
    47  H    9.296533   8.731993   4.019680   3.662326   3.452702
    48  O    3.644153   4.166973   7.077037   6.805995   6.911114
    49  O    4.993694   5.358085   5.892263   5.930232   5.466765
    50  N    4.112178   4.352608   6.539127   6.395938   6.172512
                   26         27         28         29         30
    26  H    0.000000
    27  C    2.153128   0.000000
    28  O    2.527900   1.214604   0.000000
    29  C    2.796601   3.865901   4.838530   0.000000
    30  C    4.169693   4.941245   6.021948   1.396906   0.000000
    31  C    2.775914   4.494286   5.221492   1.404308   2.404677
    32  C    5.167192   6.229392   7.251761   2.425175   1.389043
    33  H    4.668345   4.972209   6.140363   2.149678   1.084802
    34  C    4.113048   5.872297   6.591328   2.426332   2.782206
    35  H    2.153420   4.177916   4.680643   2.175741   3.401435
    36  C    5.154383   6.630566   7.505442   2.807952   2.409121
    37  H    6.191569   7.092993   8.168138   3.408416   2.152183
    38  O    6.395822   7.962705   8.803605   4.158453   3.666737
    39  H    7.062519   8.469435   9.387293   4.606799   3.834434
    40  O    4.722204   6.710005   7.249544   3.669021   4.146458
    41  C    5.532936   7.505234   8.011512   4.530835   4.917206
    42  H    5.099347   7.009927   7.474018   4.364325   4.897840
    43  H    6.161446   8.224658   8.616296   5.469786   5.931441
    44  H    6.279471   8.135184   8.751331   4.837952   4.919422
    45  C    3.533587   1.529476   2.383348   4.437539   5.173954
    46  H    3.816803   2.167048   3.156202   4.174575   4.732706
    47  H    4.263992   2.123166   2.474193   5.477991   6.240925
    48  O    7.408075   6.425192   6.665723   7.925097   8.317812
    49  O    5.730136   5.096513   5.160071   6.716299   7.401652
    50  N    6.578611   5.607057   5.693732   7.469411   8.051771
                   31         32         33         34         35
    31  C    0.000000
    32  C    2.778843   0.000000
    33  H    3.390919   2.141967   0.000000
    34  C    1.380360   2.417765   3.866993   0.000000
    35  H    1.084510   3.862805   4.307350   2.111782   0.000000
    36  C    2.412500   1.390423   3.388039   1.408346   3.380301
    37  H    3.864696   1.085871   2.470779   3.401499   4.948565
    38  O    3.621555   2.413440   4.549640   2.356030   4.466796
    39  H    4.318882   2.456528   4.547491   3.173271   5.251332
    40  O    2.377005   3.665349   5.231176   1.364571   2.570974
    41  C    3.312922   4.323282   5.973324   2.337810   3.452230
    42  H    3.215569   4.536989   5.905128   2.627105   3.217603
    43  H    4.165175   5.324801   7.001215   3.237404   4.115095
    44  H    3.816427   4.078089   5.924947   2.647092   4.206136
    45  C    5.405033   6.553313   4.875709   6.731389   5.336067
    46  H    5.265661   6.106790   4.332317   6.524582   5.348963
    47  H    6.378362   7.618949   5.925172   7.725464   6.212551
    48  O    8.656337   9.330953   8.011275   9.628713   8.649927
    49  O    7.196884   8.405378   7.348081   8.217654   6.996320
    50  N    8.102248   9.117132   7.849212   9.154804   7.964165
                   36         37         38         39         40
    36  C    0.000000
    37  H    2.144610   0.000000
    38  O    1.351833   2.673740   0.000000
    39  H    1.909917   2.297416   0.965952   0.000000
    40  O    2.404039   4.544221   2.712883   3.672082   0.000000
    41  C    3.056439   5.087797   3.037374   3.939093   1.427165
    42  H    3.474070   5.364883   3.739894   4.584689   2.078495
    43  H    4.001625   6.068233   3.800997   4.699475   2.026061
    44  H    2.831535   4.649580   2.448718   3.226305   2.086644
    45  C    7.234418   7.249749   8.586030   8.948062   7.746763
    46  H    6.890921   6.729468   8.230036   8.525317   7.624490
    47  H    8.280111   8.312149   9.631676  10.008740   8.687113
    48  O    9.946069   9.797829  11.040495  11.286326  10.460662
    49  O    8.782450   9.066553   9.894385  10.299859   8.889223
    50  N    9.629450   9.702740  10.768463  11.108245   9.916295
                   41         42         43         44         45
    41  C    0.000000
    42  H    1.094070   0.000000
    43  H    1.088642   1.782084   0.000000
    44  H    1.091586   1.787949   1.780352   0.000000
    45  C    8.539114   8.056860   9.356529   9.035616   0.000000
    46  H    8.302786   7.777695   9.193348   8.696875   1.089732
    47  H    9.432623   8.887002  10.218243   9.967654   1.090092
    48  O   11.766337  11.796947  12.374131  12.268052   6.085363
    49  O   10.182438  10.185943  10.697157  10.809234   5.251556
    50  N   11.193077  11.162862  11.760918  11.778257   5.455099
                   46         47         48         49         50
    46  H    0.000000
    47  H    1.771410   0.000000
    48  O    6.884976   6.330232   0.000000
    49  O    6.169652   5.583896   2.148815   0.000000
    50  N    6.365074   5.646474   1.209102   1.208142   0.000000
 Stoichiometry    C21H20NO8(2)
 Framework group  C1[X(C21H20NO8)]
 Deg. of freedom   144
 Full point group                 C1      NOp   1
 Largest Abelian subgroup         C1      NOp   1
 Largest concise Abelian subgroup C1      NOp   1
                         Standard orientation:                         
 ---------------------------------------------------------------------
 Center     Atomic      Atomic             Coordinates (Angstroms)
 Number     Number       Type             X           Y           Z
 ---------------------------------------------------------------------
      1          6           0        2.186038    1.286851    0.459561
      2          1           0        1.818548    2.248310    0.112013
      3          6           0        1.476775    0.596029    1.364107
      4          1           0        1.813791   -0.351888    1.774869
      5          6           0        0.186565    1.049856    1.921793
      6          8           0       -0.388730    0.371574    2.746252
      7          6           0        3.480118    0.903527   -0.095513
      8          6           0        4.339907    1.894873   -0.557606
      9          6           0        4.004882   -0.411161   -0.052827
     10          6           0        5.629663    1.610428   -0.993340
     11          1           0        3.992738    2.921903   -0.565172
     12          6           0        5.259495   -0.738598   -0.579976
     13          1           0        4.361264   -0.412416    1.745626
     14          6           0        6.098330    0.300185   -1.003121
     15          1           0        6.274687    2.410112   -1.343613
     16          8           0        7.322238   -0.056458   -1.437346
     17          1           0        7.810353    0.722422   -1.735795
     18          8           0        5.641242   -2.031416   -0.674208
     19          6           0        6.489280   -2.460032    0.402313
     20          1           0        5.963629   -2.362723    1.354743
     21          1           0        6.714665   -3.506617    0.210774
     22          1           0        7.412156   -1.877640    0.415182
     23          6           0       -2.911495    0.952255    0.695546
     24          1           0       -2.552761    0.947172    1.721932
     25          6           0       -2.198418    1.596993   -0.241870
     26          1           0       -2.504160    1.617167   -1.283594
     27          6           0       -0.944649    2.318214    0.025000
     28          8           0       -0.343931    2.865705   -0.877581
     29          6           0       -4.154653    0.213500    0.484617
     30          6           0       -4.743011   -0.438221    1.571098
     31          6           0       -4.791491    0.132506   -0.764366
     32          6           0       -5.922009   -1.157366    1.421984
     33          1           0       -4.267618   -0.389287    2.544957
     34          6           0       -5.962067   -0.581008   -0.925737
     35          1           0       -4.377830    0.617935   -1.641524
     36          6           0       -6.538947   -1.237720    0.178518
     37          1           0       -6.364418   -1.667517    2.272358
     38          8           0       -7.678578   -1.930844   -0.041195
     39          1           0       -7.975357   -2.343334    0.780290
     40          8           0       -6.537330   -0.677566   -2.159351
     41          6           0       -7.726574    0.098698   -2.300463
     42          1           0       -7.509975    1.159217   -2.141171
     43          1           0       -8.074516   -0.051144   -3.321063
     44          1           0       -8.497413   -0.229983   -1.600938
     45          6           0       -0.403427    2.376770    1.454318
     46          1           0       -1.196788    2.641436    2.152922
     47          1           0        0.357332    3.157170    1.477182
     48          8           0        3.309964   -2.413820    0.913378
     49          8           0        2.186367   -1.629347   -0.741777
     50          7           0        3.083694   -1.581770    0.065779
 ---------------------------------------------------------------------
 Rotational constants (GHZ):           0.3302548           0.0509012           0.0492693
 Standard basis: 6-311G(d) (5D, 7F)
 There are   630 symmetry adapted cartesian basis functions of A   symmetry.
 There are   600 symmetry adapted basis functions of A   symmetry.
   600 basis functions,  1060 primitive gaussians,   630 cartesian basis functions
   109 alpha electrons      108 beta electrons
       nuclear repulsion energy      2729.1026081342 Hartrees.
 NAtoms=   50 NActive=   50 NUniq=   50 SFac= 1.00D+00 NAtFMM=   60 NAOKFM=F Big=F
 Integral buffers will be    131072 words long.
 Raffenetti 2 integral format.
 Two-electron integral symmetry is turned on.
 Force inversion solution in PCM.
 Using the following non-standard input for PCM:
 Eps=7
 EpsInf=1.85341
 HbondAcidity=0
 HbondBasicity=0.48
 SurfaceTensionAtInterface=60.62
 CarbonAromaticity=0
 ElectronegativeHalogenicity=0
 --- end of non-standard input.
 Force inversion solution in PCM.
 ------------------------------------------------------------------------------
 Polarizable Continuum Model (PCM)
 =================================
 Model                : PCM.
 Atomic radii         : SMD-Coulomb.
 Polarization charges : Total charges.
 Charge compensation  : None.
 Solution method      : Matrix inversion.
 Cavity type          : VdW (van der Waals Surface) (Alpha=1.000).
 Cavity algorithm     : GePol (No added spheres)
                        Default sphere list used, NSphG=   50.
                        Lebedev-Laikov grids with approx.  5.0 points / Ang**2.
                        Smoothing algorithm: York/Karplus (Gamma=1.0000).
                        Polarization charges: spherical gaussians, with
                                              point-specific exponents (IZeta= 3).
                        Self-potential: point-specific (ISelfS= 7).
                        Self-field    : sphere-specific E.n sum rule (ISelfD= 2).
 1st derivatives      : Analytical E(r).r(x)/FMM algorithm (CHGder, D1EAlg=3).
                        Cavity 1st derivative terms included.
 2nd derivatives      : Analytical E(r).r(xy)/FMM algorithm (CHGder, D2EAlg=3).
                        Cavity 2nd derivative terms included.
 Solvent              : Generic,
                        Eps                           =   7.000000
                        Eps(infinity)                 =   1.853410
                        RSolv                         =   0.000000 Ang.
                        Molar volume                  =   0.000000 cm**3/mol
                        Thermal expansion coefficient =   0.000000 K**-1
                        Absolute temperature          = 298.150000 K
                        Numeral density               =   0.000000 Ang**-3
                        Hydrogen bond acidity         =   0.000000
                        Hydrogen bond basicity        =   0.480000
                        Surface tension at interface  =  60.620000 (cal/mol)*Ang**-2
                        Carbon aromaticity            =   0.000000
                        Electronegative halogenicity  =   0.000000
 ------------------------------------------------------------------------------
 ------------------------------------------------------------------------------
 Atomic radii for non-electrostatic terms: SMD-CDS.
 ------------------------------------------------------------------------------
 Nuclear repulsion after PCM non-electrostatic terms =     2729.0989172051 Hartrees.
 One-electron integrals computed using PRISM.
 NBasis=   600 RedAO= T EigKep=  1.70D-04  NBF=   600
 NBsUse=   600 1.00D-06 EigRej= -1.00D+00 NBFU=   600
 Initial guess from the checkpoint file:  "CURCUMIN-OPT-FREQ-TS-M06-2X-6-311G-D-363.chk"
 B after Tr=     0.000000    0.000000   -0.000000
         Rot=    1.000000    0.000000   -0.000000   -0.000000 Ang=   0.00 deg.
 Initial guess <Sx>= 0.0000 <Sy>= 0.0000 <Sz>= 0.5000 <S**2>= 0.7678 S= 0.5088
 Requested convergence on RMS density matrix=1.00D-08 within 128 cycles.
 Requested convergence on MAX density matrix=1.00D-06.
 Requested convergence on             energy=1.00D-06.
 No special actions if energy rises.
 Inv3:  Mode=1 IEnd=    49183203.
 Iteration    1 A*A^-1 deviation from unit magnitude is 3.55D-15 for      8.
 Iteration    1 A*A^-1 deviation from orthogonality  is 1.89D-15 for   3623   1590.
 Iteration    1 A^-1*A deviation from unit magnitude is 3.22D-15 for   2761.
 Iteration    1 A^-1*A deviation from orthogonality  is 2.88D-13 for   3211   3140.
 Error on total polarization charges =  0.03597
 SCF Done:  E(UM062X) =  -1468.33578031     A.U. after    1 cycles
            NFock=  1  Conv=0.74D-08     -V/T= 2.0032
 <Sx>= 0.0000 <Sy>= 0.0000 <Sz>= 0.5000 <S**2>= 0.7678 S= 0.5088
 <L.S>=  0.00000000000    
 SMD-CDS (non-electrostatic) energy       (kcal/mol) =      -2.32
 (included in total energy above)
 Annihilation of the first spin contaminant:
 S**2 before annihilation     0.7678,   after     0.7502
 DoSCS=F DFT=T ScalE2(SS,OS)=  1.000000  1.000000
 Range of M.O.s used for correlation:     1   600
 NBasis=   600 NAE=   109 NBE=   108 NFC=     0 NFV=     0
 NROrb=    600 NOA=   109 NOB=   108 NVA=   491 NVB=   492

 **** Warning!!: The largest alpha MO coefficient is  0.16207079D+02


 **** Warning!!: The largest beta MO coefficient is  0.16223216D+02

 Symmetrizing basis deriv contribution to polar:
 IMax=3 JMax=2 DiffMx= 0.00D+00
 G2DrvN: will do    26 centers at a time, making    2 passes.
 Calling FoFCou, ICntrl=  3107 FMM=F I1Cent=   0 AccDes= 0.00D+00.
 Calling FoFCou, ICntrl=  3107 FMM=F I1Cent=   0 AccDes= 0.00D+00.
 NEqPCM:  Using equilibrium solvation (IEInf=0, Eps=   7.0000, EpsInf=   1.8534)
 G2PCM: DoFxE=T DoFxN=T DoGrad=T DoDP/DQ/DG/TGxP=FFFF NFrqRd=   0 IEInf=0 SqF1=F DoCFld=F IF1Alg=4.
 End of G2Drv F.D. properties file   721 does not exist.
 End of G2Drv F.D. properties file   722 does not exist.
 End of G2Drv F.D. properties file   788 does not exist.
          IDoAtm=11111111111111111111111111111111111111111111111111
 NEqPCM:  Using equilibrium solvation (IEInf=0, Eps=   7.0000, EpsInf=   1.8534)
          Differentiating once with respect to nuclear coordinates.
 CalDSu exits because no D1Ps are significant.
          There are   153 degrees of freedom in the 1st order CPHF.  IDoFFX=6 NUNeed=     0.
    150 vectors produced by pass  0 Test12= 1.07D-13 1.00D-09 XBig12= 2.48D-01 1.40D-01.
 AX will form    50 AO Fock derivatives at one time.
    150 vectors produced by pass  1 Test12= 1.07D-13 1.00D-09 XBig12= 3.21D-02 2.51D-02.
    148 vectors produced by pass  2 Test12= 1.07D-13 1.00D-09 XBig12= 9.74D-04 4.38D-03.
    147 vectors produced by pass  3 Test12= 1.07D-13 1.00D-09 XBig12= 1.29D-05 5.18D-04.
    147 vectors produced by pass  4 Test12= 1.07D-13 1.00D-09 XBig12= 1.32D-07 5.35D-05.
    147 vectors produced by pass  5 Test12= 1.07D-13 1.00D-09 XBig12= 1.65D-09 3.69D-06.
    139 vectors produced by pass  6 Test12= 1.07D-13 1.00D-09 XBig12= 1.33D-11 2.38D-07.
     73 vectors produced by pass  7 Test12= 1.07D-13 1.00D-09 XBig12= 1.02D-13 1.90D-08.
     12 vectors produced by pass  8 Test12= 1.07D-13 1.00D-09 XBig12= 1.87D-15 2.01D-09.
      9 vectors produced by pass  9 Test12= 1.07D-13 1.00D-09 XBig12= 1.18D-15 1.72D-09.
      1 vectors produced by pass 10 Test12= 1.07D-13 1.00D-09 XBig12= 7.88D-16 1.39D-09.
 InvSVY:  IOpt=1 It=  1 EMax= 6.66D-16
 Solved reduced A of dimension  1123 with   153 vectors.
 End of Minotr F.D. properties file   721 does not exist.
 End of Minotr F.D. properties file   722 does not exist.
 End of Minotr F.D. properties file   788 does not exist.

 **********************************************************************

            Population analysis using the SCF density.

 **********************************************************************

 Orbital symmetries:
 Alpha Orbitals:
       Occupied  (A) (A) (A) (A) (A) (A) (A) (A) (A) (A) (A) (A)
                 (A) (A) (A) (A) (A) (A) (A) (A) (A) (A) (A) (A)
                 (A) (A) (A) (A) (A) (A) (A) (A) (A) (A) (A) (A)
                 (A) (A) (A) (A) (A) (A) (A) (A) (A) (A) (A) (A)
                 (A) (A) (A) (A) (A) (A) (A) (A) (A) (A) (A) (A)
                 (A) (A) (A) (A) (A) (A) (A) (A) (A) (A) (A) (A)
                 (A) (A) (A) (A) (A) (A) (A) (A) (A) (A) (A) (A)
                 (A) (A) (A) (A) (A) (A) (A) (A) (A) (A) (A) (A)
                 (A) (A) (A) (A) (A) (A) (A) (A) (A) (A) (A) (A)
                 (A)
       Virtual   (A) (A) (A) (A) (A) (A) (A) (A) (A) (A) (A) (A)
                 (A) (A) (A) (A) (A) (A) (A) (A) (A) (A) (A) (A)
                 (A) (A) (A) (A) (A) (A) (A) (A) (A) (A) (A) (A)
                 (A) (A) (A) (A) (A) (A) (A) (A) (A) (A) (A) (A)
                 (A) (A) (A) (A) (A) (A) (A) (A) (A) (A) (A) (A)
                 (A) (A) (A) (A) (A) (A) (A) (A) (A) (A) (A) (A)
                 (A) (A) (A) (A) (A) (A) (A) (A) (A) (A) (A) (A)
                 (A) (A) (A) (A) (A) (A) (A) (A) (A) (A) (A) (A)
                 (A) (A) (A) (A) (A) (A) (A) (A) (A) (A) (A) (A)
                 (A) (A) (A) (A) (A) (A) (A) (A) (A) (A) (A) (A)
                 (A) (A) (A) (A) (A) (A) (A) (A) (A) (A) (A) (A)
                 (A) (A) (A) (A) (A) (A) (A) (A) (A) (A) (A) (A)
                 (A) (A) (A) (A) (A) (A) (A) (A) (A) (A) (A) (A)
                 (A) (A) (A) (A) (A) (A) (A) (A) (A) (A) (A) (A)
                 (A) (A) (A) (A) (A) (A) (A) (A) (A) (A) (A) (A)
                 (A) (A) (A) (A) (A) (A) (A) (A) (A) (A) (A) (A)
                 (A) (A) (A) (A) (A) (A) (A) (A) (A) (A) (A) (A)
                 (A) (A) (A) (A) (A) (A) (A) (A) (A) (A) (A) (A)
                 (A) (A) (A) (A) (A) (A) (A) (A) (A) (A) (A) (A)
                 (A) (A) (A) (A) (A) (A) (A) (A) (A) (A) (A) (A)
                 (A) (A) (A) (A) (A) (A) (A) (A) (A) (A) (A) (A)
                 (A) (A) (A) (A) (A) (A) (A) (A) (A) (A) (A) (A)
                 (A) (A) (A) (A) (A) (A) (A) (A) (A) (A) (A) (A)
                 (A) (A) (A) (A) (A) (A) (A) (A) (A) (A) (A) (A)
                 (A) (A) (A) (A) (A) (A) (A) (A) (A) (A) (A) (A)
                 (A) (A) (A) (A) (A) (A) (A) (A) (A) (A) (A) (A)
                 (A) (A) (A) (A) (A) (A) (A) (A) (A) (A) (A) (A)
                 (A) (A) (A) (A) (A) (A) (A) (A) (A) (A) (A) (A)
                 (A) (A) (A) (A) (A) (A) (A) (A) (A) (A) (A) (A)
                 (A) (A) (A) (A) (A) (A) (A) (A) (A) (A) (A) (A)
                 (A) (A) (A) (A) (A) (A) (A) (A) (A) (A) (A) (A)
                 (A) (A) (A) (A) (A) (A) (A) (A) (A) (A) (A) (A)
                 (A) (A) (A) (A) (A) (A) (A) (A) (A) (A) (A) (A)
                 (A) (A) (A) (A) (A) (A) (A) (A) (A) (A) (A) (A)
                 (A) (A) (A) (A) (A) (A) (A) (A) (A) (A) (A) (A)
                 (A) (A) (A) (A) (A) (A) (A) (A) (A) (A) (A) (A)
                 (A) (A) (A) (A) (A) (A) (A) (A) (A) (A) (A) (A)
                 (A) (A) (A) (A) (A) (A) (A) (A) (A) (A) (A) (A)
                 (A) (A) (A) (A) (A) (A) (A) (A) (A) (A) (A) (A)
                 (A) (A) (A) (A) (A) (A) (A) (A) (A) (A) (A) (A)
                 (A) (A) (A) (A) (A) (A) (A) (A) (A) (A) (A)
 Beta  Orbitals:
       Occupied  (A) (A) (A) (A) (A) (A) (A) (A) (A) (A) (A) (A)
                 (A) (A) (A) (A) (A) (A) (A) (A) (A) (A) (A) (A)
                 (A) (A) (A) (A) (A) (A) (A) (A) (A) (A) (A) (A)
                 (A) (A) (A) (A) (A) (A) (A) (A) (A) (A) (A) (A)
                 (A) (A) (A) (A) (A) (A) (A) (A) (A) (A) (A) (A)
                 (A) (A) (A) (A) (A) (A) (A) (A) (A) (A) (A) (A)
                 (A) (A) (A) (A) (A) (A) (A) (A) (A) (A) (A) (A)
                 (A) (A) (A) (A) (A) (A) (A) (A) (A) (A) (A) (A)
                 (A) (A) (A) (A) (A) (A) (A) (A) (A) (A) (A) (A)
       Virtual   (A) (A) (A) (A) (A) (A) (A) (A) (A) (A) (A) (A)
                 (A) (A) (A) (A) (A) (A) (A) (A) (A) (A) (A) (A)
                 (A) (A) (A) (A) (A) (A) (A) (A) (A) (A) (A) (A)
                 (A) (A) (A) (A) (A) (A) (A) (A) (A) (A) (A) (A)
                 (A) (A) (A) (A) (A) (A) (A) (A) (A) (A) (A) (A)
                 (A) (A) (A) (A) (A) (A) (A) (A) (A) (A) (A) (A)
                 (A) (A) (A) (A) (A) (A) (A) (A) (A) (A) (A) (A)
                 (A) (A) (A) (A) (A) (A) (A) (A) (A) (A) (A) (A)
                 (A) (A) (A) (A) (A) (A) (A) (A) (A) (A) (A) (A)
                 (A) (A) (A) (A) (A) (A) (A) (A) (A) (A) (A) (A)
                 (A) (A) (A) (A) (A) (A) (A) (A) (A) (A) (A) (A)
                 (A) (A) (A) (A) (A) (A) (A) (A) (A) (A) (A) (A)
                 (A) (A) (A) (A) (A) (A) (A) (A) (A) (A) (A) (A)
                 (A) (A) (A) (A) (A) (A) (A) (A) (A) (A) (A) (A)
                 (A) (A) (A) (A) (A) (A) (A) (A) (A) (A) (A) (A)
                 (A) (A) (A) (A) (A) (A) (A) (A) (A) (A) (A) (A)
                 (A) (A) (A) (A) (A) (A) (A) (A) (A) (A) (A) (A)
                 (A) (A) (A) (A) (A) (A) (A) (A) (A) (A) (A) (A)
                 (A) (A) (A) (A) (A) (A) (A) (A) (A) (A) (A) (A)
                 (A) (A) (A) (A) (A) (A) (A) (A) (A) (A) (A) (A)
                 (A) (A) (A) (A) (A) (A) (A) (A) (A) (A) (A) (A)
                 (A) (A) (A) (A) (A) (A) (A) (A) (A) (A) (A) (A)
                 (A) (A) (A) (A) (A) (A) (A) (A) (A) (A) (A) (A)
                 (A) (A) (A) (A) (A) (A) (A) (A) (A) (A) (A) (A)
                 (A) (A) (A) (A) (A) (A) (A) (A) (A) (A) (A) (A)
                 (A) (A) (A) (A) (A) (A) (A) (A) (A) (A) (A) (A)
                 (A) (A) (A) (A) (A) (A) (A) (A) (A) (A) (A) (A)
                 (A) (A) (A) (A) (A) (A) (A) (A) (A) (A) (A) (A)
                 (A) (A) (A) (A) (A) (A) (A) (A) (A) (A) (A) (A)
                 (A) (A) (A) (A) (A) (A) (A) (A) (A) (A) (A) (A)
                 (A) (A) (A) (A) (A) (A) (A) (A) (A) (A) (A) (A)
                 (A) (A) (A) (A) (A) (A) (A) (A) (A) (A) (A) (A)
                 (A) (A) (A) (A) (A) (A) (A) (A) (A) (A) (A) (A)
                 (A) (A) (A) (A) (A) (A) (A) (A) (A) (A) (A) (A)
                 (A) (A) (A) (A) (A) (A) (A) (A) (A) (A) (A) (A)
                 (A) (A) (A) (A) (A) (A) (A) (A) (A) (A) (A) (A)
                 (A) (A) (A) (A) (A) (A) (A) (A) (A) (A) (A) (A)
                 (A) (A) (A) (A) (A) (A) (A) (A) (A) (A) (A) (A)
                 (A) (A) (A) (A) (A) (A) (A) (A) (A) (A) (A) (A)
                 (A) (A) (A) (A) (A) (A) (A) (A) (A) (A) (A) (A)
                 (A) (A) (A) (A) (A) (A) (A) (A) (A) (A) (A) (A)
 The electronic state is 2-A.
 Alpha  occ. eigenvalues --  -19.66922 -19.66722 -19.66713 -19.65846 -19.65265
 Alpha  occ. eigenvalues --  -19.63409 -19.61656 -19.61159 -15.00840 -10.63890
 Alpha  occ. eigenvalues --  -10.63479 -10.63185 -10.62892 -10.62800 -10.61548
 Alpha  occ. eigenvalues --  -10.59965 -10.58189 -10.58041 -10.57318 -10.57250
 Alpha  occ. eigenvalues --  -10.56834 -10.56556 -10.56413 -10.55503 -10.55369
 Alpha  occ. eigenvalues --  -10.55071 -10.54827 -10.54752 -10.54662 -10.54212
 Alpha  occ. eigenvalues --   -1.38659  -1.21913  -1.20439  -1.19931  -1.19193
 Alpha  occ. eigenvalues --   -1.17640  -1.17350  -1.16953  -1.00601  -0.97298
 Alpha  occ. eigenvalues --   -0.92554  -0.91381  -0.91054  -0.87568  -0.85712
 Alpha  occ. eigenvalues --   -0.85251  -0.82742  -0.81163  -0.78765  -0.77873
 Alpha  occ. eigenvalues --   -0.74910  -0.74417  -0.71285  -0.70667  -0.69685
 Alpha  occ. eigenvalues --   -0.66790  -0.66728  -0.65256  -0.63623  -0.62866
 Alpha  occ. eigenvalues --   -0.61628  -0.60929  -0.60603  -0.59580  -0.58813
 Alpha  occ. eigenvalues --   -0.58659  -0.57931  -0.56542  -0.55813  -0.55545
 Alpha  occ. eigenvalues --   -0.54536  -0.54021  -0.53126  -0.52730  -0.52118
 Alpha  occ. eigenvalues --   -0.51290  -0.50748  -0.50485  -0.50260  -0.49795
 Alpha  occ. eigenvalues --   -0.49284  -0.48514  -0.47997  -0.47472  -0.46696
 Alpha  occ. eigenvalues --   -0.46562  -0.45530  -0.45237  -0.44494  -0.44194
 Alpha  occ. eigenvalues --   -0.43418  -0.43282  -0.42695  -0.42522  -0.40402
 Alpha  occ. eigenvalues --   -0.40170  -0.39647  -0.39109  -0.36905  -0.36317
 Alpha  occ. eigenvalues --   -0.35939  -0.35294  -0.34940  -0.33960  -0.32164
 Alpha  occ. eigenvalues --   -0.30722  -0.29097  -0.26834  -0.26787
 Alpha virt. eigenvalues --   -0.05273  -0.03753  -0.02652   0.01038   0.02297
 Alpha virt. eigenvalues --    0.03548   0.05375   0.06900   0.07478   0.08867
 Alpha virt. eigenvalues --    0.09898   0.10077   0.10485   0.11243   0.11789
 Alpha virt. eigenvalues --    0.11964   0.12134   0.12812   0.14489   0.14591
 Alpha virt. eigenvalues --    0.15592   0.16116   0.16167   0.16346   0.16458
 Alpha virt. eigenvalues --    0.17519   0.18211   0.18402   0.19005   0.20191
 Alpha virt. eigenvalues --    0.20682   0.21457   0.22004   0.22580   0.24589
 Alpha virt. eigenvalues --    0.26134   0.26512   0.26966   0.27272   0.28876
 Alpha virt. eigenvalues --    0.29933   0.30326   0.30768   0.31480   0.31829
 Alpha virt. eigenvalues --    0.32642   0.33412   0.33986   0.34373   0.34585
 Alpha virt. eigenvalues --    0.35393   0.35924   0.36042   0.37191   0.37894
 Alpha virt. eigenvalues --    0.38295   0.38840   0.39479   0.39994   0.40015
 Alpha virt. eigenvalues --    0.40562   0.40929   0.41367   0.41864   0.42379
 Alpha virt. eigenvalues --    0.42969   0.43243   0.43631   0.44082   0.44465
 Alpha virt. eigenvalues --    0.45024   0.45434   0.46141   0.46869   0.47037
 Alpha virt. eigenvalues --    0.47279   0.47989   0.48193   0.48622   0.49256
 Alpha virt. eigenvalues --    0.49417   0.49972   0.50180   0.50527   0.51064
 Alpha virt. eigenvalues --    0.51298   0.51457   0.52608   0.52739   0.53493
 Alpha virt. eigenvalues --    0.53797   0.54504   0.55299   0.56426   0.56921
 Alpha virt. eigenvalues --    0.57446   0.57836   0.57853   0.59034   0.59518
 Alpha virt. eigenvalues --    0.59933   0.60189   0.61173   0.61764   0.62070
 Alpha virt. eigenvalues --    0.62361   0.63171   0.63967   0.64221   0.64775
 Alpha virt. eigenvalues --    0.64909   0.65363   0.65702   0.66250   0.66662
 Alpha virt. eigenvalues --    0.66815   0.66913   0.67678   0.68151   0.68343
 Alpha virt. eigenvalues --    0.68662   0.69228   0.69721   0.69916   0.71101
 Alpha virt. eigenvalues --    0.71815   0.72173   0.73418   0.73558   0.73920
 Alpha virt. eigenvalues --    0.75378   0.75626   0.76776   0.78467   0.79369
 Alpha virt. eigenvalues --    0.79738   0.80074   0.80780   0.81420   0.82301
 Alpha virt. eigenvalues --    0.82512   0.83193   0.83786   0.83902   0.84295
 Alpha virt. eigenvalues --    0.85257   0.85627   0.85830   0.86724   0.87175
 Alpha virt. eigenvalues --    0.87396   0.88852   0.89445   0.89706   0.90025
 Alpha virt. eigenvalues --    0.90737   0.91315   0.91632   0.93383   0.94121
 Alpha virt. eigenvalues --    0.94297   0.94794   0.95793   0.96267   0.97066
 Alpha virt. eigenvalues --    0.97661   0.99369   1.00206   1.00402   1.00926
 Alpha virt. eigenvalues --    1.01238   1.01354   1.03081   1.03446   1.03838
 Alpha virt. eigenvalues --    1.04308   1.06029   1.06900   1.07575   1.08910
 Alpha virt. eigenvalues --    1.10388   1.10679   1.11128   1.12451   1.13292
 Alpha virt. eigenvalues --    1.13684   1.14251   1.15796   1.17180   1.17406
 Alpha virt. eigenvalues --    1.18154   1.19746   1.19890   1.20219   1.21396
 Alpha virt. eigenvalues --    1.22105   1.23331   1.24942   1.25197   1.25680
 Alpha virt. eigenvalues --    1.27558   1.28428   1.28518   1.29328   1.30061
 Alpha virt. eigenvalues --    1.31522   1.32154   1.33455   1.35848   1.36592
 Alpha virt. eigenvalues --    1.38877   1.40928   1.41428   1.42427   1.43607
 Alpha virt. eigenvalues --    1.45818   1.47569   1.48929   1.49459   1.50556
 Alpha virt. eigenvalues --    1.51912   1.52311   1.53523   1.54645   1.55257
 Alpha virt. eigenvalues --    1.55750   1.56533   1.56825   1.57543   1.57566
 Alpha virt. eigenvalues --    1.58015   1.58937   1.59618   1.60633   1.61256
 Alpha virt. eigenvalues --    1.61738   1.62367   1.63107   1.63552   1.65203
 Alpha virt. eigenvalues --    1.65821   1.66466   1.67135   1.68288   1.70501
 Alpha virt. eigenvalues --    1.71139   1.72207   1.72908   1.73775   1.74121
 Alpha virt. eigenvalues --    1.75450   1.75738   1.76209   1.76849   1.77753
 Alpha virt. eigenvalues --    1.79116   1.80155   1.80537   1.80701   1.81842
 Alpha virt. eigenvalues --    1.82584   1.83860   1.84309   1.84856   1.86676
 Alpha virt. eigenvalues --    1.87174   1.87688   1.88762   1.89021   1.91362
 Alpha virt. eigenvalues --    1.92996   1.93599   1.94781   1.95607   1.97852
 Alpha virt. eigenvalues --    1.98717   1.99859   2.02871   2.04454   2.05336
 Alpha virt. eigenvalues --    2.06634   2.07203   2.08953   2.09423   2.12490
 Alpha virt. eigenvalues --    2.13102   2.14633   2.15571   2.17128   2.17801
 Alpha virt. eigenvalues --    2.19069   2.19743   2.21174   2.23887   2.25396
 Alpha virt. eigenvalues --    2.28515   2.28736   2.29885   2.30499   2.31064
 Alpha virt. eigenvalues --    2.32238   2.33672   2.34934   2.35158   2.35561
 Alpha virt. eigenvalues --    2.37187   2.37687   2.37944   2.39762   2.40680
 Alpha virt. eigenvalues --    2.42141   2.44817   2.45066   2.45948   2.46565
 Alpha virt. eigenvalues --    2.49024   2.51019   2.51294   2.53724   2.55102
 Alpha virt. eigenvalues --    2.57804   2.58564   2.58764   2.61072   2.65346
 Alpha virt. eigenvalues --    2.67530   2.68092   2.70813   2.71184   2.72218
 Alpha virt. eigenvalues --    2.73105   2.73683   2.74223   2.75717   2.78957
 Alpha virt. eigenvalues --    2.80509   2.83145   2.84172   2.84885   2.87264
 Alpha virt. eigenvalues --    2.87818   2.89479   2.89889   2.90331   2.90987
 Alpha virt. eigenvalues --    2.92205   2.92721   2.93743   2.95391   2.96107
 Alpha virt. eigenvalues --    2.98729   2.99825   3.00717   3.01237   3.01383
 Alpha virt. eigenvalues --    3.02769   3.03288   3.03720   3.04505   3.05262
 Alpha virt. eigenvalues --    3.05981   3.06670   3.08353   3.08893   3.10424
 Alpha virt. eigenvalues --    3.10713   3.11852   3.15704   3.16528   3.17673
 Alpha virt. eigenvalues --    3.18315   3.19226   3.20844   3.21934   3.22064
 Alpha virt. eigenvalues --    3.22157   3.22703   3.24406   3.24733   3.25825
 Alpha virt. eigenvalues --    3.25884   3.26531   3.31259   3.32947   3.33067
 Alpha virt. eigenvalues --    3.33964   3.35906   3.36234   3.36674   3.37539
 Alpha virt. eigenvalues --    3.37725   3.39523   3.39705   3.40004   3.40148
 Alpha virt. eigenvalues --    3.40701   3.41809   3.45586   3.46432   3.46639
 Alpha virt. eigenvalues --    3.48066   3.49085   3.52434   3.53854   3.54674
 Alpha virt. eigenvalues --    3.55141   3.56320   3.58229   3.59147   3.61187
 Alpha virt. eigenvalues --    3.62692   3.64581   3.66077   3.68602   3.72152
 Alpha virt. eigenvalues --    3.76029   3.77298   3.79003   3.90950   3.92910
 Alpha virt. eigenvalues --    3.93759   3.93891   3.94143   3.95182   3.98255
 Alpha virt. eigenvalues --    3.99953   4.03653   4.12622   4.12800   4.13418
 Alpha virt. eigenvalues --    4.16426   4.45289   4.50215   4.51093   4.62982
 Alpha virt. eigenvalues --    4.78431   4.82193   4.93391   4.94493   4.97565
 Alpha virt. eigenvalues --    4.99031   5.00962   5.01527   5.06021   5.08013
 Alpha virt. eigenvalues --    5.09444   5.12662   5.17675   5.18249   5.24400
 Alpha virt. eigenvalues --    5.24473   5.29702   5.31075   5.57606   5.60652
 Alpha virt. eigenvalues --    5.61627   5.69421   5.70022   5.77554   5.78047
 Alpha virt. eigenvalues --    6.08772  23.32994  23.34302  23.52376  23.52540
 Alpha virt. eigenvalues --   23.63440  23.64744  23.80797  23.86371  23.87479
 Alpha virt. eigenvalues --   23.88470  23.92154  23.94512  23.97590  24.06710
 Alpha virt. eigenvalues --   24.07860  24.08521  24.14207  24.17825  24.20829
 Alpha virt. eigenvalues --   24.24226  24.24829  35.45386  49.95078  49.98268
 Alpha virt. eigenvalues --   49.98682  50.03110  50.04926  50.07778  50.08216
 Alpha virt. eigenvalues --   50.09596
  Beta  occ. eigenvalues --  -19.66948 -19.66710 -19.66706 -19.65846 -19.65234
  Beta  occ. eigenvalues --  -19.63409 -19.61637 -19.61159 -15.00808 -10.63894
  Beta  occ. eigenvalues --  -10.63479 -10.63226 -10.62954 -10.62694 -10.61548
  Beta  occ. eigenvalues --  -10.59965 -10.58099 -10.58026 -10.57335 -10.57250
  Beta  occ. eigenvalues --  -10.56870 -10.56491 -10.56413 -10.55503 -10.55344
  Beta  occ. eigenvalues --  -10.55071 -10.54827 -10.54752 -10.54661 -10.54212
  Beta  occ. eigenvalues --   -1.38625  -1.21917  -1.20439  -1.19910  -1.19122
  Beta  occ. eigenvalues --   -1.17596  -1.17350  -1.16947  -1.00440  -0.97298
  Beta  occ. eigenvalues --   -0.92463  -0.91335  -0.91035  -0.87482  -0.85710
  Beta  occ. eigenvalues --   -0.85202  -0.82707  -0.80998  -0.78623  -0.77873
  Beta  occ. eigenvalues --   -0.74886  -0.74353  -0.71224  -0.70657  -0.69566
  Beta  occ. eigenvalues --   -0.66727  -0.66699  -0.65160  -0.63599  -0.62838
  Beta  occ. eigenvalues --   -0.61563  -0.60858  -0.60447  -0.59527  -0.58788
  Beta  occ. eigenvalues --   -0.58605  -0.57857  -0.56498  -0.55498  -0.55330
  Beta  occ. eigenvalues --   -0.54534  -0.54021  -0.53094  -0.52708  -0.52104
  Beta  occ. eigenvalues --   -0.51244  -0.50747  -0.50461  -0.50186  -0.49737
  Beta  occ. eigenvalues --   -0.49267  -0.48502  -0.47445  -0.47276  -0.46526
  Beta  occ. eigenvalues --   -0.45821  -0.45465  -0.45059  -0.44466  -0.44170
  Beta  occ. eigenvalues --   -0.43410  -0.43220  -0.42586  -0.42445  -0.40392
  Beta  occ. eigenvalues --   -0.39821  -0.39544  -0.39063  -0.36371  -0.35739
  Beta  occ. eigenvalues --   -0.35274  -0.34935  -0.33937  -0.33726  -0.32142
  Beta  occ. eigenvalues --   -0.30722  -0.28297  -0.26793
  Beta virt. eigenvalues --   -0.08440  -0.04832  -0.03671  -0.02434   0.01064
  Beta virt. eigenvalues --    0.02300   0.03730   0.05409   0.06919   0.07478
[...]
 3841,0.00005158,0.00003293,0.00000576,-0.00003691,-0.00001703,-0.00002
 818,0.00000488,-0.00000583,0.00000167,-0.00000319,-0.00001545,0.000078
 49,-0.00000099,0.00001687,0.00001060,0.00005706,0.00003127,-0.00000257
 ,-0.00000420,-0.00000209,0.00000228,-0.00007414,-0.00004294,0.00000722
 ,0.00000611,0.00000441,-0.00000808,-0.00001877,-0.00000189,-0.00002581
 ,0.00001397,-0.00000694,0.00000543,-0.00000060,0.00000154,-0.00000026,
 -0.00000158,0.00000019,-0.00000246,-0.00000035,-0.00000009,0.00000205,
 -0.13119486,-0.17783609,0.03582252,0.01042867,0.01220366,-0.00233964,0
 .14372833,0.18611443,0.00024368,-0.00057760,-0.00002828,0.00068965,-0.
 00087012,0.00003154,-0.00080171,-0.00083756,-0.00036713,0.00004457,-0.
 00002885,-0.00006834,0.01657718,0.01027829,-0.00429738,-0.00336932,0.0
 0294470,-0.00377315,-0.00017187,0.00005681,0.00008291,0.00003221,0.000
 01247,-0.00003238,0.00004746,-0.00004633,0.00001474,-0.00002656,0.0000
 4140,-0.00002124,0.00001655,0.00000614,0.00000551,-0.00003335,-0.00005
 010,0.00004181,0.00000058,-0.00001367,-0.00001845,0.00007027,-0.000009
 26,-0.00001905,-0.00000176,-0.00000005,0.00000562,-0.00008901,0.000023
 30,0.00001772,0.00001006,0.00000710,-0.00000209,-0.00001709,0.00002365
 ,-0.00002022,0.00001385,-0.00000172,0.00001928,0.00000213,0.00000048,-
 0.00000176,-0.00000106,0.00000093,-0.00000212,-0.00000197,-0.00000061,
 0.00000150,0.00049277,0.00014769,-0.00068012,-0.00010853,0.00020311,0.
 00016624,-0.00082187,-0.00065283,-0.00490921,-0.00119591,-0.00043969,0
 .00001174,-0.02449615,-0.02373297,0.00183773,0.00042356,0.00174722,0.0
 0320098,0.00002937,-0.00003439,0.00020551,-0.00002005,-0.00001884,0.00
 000019,0.00002222,-0.00000637,-0.00006123,-0.00000799,-0.00000200,0.00
 000027,-0.00000521,-0.00000359,0.00000809,0.00000304,0.00000537,0.0000
 5334,-0.00000924,0.00000793,0.00003312,0.00000776,-0.00000083,-0.00000
 553,-0.00000315,-0.00000017,0.00000041,-0.00002172,-0.00001157,0.00000
 637,0.00000011,0.00000116,-0.00000267,-0.00000316,0.00000301,-0.000004
 27,0.00000565,-0.00000215,0.00000196,-0.00000017,0.00000056,-0.0000002
 7,-0.00000055,0.00000006,-0.00000065,-0.00000036,0.00000002,0.00000061
 ,0.04602427,0.04105868,-0.05248866,0.00962173,0.01226974,-0.00299223,-
 0.04317152,-0.04149555,0.06406417,-0.00067988,0.00062171,0.00028149,0.
 00013461,-0.00008374,-0.00009405,-0.00010526,0.00019812,0.00032201,-0.
 00031990,-0.00043949,-0.00030277,-0.00048301,0.00023335,0.00005856,0.0
 0029881,0.00008341,-0.00023320,-0.00478160,0.00030956,0.00181948,0.000
 23167,-0.00195355,0.00055054,0.02133926,-0.01489890,0.01562586,0.00031
 663,-0.00026725,0.00004964,-0.00035901,-0.00031840,0.00017047,0.000774
 29,0.00327212,-0.00318674,-0.00068522,-0.00344842,-0.00080863,0.000798
 14,-0.00058977,-0.00009731,-0.00005894,-0.00003171,-0.00001807,-0.0004
 7985,0.00010551,0.00026219,0.00015187,-0.00002930,-0.00005495,-0.00569
 665,-0.00120176,0.00286963,0.00055041,-0.00067337,0.00018216,-0.000180
 00,0.00022481,0.00078674,-0.00011474,0.00020445,0.00006370,-0.00027922
 ,0.00019223,0.00039471,0.00001207,0.00001011,-0.00001541,-0.00000906,-
 0.00001370,-0.00000181,-0.00000671,0.00006939,0.00001452,0.00002546,-0
 .00001240,0.00001383,-0.00008354,-0.00012273,-0.00010923,0.00002865,0.
 00007190,0.00004990,0.00000058,0.00000288,0.00000146,-0.00000346,0.000
 00999,-0.00000711,-0.00000420,0.00001532,0.00000202,-0.00000952,0.0000
 1064,-0.00000730,0.00000574,-0.00001327,-0.00000222,0.00001080,0.00001
 065,0.00003006,0.00000725,-0.00001502,0.00000437,0.00003731,0.00001180
 ,-0.00000764,0.00000254,-0.00000632,-0.00000024,-0.00004031,-0.0000095
 7,0.00000379,0.00001243,-0.00000464,-0.00000264,-0.00003705,0.00000666
 ,-0.00002556,0.00002980,-0.00001807,0.00001045,-0.00000129,0.00000410,
 -0.00000154,-0.00000114,0.00000033,-0.00000229,-0.00000324,0.00000053,
 0.00000280,0.00000969,-0.00005867,0.00008384,0.00000263,0.00000629,-0.
 00000770,0.00000944,0.00001078,-0.00000680,0.11745567,-0.00108371,0.00
 029984,0.00157555,0.00022862,-0.00014434,-0.00014108,0.00137781,-0.000
 70071,-0.00050040,0.00050913,-0.00066336,0.00022535,-0.00126217,0.0007
 0427,0.00043829,0.00062678,0.00002694,-0.00054799,-0.00313864,0.000143
 34,0.00161360,-0.00057735,-0.00195736,-0.00045610,-0.00547655,-0.00882
 861,0.04056843,0.00036404,-0.00047726,0.00043961,-0.00034369,-0.000438
 32,0.00014537,0.00275223,-0.01056419,0.00401158,-0.00245215,-0.0041109
 5,0.00123438,-0.00029145,0.00094941,-0.00218127,-0.00004666,0.00006883
 ,0.00013149,-0.00145653,-0.00020184,0.00067854,0.00005597,0.00012275,-
 0.00001694,0.00306518,0.00508837,-0.00283576,-0.00067654,0.00038995,0.
 00109636,-0.00067396,-0.00062807,-0.00068328,-0.00029038,0.00001692,-0
 .00011699,0.00023417,-0.00013809,-0.00032602,-0.00009181,-0.00007260,0
 .00006223,-0.00003741,0.00000608,0.00000473,0.00013410,0.00007494,-0.0
 0005401,0.00000005,0.00001190,0.00000308,-0.00029176,-0.00014650,-0.00
 005530,0.00019335,0.00000708,-0.00000942,0.00004501,0.00003018,0.00000
 767,-0.00001771,-0.00000478,0.00002838,-0.00000865,-0.00000598,-0.0000
 2269,0.00002232,0.00002306,0.00001436,-0.00000172,-0.00000732,0.000001
 68,0.00001090,0.00000258,-0.00003550,-0.00000402,0.00000020,-0.0000027
 4,-0.00004989,-0.00003650,0.00000834,0.00000849,-0.00000114,-0.0000015
 2,0.00006281,0.00004780,-0.00001040,-0.00000267,-0.00000907,0.00000851
 ,0.00001899,0.00000898,0.00001081,-0.00001055,-0.00000058,-0.00000067,
 0.00000108,0.00000197,0.00000070,-0.00000031,-0.00000095,0.00000207,0.
 00000099,-0.00000003,-0.00000284,0.00007620,-0.00005916,0.00004906,0.0
 0002373,-0.00001054,-0.00000257,0.00002121,0.00001152,0.00002236,-0.00
 948435,0.20066601,0.00128247,-0.00052631,-0.00021867,-0.00019507,0.000
 13022,0.00026530,-0.00044917,0.00123804,-0.00132078,-0.00077227,0.0010
 1357,0.00078238,0.00127421,-0.00094049,-0.00010806,-0.00063734,-0.0000
 6175,0.00070006,0.00625815,0.00177611,-0.00148901,-0.00194090,0.001876
 28,0.00013569,-0.00351300,0.02942046,-0.01512587,0.00033198,0.00011238
 ,-0.00019456,0.00039394,0.00030779,-0.00048223,-0.00088429,0.00428562,
 -0.00225558,-0.00090442,-0.00141386,-0.00272988,-0.00073588,-0.0006273
 2,0.00055749,0.00011201,-0.00005249,-0.00001173,0.00106400,-0.00012540
 ,-0.00028800,-0.00010051,-0.00008786,0.00001494,0.00055370,-0.00258996
 ,0.00101185,0.00031421,-0.00097907,-0.00145470,0.00047305,0.00059943,0
 .00102782,0.00022154,0.00004944,0.00020427,-0.00036969,0.00015623,0.00
 037523,0.00015874,0.00011206,-0.00012313,0.00002914,-0.00002072,-0.000
 00541,-0.00020995,-0.00000610,0.00010702,0.00004322,-0.00003285,0.0000
 2234,0.00029400,-0.00004975,-0.00023768,-0.00025236,0.00012483,0.00020
 435,-0.00006023,-0.00003668,-0.00000470,0.00002194,0.00001196,-0.00005
 335,0.00000760,0.00002914,0.00002894,-0.00004005,-0.00002358,-0.000016
 57,0.00000473,0.00000422,-0.00000292,-0.00000789,0.00000377,0.00005901
 ,0.00001696,-0.00002278,0.00001183,0.00010045,0.00005592,-0.00002305,-
 0.00001326,-0.00000497,-0.00000010,-0.00012333,-0.00006867,0.00002520,
 0.00001454,0.00000501,-0.00001811,-0.00006218,0.00000539,-0.00001711,0
 .00004907,-0.00001936,0.00001072,-0.00000286,0.00000110,-0.00000453,0.
 00000147,0.00000235,-0.00000367,-0.00000660,-0.00000042,0.00000797,0.0
 0012229,0.00001090,-0.00007113,0.00000036,-0.00003255,0.00004187,-0.00
 004336,-0.00000781,-0.00001940,0.12887675,-0.26418693,0.59491095,-0.00
 262712,0.00044953,0.00136096,0.00020706,-0.00022399,-0.00012695,0.0020
 2467,0.00199298,0.00017742,-0.00104980,0.00067663,-0.00099871,0.000238
 76,0.00047861,-0.00011255,0.00009037,0.00003437,-0.00000895,-0.0041268
 5,0.00132699,-0.00252841,-0.00124212,-0.00051385,0.00287350,-0.0341198
 9,-0.03266508,-0.02245062,0.00047047,-0.00199006,0.00040222,-0.0001109
 0,-0.00022712,0.00039232,0.00416814,-0.00593530,0.00012032,-0.00032632
 ,0.00012659,0.00122472,0.00129105,0.00124985,0.00047731,-0.00006758,-0
 .00009227,-0.00014540,-0.00073767,-0.00023989,0.00062317,0.00011640,-0
 .00002627,-0.00013006,-0.00159247,0.00201069,-0.00120794,0.00126236,0.
 00006999,0.00025553,0.00037819,0.00017061,0.00029296,-0.00011192,0.000
 07719,-0.00018741,-0.00011645,0.00000613,0.00024914,0.00014534,0.00010
 281,-0.00012088,0.00001682,-0.00004474,-0.00001374,-0.00016546,0.00010
 284,0.00009893,0.00006405,-0.00004608,0.00003674,0.00006955,-0.0002073
 1,-0.00018715,-0.00009821,0.00020875,0.00011302,-0.00004568,-0.0000217
 8,-0.00000013,0.00000470,0.00002449,-0.00005427,-0.00000082,0.00004467
 ,0.00002804,-0.00003984,0.00000261,-0.00003469,0.00001592,-0.00001927,
 -0.00000530,0.00001158,0.00002014,0.00011085,0.00002311,-0.00003606,0.
 00001579,0.00013237,0.00005562,-0.00002813,-0.00000507,-0.00001466,0.0
 0000475,-0.00015488,-0.00006551,0.00002410,0.00003059,-0.00000172,-0.0
 0001917,-0.00010467,0.00001020,-0.00007116,0.00008071,-0.00004542,0.00
 002648,-0.00000331,0.00000982,-0.00000387,-0.00000340,0.00000151,-0.00
 000765,-0.00000872,0.00000141,0.00000878,-0.00012230,-0.00007931,-0.00
 004071,-0.00001976,0.00000643,-0.00000221,-0.00001098,-0.00001253,-0.0
 0000255,-0.00401801,0.01618693,-0.07179419,0.43375885,-0.00012467,-0.0
 0111268,-0.00053458,0.00012354,-0.00010445,-0.00012757,0.00122223,-0.0
 0273378,-0.00021490,0.00023167,0.00014958,-0.00023141,-0.00199942,0.00
 058605,0.00036244,0.00088394,0.00004591,-0.00068968,-0.00111849,-0.001
 41211,-0.00189124,0.00127718,0.00089373,-0.00052603,-0.04107747,0.0028
 2549,-0.01313711,-0.00166960,0.00057102,0.00027886,-0.00001548,-0.0001
 7294,-0.00002942,0.00206854,-0.00922305,-0.00038438,-0.00091503,-0.000
 55004,0.00036264,-0.00036537,-0.00002674,0.00123897,-0.00006352,0.0000
 0668,0.00002805,-0.00132909,-0.00015829,0.00083957,0.00008218,0.000097
 05,-0.00006889,-0.00135241,0.00222643,-0.00106571,0.00082353,0.0000453
 8,0.00077159,0.00000782,-0.00001722,0.00003501,-0.00014584,0.00008874,
 -0.00011623,-0.00004318,-0.00003881,0.00001433,-0.00007065,-0.00006288
 ,0.00004247,-0.00005296,0.00000410,0.00000654,0.00011278,0.00011865,-0
 .00003642,0.00002664,0.00000531,0.00001770,-0.00033669,-0.00024559,-0.
 00026058,0.00018028,0.00004207,0.00012419,0.00004270,0.00002898,0.0000
 1195,-0.00001501,-0.00000159,0.00001887,-0.00000831,0.00000768,-0.0000
 2644,0.00001618,0.00002384,0.00001507,-0.00000053,-0.00000827,0.000002
 34,0.00001361,0.00000635,-0.00003124,0.00000203,-0.00001379,0.00000196
 ,-0.00002732,-0.00002848,-0.00000111,0.00000518,-0.00000370,-0.0000011
 5,0.00003692,0.00003831,-0.00000124,0.00000225,-0.00000963,0.00000324,
 -0.00000044,0.00001703,0.00001576,0.00000741,-0.00000897,0.00000296,0.
 00000029,0.00000274,-0.00000163,0.00000124,0.00000015,0.00000153,-0.00
 000222,-0.00000022,-0.00000014,0.00019674,-0.00008958,0.00026433,0.000
 03634,-0.00000748,-0.00000369,0.00003018,0.00002957,0.00000377,0.02832
 425,0.03910396,0.01502858,0.14471615,0.11884022,0.00057697,-0.00043802
 ,0.00047473,0.00004194,-0.00003238,-0.00000515,0.00000751,0.00039966,-
 0.00011677,-0.00062987,0.00065483,-0.00066609,0.00056719,-0.00026486,-
 0.00036181,-0.00028399,-0.00003019,0.00036402,0.00123654,0.00282948,-0
 .00030936,-0.00105320,-0.00047015,0.00090410,-0.01149570,-0.00080976,0
 .01487721,0.00061816,-0.00030913,-0.00021910,-0.00006362,-0.00012916,-
 0.00014253,0.00143933,-0.00094287,-0.00035558,-0.00014116,-0.00031252,
 -0.00147518,-0.00108341,0.00042756,-0.00027195,0.00004149,-0.00003935,
 0.00002462,0.00019750,-0.00035804,0.00022541,-0.00007813,-0.00000335,-
 0.00000506,-0.00111901,-0.00032889,0.00169643,0.00079995,-0.00071932,-
 0.00095620,0.00064570,0.00051096,0.00077297,0.00009410,0.00002601,0.00
 006979,-0.00019424,0.00012333,0.00041443,0.00010063,0.00007235,-0.0000
 8049,0.00001733,-0.00001284,-0.00000303,-0.00013361,-0.00000848,0.0000
 6392,0.00003121,-0.00002229,0.00001621,0.00018450,-0.00002455,-0.00014
 158,-0.00014905,0.00008961,0.00013685,-0.00003947,-0.00002385,-0.00000
 109,0.00001267,0.00000662,-0.00003412,0.00000567,0.00002043,0.00001477
 ,-0.00002391,-0.00001393,-0.00001085,0.00000326,0.00000312,-0.00000079
 ,-0.00000582,0.00000161,0.00003574,0.00001119,-0.00001631,0.00000800,0
 .00006342,0.00003302,-0.00001589,-0.00000893,-0.00000343,0.00000101,-0
 .00007863,-0.00004209,0.00001858,0.00000961,0.00000320,-0.00001330,-0.
 00004057,0.00000621,-0.00000805,0.00003323,-0.00001397,0.00000713,-0.0
 0000152,0.00000103,-0.00000320,0.00000119,0.00000172,-0.00000248,-0.00
 000486,-0.00000029,0.00000562,-0.00002632,0.00002357,0.00000826,-0.000
 01619,0.00000516,0.00000424,-0.00002049,-0.00000619,-0.00001764,-0.082
 20974,0.00343451,-0.09517793,0.32203391,0.06177998,0.36392720,0.003124
 69,0.00007583,-0.00241308,-0.00042959,0.00027445,0.00031165,-0.0032000
 3,0.00037146,0.00098584,0.00025895,0.00218058,0.00204966,0.00049160,-0
 .00060681,-0.00017855,-0.00043081,-0.00014591,0.00033874,0.01711844,-0
 .00190977,-0.00144149,0.00150530,0.00611974,-0.00483612,-0.12255471,-0
 .00202976,0.02605132,-0.00187427,0.00364621,-0.00075393,0.00087457,0.0
 0099737,-0.00091631,-0.02902399,-0.02578920,0.01299596,-0.00383361,-0.
 00585788,-0.00784078,-0.00492871,0.00243142,0.00263198,0.00007681,0.00
 000188,-0.00001331,0.00110713,-0.00115262,-0.00000472,-0.00055330,0.00
 018634,0.00021906,0.00544171,-0.00412295,0.00114878,-0.00343666,0.0005
 7911,-0.00227096,-0.00050495,-0.00000714,-0.00022698,0.00029525,-0.000
 17417,0.00030459,0.00052035,0.00001338,0.00000504,-0.00012045,-0.00008
 087,0.00010498,-0.00000201,0.00004958,0.00001019,0.00012819,-0.0001665
 6,-0.00008101,-0.00007740,0.00004629,-0.00004460,0.00008409,0.00029430
 ,0.00028208,0.00001775,-0.00023778,-0.00015559,0.00003089,0.00000848,-
 0.00000369,0.00000105,-0.00002768,0.00004674,0.00000501,-0.00005001,-0
 .00001881,0.00003674,-0.00001512,0.00003151,-0.00001725,0.00002695,0.0
 0000572,-0.00001970,-0.00002570,-0.00010716,-0.00002450,0.00004461,-0.
 00001684,-0.00013204,-0.00004762,0.00002993,0.00000184,0.00001798,-0.0
 0000392,0.00015089,0.00005276,-0.00002290,-0.00003442,0.00000716,0.000
 01729,0.00011410,-0.00001783,0.00007298,-0.00009020,0.00005343,-0.0000
 3035,0.00000346,-0.00001164,0.00000487,0.00000316,-0.00000180,0.000007
 56,0.00001024,-0.00000148,-0.00000921,0.00006606,0.00011963,-0.0000156
 5,-0.00000580,-0.00000589,-0.00000313,-0.00000154,-0.00000945,0.000009
 97,-0.12380493,0.00175055,-0.05890180,-0.39357083,-0.12973813,-0.22987
 280,0.65720340,0.00183772,-0.00010924,-0.00227524,-0.00052369,0.000575
 26,0.00040620,-0.00158509,-0.00184701,-0.00055736,0.00204970,-0.002277
 46,-0.00111520,0.00275922,-0.00152542,-0.00104011,-0.00150449,-0.00003
 629,0.00123876,-0.02136085,-0.01624675,0.01130052,0.00414322,-0.002926
 37,-0.00005195,-0.00907470,-0.12451479,0.02475050,0.00132453,0.0011057
 9,-0.00131137,-0.00051227,0.00045770,0.00083724,-0.00492888,0.02639322
 ,-0.00879300,-0.00470063,-0.00686677,-0.00992874,0.00263132,-0.0028124
 1,0.00262198,-0.00006345,-0.00003895,-0.00020860,0.00355135,0.00094813
 ,-0.00208929,-0.00002690,-0.00031984,0.00001614,0.00127185,-0.00837166
 ,0.00348400,-0.00053134,-0.00061214,-0.00280132,0.00040165,0.00061769,
 0.00067326,0.00039882,-0.00014690,0.00032324,-0.00014121,0.00022410,0.
 00031868,0.00012325,0.00010697,-0.00007564,0.00008615,-0.00000522,-0.0
 0000868,-0.00020757,-0.00020129,0.00007008,-0.00003498,-0.00001137,-0.
 00002513,0.00060589,0.00040807,0.00035378,-0.00034512,-0.00007869,-0.0
 0013276,-0.00007401,-0.00004854,-0.00002186,0.00003065,0.00000152,-0.0
 0003571,0.00001391,-0.00000803,0.00004312,-0.00003169,-0.00004474,-0.0
 0001600,-0.00000148,0.00001820,-0.00000382,-0.00002478,-0.00001215,0.0
 0003464,-0.00000069,0.00001521,-0.00000085,0.00005255,0.00005325,-0.00
 000236,-0.00001227,0.00000705,-0.00000175,-0.00007063,-0.00006851,0.00
 000883,-0.00000286,0.00001558,-0.00000884,-0.00000460,-0.00002031,-0.0
 0000677,-0.00000340,0.00001380,-0.00000575,-0.00000151,-0.00000588,0.0
 0000043,0.00000053,0.00000053,-0.00000163,0.00000125,-0.00000041,0.000
 00279,-0.00030398,0.00029025,-0.00020517,-0.00006534,0.00003994,-0.000
 00059,-0.00005665,-0.00003700,-0.00002912,-0.00031654,-0.21859863,0.21
 555693,-0.12765631,-0.14977476,-0.06507769,0.15288429,0.50627532,-0.00
 082983,-0.00086045,-0.00396124,0.00021039,-0.00005459,-0.00026093,0.00
 068083,-0.00341041,0.00231895,0.00321374,-0.00424364,-0.00070002,-0.00
 201415,0.00135667,0.00027527,0.00089571,0.00003413,-0.00110969,0.00130
 865,0.01012429,-0.00964932,-0.00092464,0.00300618,0.00452274,0.0177783
 3,0.00322995,-0.07660239,-0.00027888,-0.00125023,-0.00008099,0.0005311
 1,0.00042580,0.00079563,0.01638586,0.00119910,-0.00025646,-0.00449237,
 -0.00380294,0.00002778,0.00452670,-0.00023808,0.00490403,-0.00022138,-
 0.00005619,-0.00037116,-0.00091258,0.00105794,-0.00016695,0.00022853,-
 0.00004590,-0.00021325,0.00160102,0.00429259,-0.00959752,-0.00253756,0
 .00228335,0.00232577,-0.00170967,-0.00100924,-0.00184341,-0.00045812,-
 0.00005447,-0.00048362,0.00047298,-0.00021443,-0.00089829,-0.00024773,
 -0.00017056,0.00019069,-0.00004356,0.00003372,0.00001029,0.00032040,0.
 00000763,-0.00016124,-0.00006643,0.00005119,-0.00003471,-0.00042632,0.
 00007708,0.00034546,0.00037167,-0.00020123,-0.00031424,0.00009227,0.00
 005403,0.00000883,-0.00003353,-0.00001797,0.00007955,-0.00001239,-0.00
 004515,-0.00004655,0.00006079,0.00003622,0.00002410,-0.00000705,-0.000
 00589,0.00000606,0.00001230,-0.00000524,-0.00008714,-0.00002568,0.0000
 3501,-0.00001835,-0.00015684,-0.00008664,0.00003562,0.00002050,0.00000
 671,0.00000151,0.00019136,0.00010681,-0.00004046,-0.00002246,-0.000008
 10,0.00002913,0.00009828,-0.00000962,0.00002500,-0.00007911,0.00003045
 ,-0.00001659,0.00000503,-0.00000151,0.00000744,-0.00000237,-0.00000375
 ,0.00000579,0.00001084,0.00000077,-0.00001332,-0.00013015,-0.00000508,
 0.00014299,0.00001351,0.00005482,-0.00005424,0.00008096,0.00002423,0.0
 0002212,-0.06532804,0.21637337,-0.47904739,-0.23066813,-0.06189190,-0.
 28367603,0.26251726,-0.16620885,0.85360076\\-0.00000115,0.00000076,0.0
 0000235,0.00000079,0.00000402,0.00000521,0.00000066,-0.00000026,0.0000
 0228,-0.00000036,-0.00000128,0.00000154,0.00000003,-0.00000260,0.00000
 217,-0.00000309,-0.00000727,-0.00000072,-0.00000048,0.00000183,0.00000
 145,-0.00000065,0.00000348,0.00000298,0.00000109,0.00000268,0.00000082
 ,-0.00000059,0.00000495,0.00000265,-0.00000079,0.00000409,0.00000490,0
 .00000181,0.00000286,-0.00000168,-0.00000076,-0.00000069,0.00000130,0.
 00000038,0.00000464,0.00000104,0.00000061,0.00000583,0.00000364,0.0000
 0023,0.00000622,0.00000137,0.00000018,0.00000645,0.00000128,-0.0000016
 2,0.00000233,-0.00000172,0.00000169,0.00000090,-0.00000296,0.00000037,
 -0.00000136,-0.00000212,0.00000191,0.00000081,-0.00000479,0.00000040,0
 .00000203,-0.00000123,0.00000014,-0.00000217,0.00000099,-0.00000115,-0
 .00000187,0.00000188,-0.00000123,0.00000154,0.00000202,-0.00000092,0.0
 0000317,0.00000065,-0.00000173,-0.00000046,0.00000403,0.00000088,0.000
 00002,0.00000440,0.00000016,-0.00000318,0.00000015,-0.00000020,-0.0000
 0467,-0.00000169,-0.00000068,0.00000098,-0.00000178,0.00000071,-0.0000
 0600,-0.00000226,-0.00000061,-0.00000649,-0.00000004,0.00000143,-0.000
 00111,-0.00000297,0.00000043,0.00000092,-0.00000087,0.00000044,-0.0000
 0387,-0.00000379,0.00000022,-0.00000622,-0.00000260,-0.00000047,-0.000
 00562,-0.00000483,0.00000067,-0.00000571,-0.00000517,-0.00000019,-0.00
 000019,-0.00000212,0.00000176,0.00000109,-0.00000342,0.00000027,0.0000
 0090,-0.00000072,0.00000134,0.00000186,-0.00000417,0.00000068,-0.00000
 140,-0.00000330,-0.00000212,0.00000081,0.00000461,-0.00000029,-0.00000
 206,0.00000610,-0.00000244,-0.00000130,0.00000318,0.00000013,-0.000000
 88,-0.00000306,0.00000149,0.00000079,-0.00000296,0.00000061,0.00000071
 ,-0.00000201\\\@


 THERE IS NO CURE FOR BIRTH AND DEATH SAVE TO ENJOY THE INTERVAL.

                               -- GEORGE SANTAYANA
 Job cpu time:       0 days  4 hours  3 minutes 48.7 seconds.
 Elapsed time:       0 days  4 hours  4 minutes 10.7 seconds.
 File lengths (MBytes):  RWF=   3728 Int=      0 D2E=      0 Chk=     69 Scr=      1
 Normal termination of Gaussian 16 at Mon Nov  4 19:35:27 2024.
