 Entering Gaussian System, Link 0=g16
 Initial command:
 /sw/cluster/pub/apps//g16/l1.exe "/data/natrosa/25356/Gau-1291714.inp" -scrdir="/data/natrosa/25356/"
 Entering Link 1 = /sw/cluster/pub/apps//g16/l1.exe PID=   1291715.
  
 Copyright (c) 1988,1990,1992,1993,1995,1998,2003,2009,2016,
            Gaussian, Inc.  All Rights Reserved.
  
 This is part of the Gaussian(R) 16 program.  It is based on
 the Gaussian(R) 09 system (copyright 2009, Gaussian, Inc.),
 the Gaussian(R) 03 system (copyright 2003, Gaussian, Inc.),
 the Gaussian(R) 98 system (copyright 1998, Gaussian, Inc.),
 the Gaussian(R) 94 system (copyright 1995, Gaussian, Inc.),
 the Gaussian 92(TM) system (copyright 1992, Gaussian, Inc.),
 the Gaussian 90(TM) system (copyright 1990, Gaussian, Inc.),
 the Gaussian 88(TM) system (copyright 1988, Gaussian, Inc.),
 the Gaussian 86(TM) system (copyright 1986, Carnegie Mellon
 University), and the Gaussian 82(TM) system (copyright 1983,
 Carnegie Mellon University). Gaussian is a federally registered
 trademark of Gaussian, Inc.
  
 This software contains proprietary and confidential information,
 including trade secrets, belonging to Gaussian, Inc.
  
 This software is provided under written license and may be
 used, copied, transmitted, or stored only in accord with that
 written license.
  
 The following legend is applicable only to US Government
 contracts under FAR:
  
                    RESTRICTED RIGHTS LEGEND
  
 Use, reproduction and disclosure by the US Government is
 subject to restrictions as set forth in subparagraphs (a)
 and (c) of the Commercial Computer Software - Restricted
 Rights clause in FAR 52.227-19.
  
 Gaussian, Inc.
 340 Quinnipiac St., Bldg. 40, Wallingford CT 06492
  
  
 ---------------------------------------------------------------
 Warning -- This program may not be used in any manner that
 competes with the business of Gaussian, Inc. or will provide
 assistance to any competitor of Gaussian, Inc.  The licensee
 of this program is prohibited from giving any competitor of
 Gaussian, Inc. access to this program.  By using this program,
 the user acknowledges that Gaussian, Inc. is engaged in the
 business of creating and licensing software in the field of
 computational chemistry and represents and warrants to the
 licensee that it is not a competitor of Gaussian, Inc. and that
 it will not use this program in any manner prohibited above.
 ---------------------------------------------------------------
  

 Cite this work as:
 Gaussian 16, Revision A.03,
 M. J. Frisch, G. W. Trucks, H. B. Schlegel, G. E. Scuseria, 
 M. A. Robb, J. R. Cheeseman, G. Scalmani, V. Barone, 
 G. A. Petersson, H. Nakatsuji, X. Li, M. Caricato, A. V. Marenich, 
 J. Bloino, B. G. Janesko, R. Gomperts, B. Mennucci, H. P. Hratchian, 
 J. V. Ortiz, A. F. Izmaylov, J. L. Sonnenberg, D. Williams-Young, 
 F. Ding, F. Lipparini, F. Egidi, J. Goings, B. Peng, A. Petrone, 
 T. Henderson, D. Ranasinghe, V. G. Zakrzewski, J. Gao, N. Rega, 
 G. Zheng, W. Liang, M. Hada, M. Ehara, K. Toyota, R. Fukuda, 
 J. Hasegawa, M. Ishida, T. Nakajima, Y. Honda, O. Kitao, H. Nakai, 
 T. Vreven, K. Throssell, J. A. Montgomery, Jr., J. E. Peralta, 
 F. Ogliaro, M. J. Bearpark, J. J. Heyd, E. N. Brothers, K. N. Kudin, 
 V. N. Staroverov, T. A. Keith, R. Kobayashi, J. Normand, 
 K. Raghavachari, A. P. Rendell, J. C. Burant, S. S. Iyengar, 
 J. Tomasi, M. Cossi, J. M. Millam, M. Klene, C. Adamo, R. Cammi, 
 J. W. Ochterski, R. L. Martin, K. Morokuma, O. Farkas, 
 J. B. Foresman, and D. J. Fox, Gaussian, Inc., Wallingford CT, 2016.
 
 ******************************************
 Gaussian 16:  ES64L-G16RevA.03 25-Dec-2016
                 4-Nov-2024 
 ******************************************
 %oldchk=/home/natrosa/MOSSRI/REACAO-1/M06-2X-6-311G-D/CURCUMIN-OPT-FREQ-Reag-1-M
 06-2X-6-311G-D-298-cont.chk
 %chk=CURCUMIN-OPT-FREQ-Reag-1-M06-2X-6-311G-D-363.chk
 Copying data from "/home/natrosa/MOSSRI/REACAO-1/M06-2X-6-311G-D/CURCUMIN-OPT-FREQ-Reag-1-M06-2X-6-311G-D-298-cont.chk" to current chk file "CURCUMIN-OPT-FREQ-Reag-1-M06-2X-6-311G-D-363.chk"
 IOpt=  2 FromEx=T IUOpen= 4 IOptOp= 5 NList=   0 IFRang= 0 IUIn= 4 IUOut= 2.
 ----------------------------------------------------------------------
 # opt=loose freq=noraman M062X/6-311g(d) scrf=(smd,solvent=generic,rea
 d) temperature=363.15 Geom=Check Guess=Rea
 ----------------------------------------------------------------------
 1/7=-1,18=20,19=15,26=3,29=2,38=1,40=2,112=363150/1,3;
 2/9=110,12=2,40=1/2;
 3/5=4,6=6,7=1,11=2,14=-4,25=1,30=1,70=32203,71=1,72=-2,74=-55,116=-2/1,2,3;
 4/5=1/1;
 5/5=2,38=6/2;
 6/7=2,8=2,9=2,10=2,28=1/1;
 7//1,2,3,16;
 1/7=-1,18=20,19=15,26=3/3(2);
 2/9=110/2;
 99//99;
 2/9=110/2;
 3/5=4,6=6,7=1,11=2,14=-2,25=1,30=1,70=32205,71=1,72=-2,74=-55/1,2,3;
 4/5=5,16=3,69=1/1;
 5/5=2,38=5/2;
 7//1,2,3,16;
 1/7=-1,18=20,19=15,26=3/3(-5);
 2/9=110/2;
 6/7=2,8=2,9=2,10=2,19=2,28=1/1;
 99/9=1/99;
 ----------
 Reagente 1
 ----------
 Structure from the checkpoint file:  "CURCUMIN-OPT-FREQ-Reag-1-M06-2X-6-311G-D-363.chk"
 Charge =  0 Multiplicity = 2
 Redundant internal coordinates found in file.  (old form).
 C,0,2.1101179359,1.1308652174,0.92704883
 H,0,1.7117982516,2.1305732392,0.7748522286
 C,0,1.3817934093,0.2341708894,1.6314161877
 H,0,1.7229377153,-0.7821454584,1.7990417969
 C,0,0.0751370748,0.5306110273,2.2330658671
 O,0,-0.520930232,-0.3233582128,2.8607126384
 C,0,3.398266202,0.9082568769,0.334421402
 C,0,4.0612126146,1.9366356862,-0.3024078883
 C,0,4.0551227286,-0.4360805272,0.3975976825
 C,0,5.361713981,1.7984315607,-0.7908174117
 H,0,3.5712667729,2.9005862652,-0.3883210106
 C,0,5.4669941188,-0.4960151101,-0.0745032592
 H,0,3.9552523334,-0.9179285044,1.3729743085
 C,0,6.0800776147,0.5934218046,-0.6413652167
 H,0,5.8525491297,2.6441011525,-1.2614033407
 O,0,7.3789777599,0.4929679915,-1.029224264
 H,0,7.6695175472,1.3282103983,-1.4165507741
 O,0,5.9796675538,-1.7236416719,0.0909721739
 C,0,6.9134387448,-2.2368458428,-0.869561449
 H,0,7.9141111995,-1.8523674191,-0.6861391392
 H,0,6.895105417,-3.3163904475,-0.7381555736
 H,0,6.5913033259,-1.9798166381,-1.8796587722
 C,0,-3.0056416199,0.7041517536,0.9428006474
 H,0,-2.6737091844,0.4698090602,1.9514228873
 C,0,-2.2708814889,1.5414833,0.1936497232
 H,0,-2.5474543963,1.794812883,-0.8253145309
 C,0,-1.0314712923,2.1901071727,0.6505618286
 O,0,-0.4170290731,2.9302565469,-0.0917432105
 C,0,-4.240265405,0.033292954,0.5391464337
 C,0,-4.8579487387,-0.8379957726,1.4396875528
 C,0,-4.8427936523,0.2307286214,-0.7139786998
 C,0,-6.0314142926,-1.5016365543,1.104758728
 H,0,-4.4100028432,-1.0055368537,2.4133614585
 C,0,-6.0070973692,-0.4251904646,-1.0595748424
 H,0,-4.4083475928,0.8956113747,-1.4523927569
 C,0,-6.6128579765,-1.3059353,-0.1429391855
 H,0,-6.4970660496,-2.1833391175,1.810250631
 O,0,-7.7436499166,-1.9305125068,-0.5416436636
 H,0,-8.0633951111,-2.5103255046,0.1616606288
 O,0,-6.548915149,-0.2453283219,-2.299113379
 C,0,-7.7337600852,0.5500544061,-2.2966552049
 H,0,-7.5196652893,1.5505460527,-1.9091801799
 H,0,-8.0588719082,0.624139182,-3.3329654058
 H,0,-8.5206925001,0.0838680688,-1.700806028
 C,0,-0.5259271076,1.9262969137,2.0681376083
 H,0,-1.3412742145,2.0119106641,2.7859153884
 H,0,0.2186604429,2.6902184366,2.2923957494
 O,0,2.5746505159,-2.2500003798,-0.012422687
 O,0,3.4059781329,-1.2600650812,-1.7280267825
 N,0,3.2683669661,-1.4136988102,-0.5384877251
 Recover connectivity data from disk.

 GradGradGradGradGradGradGradGradGradGradGradGradGradGradGradGradGradGrad
 Berny optimization.
 Initialization pass.
                           ----------------------------
                           !    Initial Parameters    !
                           ! (Angstroms and Degrees)  !
 --------------------------                            --------------------------
 ! Name  Definition              Value          Derivative Info.                !
 --------------------------------------------------------------------------------
 ! R1    R(1,2)                  1.0868         estimate D2E/DX2                !
 ! R2    R(1,3)                  1.353          estimate D2E/DX2                !
 ! R3    R(1,7)                  1.4353         estimate D2E/DX2                !
 ! R4    R(3,4)                  1.0851         estimate D2E/DX2                !
 ! R5    R(3,5)                  1.4687         estimate D2E/DX2                !
 ! R6    R(5,6)                  1.2159         estimate D2E/DX2                !
 ! R7    R(5,45)                 1.5285         estimate D2E/DX2                !
 ! R8    R(7,8)                  1.3794         estimate D2E/DX2                !
 ! R9    R(7,9)                  1.4976         estimate D2E/DX2                !
 ! R10   R(8,10)                 1.396          estimate D2E/DX2                !
 ! R11   R(8,11)                 1.0847         estimate D2E/DX2                !
 ! R12   R(9,12)                 1.4899         estimate D2E/DX2                !
 ! R13   R(9,13)                 1.0925         estimate D2E/DX2                !
 ! R14   R(9,50)                 1.5656         estimate D2E/DX2                !
 ! R15   R(10,14)                1.4108         estimate D2E/DX2                !
 ! R16   R(10,15)                1.0851         estimate D2E/DX2                !
 ! R17   R(12,14)                1.3726         estimate D2E/DX2                !
 ! R18   R(12,18)                1.3406         estimate D2E/DX2                !
 ! R19   R(14,16)                1.3593         estimate D2E/DX2                !
 ! R20   R(16,17)                0.9654         estimate D2E/DX2                !
 ! R21   R(18,19)                1.4345         estimate D2E/DX2                !
 ! R22   R(19,20)                1.0876         estimate D2E/DX2                !
 ! R23   R(19,21)                1.0877         estimate D2E/DX2                !
 ! R24   R(19,22)                1.0909         estimate D2E/DX2                !
 ! R25   R(23,24)                1.0874         estimate D2E/DX2                !
 ! R26   R(23,25)                1.3425         estimate D2E/DX2                !
 ! R27   R(23,29)                1.4619         estimate D2E/DX2                !
 ! R28   R(25,26)                1.0858         estimate D2E/DX2                !
 ! R29   R(25,27)                1.4716         estimate D2E/DX2                !
 ! R30   R(27,28)                1.2151         estimate D2E/DX2                !
 ! R31   R(27,45)                1.528          estimate D2E/DX2                !
 ! R32   R(29,30)                1.397          estimate D2E/DX2                !
 ! R33   R(29,31)                1.4044         estimate D2E/DX2                !
 ! R34   R(30,32)                1.3891         estimate D2E/DX2                !
 ! R35   R(30,33)                1.0848         estimate D2E/DX2                !
 ! R36   R(31,34)                1.3803         estimate D2E/DX2                !
 ! R37   R(31,35)                1.0845         estimate D2E/DX2                !
 ! R38   R(32,36)                1.3904         estimate D2E/DX2                !
 ! R39   R(32,37)                1.0859         estimate D2E/DX2                !
 ! R40   R(34,36)                1.4081         estimate D2E/DX2                !
 ! R41   R(34,40)                1.3647         estimate D2E/DX2                !
 ! R42   R(36,38)                1.3519         estimate D2E/DX2                !
 ! R43   R(38,39)                0.9659         estimate D2E/DX2                !
 ! R44   R(40,41)                1.4271         estimate D2E/DX2                !
 ! R45   R(41,42)                1.0941         estimate D2E/DX2                !
 ! R46   R(41,43)                1.0886         estimate D2E/DX2                !
 ! R47   R(41,44)                1.0916         estimate D2E/DX2                !
 ! R48   R(45,46)                1.0896         estimate D2E/DX2                !
 ! R49   R(45,47)                1.0901         estimate D2E/DX2                !
 ! R50   R(48,50)                1.2072         estimate D2E/DX2                !
 ! R51   R(49,50)                1.2073         estimate D2E/DX2                !
 ! A1    A(2,1,3)              119.027          estimate D2E/DX2                !
 ! A2    A(2,1,7)              114.4411         estimate D2E/DX2                !
 ! A3    A(3,1,7)              126.5319         estimate D2E/DX2                !
 ! A4    A(1,3,4)              122.1358         estimate D2E/DX2                !
 ! A5    A(1,3,5)              123.944          estimate D2E/DX2                !
 ! A6    A(4,3,5)              113.9202         estimate D2E/DX2                !
 ! A7    A(3,5,6)              120.3852         estimate D2E/DX2                !
 ! A8    A(3,5,45)             119.3356         estimate D2E/DX2                !
 ! A9    A(6,5,45)             120.2786         estimate D2E/DX2                !
 ! A10   A(1,7,8)              120.4205         estimate D2E/DX2                !
 ! A11   A(1,7,9)              121.028          estimate D2E/DX2                !
 ! A12   A(8,7,9)              118.5508         estimate D2E/DX2                !
 ! A13   A(7,8,10)             122.3739         estimate D2E/DX2                !
 ! A14   A(7,8,11)             118.8176         estimate D2E/DX2                !
 ! A15   A(10,8,11)            118.7527         estimate D2E/DX2                !
 ! A16   A(7,9,12)             116.0009         estimate D2E/DX2                !
 ! A17   A(7,9,13)             113.1724         estimate D2E/DX2                !
 ! A18   A(7,9,50)             108.3557         estimate D2E/DX2                !
 ! A19   A(12,9,13)            110.5965         estimate D2E/DX2                !
 ! A20   A(12,9,50)            105.1671         estimate D2E/DX2                !
 ! A21   A(13,9,50)            102.2672         estimate D2E/DX2                !
 ! A22   A(8,10,14)            121.4548         estimate D2E/DX2                !
 ! A23   A(8,10,15)            119.7315         estimate D2E/DX2                !
 ! A24   A(14,10,15)           118.7673         estimate D2E/DX2                !
 ! A25   A(9,12,14)            121.479          estimate D2E/DX2                !
 ! A26   A(9,12,18)            111.1067         estimate D2E/DX2                !
 ! A27   A(14,12,18)           127.3701         estimate D2E/DX2                !
 ! A28   A(10,14,12)           119.6188         estimate D2E/DX2                !
 ! A29   A(10,14,16)           121.2955         estimate D2E/DX2                !
 ! A30   A(12,14,16)           119.0776         estimate D2E/DX2                !
 ! A31   A(14,16,17)           109.7619         estimate D2E/DX2                !
 ! A32   A(12,18,19)           119.5949         estimate D2E/DX2                !
 ! A33   A(18,19,20)           111.0702         estimate D2E/DX2                !
 ! A34   A(18,19,21)           105.2605         estimate D2E/DX2                !
 ! A35   A(18,19,22)           110.0882         estimate D2E/DX2                !
 ! A36   A(20,19,21)           110.2436         estimate D2E/DX2                !
 ! A37   A(20,19,22)           110.1547         estimate D2E/DX2                !
 ! A38   A(21,19,22)           109.9214         estimate D2E/DX2                !
 ! A39   A(24,23,25)           119.01           estimate D2E/DX2                !
 ! A40   A(24,23,29)           114.5197         estimate D2E/DX2                !
 ! A41   A(25,23,29)           126.4665         estimate D2E/DX2                !
 ! A42   A(23,25,26)           121.992          estimate D2E/DX2                !
 ! A43   A(23,25,27)           124.2366         estimate D2E/DX2                !
 ! A44   A(26,25,27)           113.7701         estimate D2E/DX2                !
 ! A45   A(25,27,28)           120.3117         estimate D2E/DX2                !
 ! A46   A(25,27,45)           119.3807         estimate D2E/DX2                !
 ! A47   A(28,27,45)           120.3075         estimate D2E/DX2                !
 ! A48   A(23,29,30)           118.7903         estimate D2E/DX2                !
 ! A49   A(23,29,31)           122.9682         estimate D2E/DX2                !
 ! A50   A(30,29,31)           118.2402         estimate D2E/DX2                !
 ! A51   A(29,30,32)           121.0672         estimate D2E/DX2                !
 ! A52   A(29,30,33)           119.4944         estimate D2E/DX2                !
 ! A53   A(32,30,33)           119.4365         estimate D2E/DX2                !
 ! A54   A(29,31,34)           121.2309         estimate D2E/DX2                !
 ! A55   A(29,31,35)           121.4582         estimate D2E/DX2                !
 ! A56   A(34,31,35)           117.3081         estimate D2E/DX2                !
 ! A57   A(30,32,36)           120.1588         estimate D2E/DX2                !
 ! A58   A(30,32,37)           120.3646         estimate D2E/DX2                !
 ! A59   A(36,32,37)           119.4743         estimate D2E/DX2                !
 ! A60   A(31,34,36)           119.8081         estimate D2E/DX2                !
 ! A61   A(31,34,40)           119.9788         estimate D2E/DX2                !
 ! A62   A(36,34,40)           120.1918         estimate D2E/DX2                !
 ! A63   A(32,36,34)           119.4914         estimate D2E/DX2                !
 ! A64   A(32,36,38)           123.3265         estimate D2E/DX2                !
 ! A65   A(34,36,38)           117.1804         estimate D2E/DX2                !
 ! A66   A(36,38,39)           109.8435         estimate D2E/DX2                !
 ! A67   A(34,40,41)           113.6741         estimate D2E/DX2                !
 ! A68   A(40,41,42)           110.3545         estimate D2E/DX2                !
 ! A69   A(40,41,43)           106.5136         estimate D2E/DX2                !
 ! A70   A(40,41,44)           111.189          estimate D2E/DX2                !
 ! A71   A(42,41,43)           109.4722         estimate D2E/DX2                !
 ! A72   A(42,41,44)           109.7728         estimate D2E/DX2                !
 ! A73   A(43,41,44)           109.4741         estimate D2E/DX2                !
 ! A74   A(5,45,27)            112.8212         estimate D2E/DX2                !
 ! A75   A(5,45,46)            107.1519         estimate D2E/DX2                !
 ! A76   A(5,45,47)            110.4316         estimate D2E/DX2                !
 ! A77   A(27,45,46)           110.4871         estimate D2E/DX2                !
 ! A78   A(27,45,47)           107.2093         estimate D2E/DX2                !
 ! A79   A(46,45,47)           108.6951         estimate D2E/DX2                !
 ! A80   A(9,50,48)            117.4396         estimate D2E/DX2                !
 ! A81   A(9,50,49)            116.897          estimate D2E/DX2                !
 ! A82   A(48,50,49)           125.6628         estimate D2E/DX2                !
 ! D1    D(2,1,3,4)            178.9226         estimate D2E/DX2                !
 ! D2    D(2,1,3,5)             -0.9954         estimate D2E/DX2                !
 ! D3    D(7,1,3,4)             -1.1147         estimate D2E/DX2                !
 ! D4    D(7,1,3,5)            178.9672         estimate D2E/DX2                !
 ! D5    D(2,1,7,8)              3.257          estimate D2E/DX2                !
 ! D6    D(2,1,7,9)           -177.0519         estimate D2E/DX2                !
 ! D7    D(3,1,7,8)           -176.7072         estimate D2E/DX2                !
 ! D8    D(3,1,7,9)              2.9839         estimate D2E/DX2                !
 ! D9    D(1,3,5,6)           -179.5655         estimate D2E/DX2                !
 ! D10   D(1,3,5,45)             0.1478         estimate D2E/DX2                !
 ! D11   D(4,3,5,6)              0.5104         estimate D2E/DX2                !
 ! D12   D(4,3,5,45)          -179.7763         estimate D2E/DX2                !
 ! D13   D(3,5,45,27)           72.5567         estimate D2E/DX2                !
 ! D14   D(3,5,45,46)         -165.6224         estimate D2E/DX2                !
 ! D15   D(3,5,45,47)          -47.3968         estimate D2E/DX2                !
 ! D16   D(6,5,45,27)         -107.7296         estimate D2E/DX2                !
 ! D17   D(6,5,45,46)           14.0913         estimate D2E/DX2                !
 ! D18   D(6,5,45,47)          132.3168         estimate D2E/DX2                !
 ! D19   D(1,7,8,10)           174.3323         estimate D2E/DX2                !
 ! D20   D(1,7,8,11)            -2.9145         estimate D2E/DX2                !
 ! D21   D(9,7,8,10)            -5.3664         estimate D2E/DX2                !
 ! D22   D(9,7,8,11)           177.3869         estimate D2E/DX2                !
 ! D23   D(1,7,9,12)          -171.4204         estimate D2E/DX2                !
 ! D24   D(1,7,9,13)           -42.0361         estimate D2E/DX2                !
 ! D25   D(1,7,9,50)            70.6402         estimate D2E/DX2                !
 ! D26   D(8,7,9,12)             8.2763         estimate D2E/DX2                !
 ! D27   D(8,7,9,13)           137.6606         estimate D2E/DX2                !
 ! D28   D(8,7,9,50)          -109.663          estimate D2E/DX2                !
 ! D29   D(7,8,10,14)           -0.8721         estimate D2E/DX2                !
 ! D30   D(7,8,10,15)         -178.3617         estimate D2E/DX2                !
 ! D31   D(11,8,10,14)         176.3763         estimate D2E/DX2                !
 ! D32   D(11,8,10,15)          -1.1133         estimate D2E/DX2                !
 ! D33   D(7,9,12,14)           -5.5532         estimate D2E/DX2                !
 ! D34   D(7,9,12,18)          176.6929         estimate D2E/DX2                !
 ! D35   D(13,9,12,14)        -136.1706         estimate D2E/DX2                !
 ! D36   D(13,9,12,18)          46.0754         estimate D2E/DX2                !
 ! D37   D(50,9,12,14)         114.1325         estimate D2E/DX2                !
 ! D38   D(50,9,12,18)         -63.6215         estimate D2E/DX2                !
 ! D39   D(7,9,50,48)         -106.7734         estimate D2E/DX2                !
 ! D40   D(7,9,50,49)           72.9439         estimate D2E/DX2                !
 ! D41   D(12,9,50,48)         128.5811         estimate D2E/DX2                !
 ! D42   D(12,9,50,49)         -51.7016         estimate D2E/DX2                !
 ! D43   D(13,9,50,48)          12.9904         estimate D2E/DX2                !
 ! D44   D(13,9,50,49)        -167.2923         estimate D2E/DX2                !
 ! D45   D(8,10,14,12)           3.8727         estimate D2E/DX2                !
 ! D46   D(8,10,14,16)        -175.0851         estimate D2E/DX2                !
 ! D47   D(15,10,14,12)       -178.6142         estimate D2E/DX2                !
 ! D48   D(15,10,14,16)          2.4281         estimate D2E/DX2                !
 ! D49   D(9,12,14,10)          -0.3646         estimate D2E/DX2                !
 ! D50   D(9,12,14,16)         178.6164         estimate D2E/DX2                !
 ! D51   D(18,12,14,10)        176.9986         estimate D2E/DX2                !
 ! D52   D(18,12,14,16)         -4.0204         estimate D2E/DX2                !
 ! D53   D(9,12,18,19)         145.1272         estimate D2E/DX2                !
 ! D54   D(14,12,18,19)        -32.4624         estimate D2E/DX2                !
 ! D55   D(10,14,16,17)         -1.6656         estimate D2E/DX2                !
 ! D56   D(12,14,16,17)        179.3711         estimate D2E/DX2                !
 ! D57   D(12,18,19,20)         80.8809         estimate D2E/DX2                !
 ! D58   D(12,18,19,21)       -159.8133         estimate D2E/DX2                !
 ! D59   D(12,18,19,22)        -41.3993         estimate D2E/DX2                !
 ! D60   D(24,23,25,26)        178.884          estimate D2E/DX2                !
 ! D61   D(24,23,25,27)         -0.6822         estimate D2E/DX2                !
 ! D62   D(29,23,25,26)         -0.3628         estimate D2E/DX2                !
 ! D63   D(29,23,25,27)       -179.929          estimate D2E/DX2                !
 ! D64   D(24,23,29,30)         -0.9962         estimate D2E/DX2                !
 ! D65   D(24,23,29,31)        178.5712         estimate D2E/DX2                !
 ! D66   D(25,23,29,30)        178.2798         estimate D2E/DX2                !
 ! D67   D(25,23,29,31)         -2.1528         estimate D2E/DX2                !
 ! D68   D(23,25,27,28)        179.5143         estimate D2E/DX2                !
 ! D69   D(23,25,27,45)         -0.6055         estimate D2E/DX2                !
 ! D70   D(26,25,27,28)         -0.0837         estimate D2E/DX2                !
 ! D71   D(26,25,27,45)        179.7965         estimate D2E/DX2                !
 ! D72   D(25,27,45,5)          73.5044         estimate D2E/DX2                !
 ! D73   D(25,27,45,46)        -46.4147         estimate D2E/DX2                !
 ! D74   D(25,27,45,47)       -164.7047         estimate D2E/DX2                !
 ! D75   D(28,27,45,5)        -106.6155         estimate D2E/DX2                !
 ! D76   D(28,27,45,46)        133.4655         estimate D2E/DX2                !
 ! D77   D(28,27,45,47)         15.1755         estimate D2E/DX2                !
 ! D78   D(23,29,30,32)       -179.9144         estimate D2E/DX2                !
 ! D79   D(23,29,30,33)         -0.4166         estimate D2E/DX2                !
 ! D80   D(31,29,30,32)          0.4976         estimate D2E/DX2                !
 ! D81   D(31,29,30,33)        179.9954         estimate D2E/DX2                !
 ! D82   D(23,29,31,34)        179.7853         estimate D2E/DX2                !
 ! D83   D(23,29,31,35)          0.4086         estimate D2E/DX2                !
 ! D84   D(30,29,31,34)         -0.6451         estimate D2E/DX2                !
 ! D85   D(30,29,31,35)        179.9782         estimate D2E/DX2                !
 ! D86   D(29,30,32,36)         -0.0068         estimate D2E/DX2                !
 ! D87   D(29,30,32,37)        179.4435         estimate D2E/DX2                !
 ! D88   D(33,30,32,36)       -179.505          estimate D2E/DX2                !
 ! D89   D(33,30,32,37)         -0.0546         estimate D2E/DX2                !
 ! D90   D(29,31,34,36)          0.2995         estimate D2E/DX2                !
 ! D91   D(29,31,34,40)       -178.0249         estimate D2E/DX2                !
 ! D92   D(35,31,34,36)        179.7012         estimate D2E/DX2                !
 ! D93   D(35,31,34,40)          1.3767         estimate D2E/DX2                !
 ! D94   D(30,32,36,34)         -0.3502         estimate D2E/DX2                !
 ! D95   D(30,32,36,38)        179.1556         estimate D2E/DX2                !
 ! D96   D(37,32,36,34)       -179.8055         estimate D2E/DX2                !
 ! D97   D(37,32,36,38)         -0.2997         estimate D2E/DX2                !
 ! D98   D(31,34,36,32)          0.2053         estimate D2E/DX2                !
 ! D99   D(31,34,36,38)       -179.3306         estimate D2E/DX2                !
 ! D100  D(40,34,36,32)        178.5261         estimate D2E/DX2                !
 ! D101  D(40,34,36,38)         -1.0097         estimate D2E/DX2                !
 ! D102  D(31,34,40,41)       -107.1868         estimate D2E/DX2                !
 ! D103  D(36,34,40,41)         74.4952         estimate D2E/DX2                !
 ! D104  D(32,36,38,39)          0.0616         estimate D2E/DX2                !
 ! D105  D(34,36,38,39)        179.5781         estimate D2E/DX2                !
 ! D106  D(34,40,41,42)         60.8296         estimate D2E/DX2                !
 ! D107  D(34,40,41,43)        179.5696         estimate D2E/DX2                !
 ! D108  D(34,40,41,44)        -61.23           estimate D2E/DX2                !
 --------------------------------------------------------------------------------
 Trust Radius=3.00D-01 FncErr=1.00D-07 GrdErr=1.00D-06 EigMax=2.50D+02 EigMin=1.00D-04
 Number of steps in this run=    251 maximum allowed number of steps=    300.
 GradGradGradGradGradGradGradGradGradGradGradGradGradGradGradGradGradGrad

                          Input orientation:                          
 ---------------------------------------------------------------------
 Center     Atomic      Atomic             Coordinates (Angstroms)
 Number     Number       Type             X           Y           Z
 ---------------------------------------------------------------------
      1          6           0        2.110118    1.130865    0.927049
      2          1           0        1.711798    2.130573    0.774852
      3          6           0        1.381793    0.234171    1.631416
      4          1           0        1.722938   -0.782145    1.799042
      5          6           0        0.075137    0.530611    2.233066
      6          8           0       -0.520930   -0.323358    2.860713
      7          6           0        3.398266    0.908257    0.334421
      8          6           0        4.061213    1.936636   -0.302408
      9          6           0        4.055123   -0.436081    0.397598
     10          6           0        5.361714    1.798432   -0.790817
     11          1           0        3.571267    2.900586   -0.388321
     12          6           0        5.466994   -0.496015   -0.074503
     13          1           0        3.955252   -0.917929    1.372974
     14          6           0        6.080078    0.593422   -0.641365
     15          1           0        5.852549    2.644101   -1.261403
     16          8           0        7.378978    0.492968   -1.029224
     17          1           0        7.669518    1.328210   -1.416551
     18          8           0        5.979668   -1.723642    0.090972
     19          6           0        6.913439   -2.236846   -0.869561
     20          1           0        7.914111   -1.852367   -0.686139
     21          1           0        6.895105   -3.316390   -0.738156
     22          1           0        6.591303   -1.979817   -1.879659
     23          6           0       -3.005642    0.704152    0.942801
     24          1           0       -2.673709    0.469809    1.951423
     25          6           0       -2.270881    1.541483    0.193650
     26          1           0       -2.547454    1.794813   -0.825315
     27          6           0       -1.031471    2.190107    0.650562
     28          8           0       -0.417029    2.930257   -0.091743
     29          6           0       -4.240265    0.033293    0.539146
     30          6           0       -4.857949   -0.837996    1.439688
     31          6           0       -4.842794    0.230729   -0.713979
     32          6           0       -6.031414   -1.501637    1.104759
     33          1           0       -4.410003   -1.005537    2.413361
     34          6           0       -6.007097   -0.425190   -1.059575
     35          1           0       -4.408348    0.895611   -1.452393
     36          6           0       -6.612858   -1.305935   -0.142939
     37          1           0       -6.497066   -2.183339    1.810251
     38          8           0       -7.743650   -1.930513   -0.541644
     39          1           0       -8.063395   -2.510326    0.161661
     40          8           0       -6.548915   -0.245328   -2.299113
     41          6           0       -7.733760    0.550054   -2.296655
     42          1           0       -7.519665    1.550546   -1.909180
     43          1           0       -8.058872    0.624139   -3.332965
     44          1           0       -8.520693    0.083868   -1.700806
     45          6           0       -0.525927    1.926297    2.068138
     46          1           0       -1.341274    2.011911    2.785915
     47          1           0        0.218660    2.690218    2.292396
     48          8           0        2.574651   -2.250000   -0.012423
     49          8           0        3.405978   -1.260065   -1.728027
     50          7           0        3.268367   -1.413699   -0.538488
 ---------------------------------------------------------------------
                    Distance matrix (angstroms):
                    1          2          3          4          5
     1  C    0.000000
     2  H    1.086848   0.000000
     3  C    1.353015   2.106881   0.000000
     4  H    2.137730   3.087559   1.085070   0.000000
     5  C    2.491412   2.713840   1.468744   2.151035   0.000000
     6  O    3.574386   3.918886   2.332888   2.524396   1.215936
     7  C    1.435301   2.128899   2.490532   2.794512   3.845862
     8  C    2.442867   2.591881   3.717170   4.156368   4.928928
     9  C    2.553171   3.495884   3.019641   2.742789   4.488176
    10  C    3.737591   3.985414   4.914661   5.158240   6.220863
    11  H    2.645197   2.324546   3.997862   4.665125   4.971054
    12  C    3.862443   4.660672   4.486892   4.196427   5.954071
    13  H    2.793014   3.831997   2.831398   2.276664   4.230049
    14  C    4.302249   4.842558   5.231488   5.180004   6.657748
    15  H    4.591840   4.642829   5.844983   6.177312   7.075072
    16  O    5.656395   6.168741   6.565988   6.451030   7.999378
    17  H    6.036417   6.398473   7.072659   7.082051   8.463479
    18  O    4.880640   5.791146   5.229383   4.682271   6.673358
    19  C    6.135241   6.988241   6.554381   6.014890   8.002967
    20  H    6.722231   7.514453   7.238500   6.756636   8.697693
    21  H    6.741446   7.669764   6.972658   6.293734   8.374936
    22  H    6.134735   6.910232   6.660960   6.218379   8.104145
    23  C    5.133549   4.931240   4.465944   5.030079   3.344562
    24  H    4.936734   4.834784   4.074927   4.573960   2.763906
    25  C    4.460901   4.067746   4.137423   4.891536   3.268774
    26  H    5.020417   4.562291   4.889797   5.635975   4.222545
    27  C    3.326864   2.746729   3.257546   4.211895   2.546140
    28  O    3.265305   2.433595   3.670684   4.683637   3.377168
    29  C    6.456199   6.315157   5.730702   6.149152   4.662552
    30  C    7.259006   7.239888   6.334089   6.590927   5.180528
    31  C    7.200430   6.984891   6.651795   7.102817   5.741171
    32  C    8.558399   8.559155   7.631910   7.818547   6.533994
    33  H    7.020350   7.070810   5.974380   6.167678   4.744337
    34  C    8.500422   8.335370   7.891254   8.249397   6.982021
    35  H    6.943161   6.628871   6.593414   7.139983   5.815279
    36  C    9.119933   9.052725   8.332750   8.575030   7.331274
    37  H    9.265399   9.330988   8.243347   8.338581   7.123072
    38  O   10.422372  10.374540   9.627137   9.819055   8.653876
    39  H   10.832565  10.838282   9.945050  10.071739   8.931614
    40  O    9.342424   9.128722   8.864261   9.246978   8.063548
    41  C   10.374562  10.057374   9.930903  10.391276   9.027604
    42  H   10.047540   9.631219   9.669779  10.228298   8.710884
    43  H   11.036886  10.705583  10.673487  11.135481   9.856549
    44  H   11.000725  10.724819  10.449188  10.859598   9.463784
    45  C    2.980525   2.592630   2.587163   3.530647   1.528535
    46  H    4.017927   3.657828   3.450844   4.262636   2.122761
    47  H    2.805952   2.201273   2.796773   3.816223   2.165184
    48  O    3.539583   4.533623   3.208773   2.482220   4.361374
    49  O    3.800688   4.542145   4.197133   3.937162   5.476429
    50  N    3.156603   4.087742   3.314079   2.872500   4.653877
                    6          7          8          9         10
     6  O    0.000000
     7  C    4.822771   0.000000
     8  C    6.009071   1.379352   0.000000
     9  C    5.198067   1.497563   2.473828   0.000000
    10  C    7.241627   2.431810   1.396047   2.848255   0.000000
    11  H    6.139716   2.126420   1.084725   3.461955   2.140666
    12  C    6.670873   2.533542   2.818857   1.489917   2.405967
    13  H    4.754271   2.173426   3.311596   1.092479   3.746831
    14  C    7.528502   2.871131   2.448455   2.497951   1.410826
    15  H    8.149779   3.403427   2.151526   3.933261   1.085139
    16  O    8.843446   4.228245   3.690529   3.734563   2.414628
    17  H    9.386485   4.635283   3.825096   4.412222   2.436926
    18  O    7.203473   3.694562   4.151247   2.335745   3.682991
    19  C    8.535000   4.868027   5.086728   3.608105   4.324062
    20  H    9.277281   5.390310   5.417437   4.251135   4.455785
    21  H    8.769702   5.588019   5.984573   4.201383   5.339988
    22  H    8.706253   4.841343   4.922162   3.741822   4.119785
    23  C    3.302719   6.435979   7.280796   7.172989   8.614843
    24  H    2.467869   6.298874   7.251931   6.965069   8.593785
    25  C    3.695022   5.706139   6.363775   6.631039   7.700111
    26  H    4.709591   6.122300   6.630839   7.075763   7.909244
    27  C    3.385694   4.622300   5.187276   5.730121   6.565349
    28  O    4.394747   4.338960   4.591983   5.618881   5.929891
    29  C    4.398900   7.691205   8.558356   8.309862   9.853047
    30  C    4.592809   8.510940   9.501837   8.982780  10.787373
    31  C    5.635950   8.335062   9.075287   8.991838  10.324513
    32  C    5.902300   9.763190  10.754671  10.167287  12.011954
    33  H    3.973711   8.303834   9.369806   8.720432  10.659055
    34  C    6.743668   9.601155  10.369300  10.167190  11.587346
    35  H    5.933024   8.008501   8.610438   8.765055   9.833965
    36  C    6.862869  10.264167  11.156858  10.717026  12.387381
    37  H    6.346432  10.471563  11.528867  10.788753  12.776960
    38  O    8.144118  11.531192  12.424446  11.930069  13.627827
    39  H    8.304004  11.961866  12.922729  12.297017  14.131743
    40  O    7.935143  10.354356  11.014654  10.943229  12.178464
    41  C    8.909894  11.444338  12.042467  12.132981  13.240749
    42  H    8.674427  11.164565  11.698184  11.968443  12.932212
    43  H    9.802039  12.033140  12.561981  12.719671  13.709617
    44  H    9.217889  12.119544  12.794241  12.760281  14.017454
    45  C    2.385194   4.409248   5.163472   5.418261   6.546319
    46  H    2.476296   5.448956   6.223365   6.388883   7.600569
    47  H    3.154619   4.137504   4.697457   5.299287   6.062383
    48  O    4.642141   3.282260   4.452177   2.377019   4.976286
    49  O    6.111838   2.992553   3.560985   2.370363   3.749355
    50  N    5.205975   2.484013   3.450953   1.565560   3.842337
                   11         12         13         14         15
    11  H    0.000000
    12  C    3.902456   0.000000
    13  H    4.222637   2.135080   0.000000
    14  C    3.417773   1.372617   3.294939   0.000000
    15  H    2.456075   3.379011   4.819516   2.154415   0.000000
    16  O    4.550390   2.354838   4.413965   1.359289   2.647879
    17  H    4.508357   3.159114   5.159686   1.914979   2.248780
    18  O    5.235800   1.340628   2.528035   2.432115   4.574085
    19  C    6.147757   2.398919   3.939464   2.959219   5.010257
    20  H    6.445119   2.863943   4.559132   3.057379   4.979879
    21  H    7.058405   3.230240   4.341915   3.995031   6.073563
    22  H    5.929843   2.593130   4.319258   2.901082   4.723199
    23  C    7.060590   8.617474   7.160324   9.223456   9.332174
    24  H    7.098085   8.444421   6.797319   9.130532   9.367330
    25  C    6.026321   8.006124   6.797371   8.445981   8.326048
    26  H    6.233173   8.369169   7.380829   8.712720   8.454083
    27  C    4.771714   7.069019   5.920235   7.402203   7.159012
    28  O    3.999418   6.808918   6.005895   6.926419   6.384168
    29  C    8.372670   9.741028   8.292563  10.402732  10.579376
    30  C    9.400547  10.440985   8.813816  11.225870  11.581695
    31  C    8.833493  10.355134   9.114845  10.929132  10.977905
    32  C   10.668661  11.602385  10.007306  12.414768  12.806813
    33  H    9.317075  10.198243   8.430159  11.042183  11.495379
    34  C   10.161517  11.516517  10.266864  12.137227  12.252041
    35  H    8.296169  10.067650   9.012293  10.524075  10.410557
    36  C   11.021408  12.107167  10.683328  12.843932  13.124029
    37  H   11.491359  12.228577  10.537715  13.111269  13.610740
    38  O   12.304079  13.296508  11.897706  14.052602  14.363209
    39  H   12.843123  13.681544  12.184043  14.502273  14.907942
    40  O   10.768751  12.222676  11.147832  12.764916  12.775835
    41  C   11.703434  13.427291  12.339131  13.912727  13.785666
    42  H   11.275832  13.274328  12.187684  13.692204  13.432483
    43  H   12.211194  13.957843  12.994731  14.392899  14.209126
    44  H   12.484871  14.093846  12.888015  14.648022  14.606093
    45  C    4.875492   6.809817   5.352928   7.263419   7.230909
    46  H    5.915960   7.798987   6.215590   8.296676   8.278378
    47  H    4.297728   6.580220   5.275053   6.881840   6.661255
    48  O    5.259571   3.383189   2.366390   4.557262   6.021362
    49  O    4.374146   2.750582   3.167802   3.430314   4.630978
    50  N    4.327511   2.427218   2.090762   3.456130   4.864807
                   16         17         18         19         20
    16  O    0.000000
    17  H    0.965435   0.000000
    18  O    2.850661   3.800266   0.000000
    19  C    2.773825   3.685170   1.434549   0.000000
    20  H    2.429953   3.272522   2.088671   1.087572   0.000000
    21  H    3.850982   4.757337   2.015522   1.087667   1.784500
    22  H    2.730995   3.509994   2.079209   1.090932   1.786212
    23  C   10.572313  10.950571   9.346420  10.503441  11.332707
    24  H   10.485290  10.911574   9.118850  10.353615  11.155769
    25  C    9.783383  10.072227   8.873733   9.987889  10.771552
    26  H   10.013513  10.244696   9.269893  10.284198  11.079966
    27  C    8.742861   8.984599   8.049015   9.221187   9.907160
    28  O    8.221738   8.349485   7.912641   9.002206   9.624692
    29  C   11.733623  12.138554  10.379533  11.469224  12.360660
    30  C   12.554257  13.030271  10.957068  12.077043  12.987440
    31  C   12.228649  12.579984  11.026930  12.013415  12.925892
    32  C   13.724830  14.215505  12.055834  13.115170  14.064424
    33  H   12.372428  12.885240  10.670259  11.853862  12.736083
    34  C   13.417561  13.793174  12.111658  13.048312  13.999155
    35  H   11.801789  12.085663  10.823739  11.761583  12.648380
    36  C   14.134816  14.578994  12.601623  13.577749  14.547388
    37  H   14.414223  14.947753  12.603020  13.675741  14.629543
    38  O   15.323344  15.778164  13.739448  14.663956  15.658623
    39  H   15.776719  16.271129  14.065258  15.014785  16.013506
    40  O   14.005138  14.332438  12.839911  13.683740  14.641154
    41  C   15.165899  15.448012  14.104203  14.978112  15.912928
    42  H   14.962031  15.198796  14.033991  14.957929  15.851722
    43  H   15.609344  15.860347  14.639536  15.440974  16.379101
    44  H   15.919105  16.240446  14.722024  15.629750  16.579546
    45  C    8.610203   8.925585   7.717124   9.016984   9.648761
    46  H    9.638738   9.966069   8.649466   9.977712  10.613669
    47  H    8.193364   8.433660   7.584038   8.893480   9.419486
    48  O    5.624884   6.382228   3.447011   4.422662   5.396466
    49  O    4.398429   4.997395   3.185520   3.740768   4.664720
    50  N    4.557776   5.259200   2.800613   3.751497   4.668744
                   21         22         23         24         25
    21  H    0.000000
    22  H    1.783747   0.000000
    23  C   10.817355  10.357187   0.000000
    24  H   10.636322  10.320771   1.087389   0.000000
    25  C   10.415494   9.758918   1.342469   2.097742   0.000000
    26  H   10.737501   9.943659   2.127371   3.079261   1.085798
    27  C    9.750932   9.049695   2.488135   2.710832   1.471604
    28  O    9.638763   8.741978   3.567455   3.914197   2.333861
    29  C   11.698220  11.279455   1.461945   2.153873   2.504492
    30  C   12.207363  11.975274   2.460926   2.596754   3.729269
    31  C   12.262174  11.704012   2.518765   3.444772   3.025987
    32  C   13.182738  12.979538   3.747937   3.984673   4.922632
    33  H   11.961504  11.849387   2.656655   2.324811   3.998784
    34  C   13.226080  12.720421   3.780695   4.580241   4.404280
    35  H   12.083838  11.377300   2.782300   3.843987   2.774053
    36  C   13.669722  13.334924   4.269812   4.801720   5.203253
    37  H   13.679490  13.600083   4.613038   4.655876   5.860745
    38  O   14.705524  14.397347   5.620832   6.138503   6.522776
    39  H   15.007203  14.805695   6.043502   6.413514   7.069045
    40  O   13.878390  13.260835   4.895539   5.796180   5.263852
    41  C   15.211247  14.552717   5.733491   6.607323   6.085030
    42  H   15.259226  14.545919   5.406162   6.289319   5.654353
    43  H   15.680633  14.950596   6.619948   7.546427   6.839544
    44  H   15.815666  15.253301   6.147292   6.904704   6.691318
    45  C    9.509615   9.027613   2.984796   2.597681   2.589720
    46  H   10.423426  10.031314   2.806675   2.202235   2.793799
    47  H    9.478318   8.934531   4.020198   3.662278   3.452846
    48  O    4.508903   4.437687   6.385854   6.228911   6.156054
    49  O    4.169212   3.269148   7.218056   7.313919   6.615758
    50  N    4.100407   3.627828   6.785476   6.712341   6.320791
                   26         27         28         29         30
    26  H    0.000000
    27  C    2.152365   0.000000
    28  O    2.523107   1.215063   0.000000
    29  C    2.798270   3.867896   4.838136   0.000000
    30  C    4.171367   4.943082   6.022190   1.397015   0.000000
    31  C    2.779809   4.497479   5.221304   1.404402   2.404304
    32  C    5.170081   6.231749   7.252214   2.425725   1.389107
    33  H    4.669054   4.973337   6.140835   2.149572   1.084789
    34  C    4.117332   5.875475   6.591251   2.426481   2.781594
    35  H    2.159795   4.183471   4.682069   2.176712   3.401715
    36  C    5.158273   6.633539   7.505747   2.808553   2.409021
    37  H    6.194460   7.095395   8.169045   3.409151   2.152666
    38  O    6.399919   7.965815   8.803912   4.159128   3.666952
    39  H    7.066395   8.472369   9.387814   4.607473   3.834700
    40  O    4.727150   6.713726   7.249610   3.669225   4.145993
    41  C    5.532814   7.503102   8.003846   4.529163   4.915001
    42  H    5.094832   7.004140   7.460169   4.364725   4.899468
    43  H    6.167213   8.228311   8.615188   5.470293   5.929752
    44  H    6.274822   8.127337   8.738442   4.831356   4.912049
    45  C    3.532128   1.527970   2.384298   4.440449   5.177130
    46  H    3.813526   2.165056   3.158878   4.167379   4.722425
    47  H    4.263011   2.123337   2.479080   5.478609   6.240783
    48  O    6.577026   5.758317   5.982600   7.208380   7.703630
    49  O    6.752076   6.103469   5.903525   8.079473   8.860307
    50  N    6.648353   5.734969   5.714164   7.722347   8.383413
                   31         32         33         34         35
    31  C    0.000000
    32  C    2.778797   0.000000
    33  H    3.390563   2.141852   0.000000
    34  C    1.380315   2.417368   3.866368   0.000000
    35  H    1.084467   3.862663   4.307949   2.110645   0.000000
    36  C    2.412582   1.390369   3.387843   1.408147   3.379548
    37  H    3.864722   1.085941   2.471193   3.401037   4.948487
    38  O    3.621551   2.413778   4.549817   2.355814   4.465499
    39  H    4.318842   2.456793   4.547727   3.172943   5.250233
    40  O    2.377001   3.665032   5.230706   1.364688   2.569184
    41  C    3.311272   4.321693   5.970886   2.337271   3.448269
    42  H    3.214975   4.540323   5.906600   2.629301   3.212148
    43  H    4.166176   5.321927   6.999312   3.237156   4.115407
    44  H    3.810818   4.072042   5.917005   2.643573   4.199050
    45  C    5.408369   6.556616   4.878614   6.734635   5.341314
    46  H    5.261417   6.096615   4.319824   6.518985   5.349422
    47  H    6.380101   7.618764   5.924337   7.726677   6.217175
    48  O    7.852686   8.710482   7.497900   8.835885   7.792987
    49  O    8.443518   9.856338   8.849036   9.473639   8.110894
    50  N    8.278035   9.444253   8.236345   9.342533   8.068462
                   36         37         38         39         40
    36  C    0.000000
    37  H    2.144340   0.000000
    38  O    1.351944   2.673817   0.000000
    39  H    1.909815   2.297424   0.965949   0.000000
    40  O    2.403760   4.543726   2.712183   3.671413   0.000000
    41  C    3.056078   5.086013   3.038647   3.939277   1.427059
    42  H    3.478706   5.368591   3.746744   4.590719   2.078357
    43  H    3.999051   6.064144   3.796984   4.694390   2.026029
    44  H    2.828133   4.643577   2.450547   3.226103   2.086683
    45  C    7.237880   7.253283   8.589613   8.951631   7.750176
    46  H    6.883014   6.718202   8.222272   8.516117   7.620510
    47  H    8.280685   8.311739   9.632306  10.008903   8.689043
    48  O    9.236807   9.253249  10.336802  10.642654   9.617022
    49  O   10.143554  10.556615  11.232596  11.691048  10.022761
    50  N    9.889726  10.073361  11.024138  11.406210  10.042107
                   41         42         43         44         45
    41  C    0.000000
    42  H    1.094055   0.000000
    43  H    1.088635   1.782172   0.000000
    44  H    1.091617   1.787909   1.780201   0.000000
    45  C    8.538051   8.054354   9.360170   9.028608   0.000000
    46  H    8.296591   7.773628   9.191993   8.682860   1.089645
    47  H    9.427655   8.878839  10.219144   9.955652   1.090082
    48  O   10.923431  10.951578  11.504716  11.463168   5.602122
    49  O   11.300161  11.282820  11.728974  12.002182   6.326424
    50  N   11.313456  11.271521  11.843489  11.940503   5.687419
                   46         47         48         49         50
    46  H    0.000000
    47  H    1.771175   0.000000
    48  O    6.428767   5.938741   0.000000
    49  O    7.322425   6.475147   2.148110   0.000000
    50  N    6.635906   5.844377   1.207223   1.207288   0.000000
 Stoichiometry    C21H20NO8(2)
 Framework group  C1[X(C21H20NO8)]
 Deg. of freedom   144
 Full point group                 C1      NOp   1
 Largest Abelian subgroup         C1      NOp   1
 Largest concise Abelian subgroup C1      NOp   1
                         Standard orientation:                         
 ---------------------------------------------------------------------
 Center     Atomic      Atomic             Coordinates (Angstroms)
 Number     Number       Type             X           Y           Z
 ---------------------------------------------------------------------
      1          6           0        2.134380    1.358702    0.365389
      2          1           0        1.746860    2.216029   -0.178722
      3          6           0        1.398804    0.832674    1.371806
      4          1           0        1.729028   -0.032902    1.936700
      5          6           0        0.098120    1.363041    1.800923
      6          8           0       -0.505039    0.843429    2.720000
      7          6           0        3.417437    0.899720   -0.085375
      8          6           0        4.089422    1.574280   -1.083382
      9          6           0        4.059176   -0.311881    0.517026
     10          6           0        5.386226    1.234503   -1.472996
     11          1           0        3.610149    2.426846   -1.552485
     12          6           0        5.468302   -0.574840    0.110739
     13          1           0        3.957863   -0.356517    1.603881
     14          6           0        6.091414    0.184470   -0.848040
     15          1           0        5.884718    1.811363   -2.245179
     16          8           0        7.387465   -0.080077   -1.160987
     17          1           0        7.685902    0.523370   -1.852979
     18          8           0        5.967624   -1.636578    0.759332
     19          6           0        6.891490   -2.505874    0.089460
     20          1           0        7.897234   -2.092203    0.102404
     21          1           0        6.861392   -3.439571    0.646529
     22          1           0        6.568121   -2.675748   -0.938502
     23          6           0       -2.985804    1.036841    0.548283
     24          1           0       -2.652385    1.226743    1.565723
     25          6           0       -2.244655    1.490387   -0.475054
     26          1           0       -2.522544    1.312990   -1.509590
     27          6           0       -0.996044    2.253376   -0.318731
     28          8           0       -0.376285    2.622289   -1.296575
     29          6           0       -4.229661    0.275016    0.449665
     30          6           0       -4.853501   -0.149728    1.625279
     31          6           0       -4.835090   -0.044308   -0.776643
     32          6           0       -6.035837   -0.877879    1.586634
     33          1           0       -4.403461    0.085707    2.583819
     34          6           0       -6.008222   -0.769828   -0.828160
     35          1           0       -4.396156    0.259537   -1.720615
     36          6           0       -6.620181   -1.196849    0.366008
     37          1           0       -6.506303   -1.210051    2.507282
     38          8           0       -7.759666   -1.915609    0.253270
     39          1           0       -8.083083   -2.157268    1.130801
     40          8           0       -6.553089   -1.100457   -2.034881
     41          6           0       -7.728766   -0.357846   -2.355522
     42          1           0       -7.501670    0.711192   -2.405950
     43          1           0       -8.057306   -0.705571   -3.333414
     44          1           0       -8.518486   -0.533440   -1.622625
     45          6           0       -0.487667    2.579739    1.084740
     46          1           0       -1.299001    2.958382    1.705781
     47          1           0        0.266508    3.359987    0.981244
     48          8           0        2.556426   -2.118483    0.875011
     49          8           0        3.391867   -1.917700   -1.093770
     50          7           0        3.257447   -1.575097    0.056055
 ---------------------------------------------------------------------
 Rotational constants (GHZ):           0.3349215           0.0494825           0.0482496
 Standard basis: 6-311G(d) (5D, 7F)
 There are   630 symmetry adapted cartesian basis functions of A   symmetry.
 There are   600 symmetry adapted basis functions of A   symmetry.
   600 basis functions,  1060 primitive gaussians,   630 cartesian basis functions
   109 alpha electrons      108 beta electrons
       nuclear repulsion energy      2716.1052107944 Hartrees.
 NAtoms=   50 NActive=   50 NUniq=   50 SFac= 1.00D+00 NAtFMM=   60 NAOKFM=F Big=F
 Integral buffers will be    131072 words long.
 Raffenetti 2 integral format.
 Two-electron integral symmetry is turned on.
 Using the following non-standard input for PCM:
 Eps=7
 EpsInf=1.85341
 HbondAcidity=0
 HbondBasicity=0.48
 SurfaceTensionAtInterface=60.62
 CarbonAromaticity=0
 ElectronegativeHalogenicity=0
 --- end of non-standard input.
 ------------------------------------------------------------------------------
 Polarizable Continuum Model (PCM)
 =================================
 Model                : PCM.
 Atomic radii         : SMD-Coulomb.
 Polarization charges : Total charges.
 Charge compensation  : None.
 Solution method      : On-the-fly selection.
 Cavity type          : VdW (van der Waals Surface) (Alpha=1.000).
 Cavity algorithm     : GePol (No added spheres)
                        Default sphere list used, NSphG=   50.
                        Lebedev-Laikov grids with approx.  5.0 points / Ang**2.
                        Smoothing algorithm: York/Karplus (Gamma=1.0000).
                        Polarization charges: spherical gaussians, with
                                              point-specific exponents (IZeta= 3).
                        Self-potential: point-specific (ISelfS= 7).
                        Self-field    : sphere-specific E.n sum rule (ISelfD= 2).
 1st derivatives      : Analytical E(r).r(x)/FMM algorithm (CHGder, D1EAlg=3).
                        Cavity 1st derivative terms included.
 Solvent              : Generic,
                        Eps                           =   7.000000
                        Eps(infinity)                 =   1.853410
                        RSolv                         =   0.000000 Ang.
                        Molar volume                  =   0.000000 cm**3/mol
                        Thermal expansion coefficient =   0.000000 K**-1
                        Absolute temperature          = 298.150000 K
                        Numeral density               =   0.000000 Ang**-3
                        Hydrogen bond acidity         =   0.000000
                        Hydrogen bond basicity        =   0.480000
                        Surface tension at interface  =  60.620000 (cal/mol)*Ang**-2
                        Carbon aromaticity            =   0.000000
                        Electronegative halogenicity  =   0.000000
 ------------------------------------------------------------------------------
 ------------------------------------------------------------------------------
 Atomic radii for non-electrostatic terms: SMD-CDS.
 ------------------------------------------------------------------------------
 Nuclear repulsion after PCM non-electrostatic terms =     2716.1011242683 Hartrees.
 One-electron integrals computed using PRISM.
 NBasis=   600 RedAO= T EigKep=  1.71D-04  NBF=   600
 NBsUse=   600 1.00D-06 EigRej= -1.00D+00 NBFU=   600
 Initial guess from the checkpoint file:  "CURCUMIN-OPT-FREQ-Reag-1-M06-2X-6-311G-D-363.chk"
 B after Tr=     0.000000   -0.000000   -0.000000
         Rot=    1.000000   -0.000000    0.000000    0.000000 Ang=   0.00 deg.
 Initial guess <Sx>= 0.0000 <Sy>= 0.0000 <Sz>= 0.5000 <S**2>= 0.7944 S= 0.5220
 Requested convergence on RMS density matrix=1.00D-08 within 128 cycles.
 Requested convergence on MAX density matrix=1.00D-06.
 Requested convergence on             energy=1.00D-06.
 No special actions if energy rises.
 Inv3:  Mode=1 IEnd=    49402092.
 Iteration    1 A*A^-1 deviation from unit magnitude is 3.77D-15 for   3201.
 Iteration    1 A*A^-1 deviation from orthogonality  is 2.11D-15 for   3514   1690.
 Iteration    1 A^-1*A deviation from unit magnitude is 3.77D-15 for   3201.
 Iteration    1 A^-1*A deviation from orthogonality  is 1.75D-15 for   1276    326.
 Error on total polarization charges =  0.03299
 SCF Done:  E(UM062X) =  -1468.40902711     A.U. after    1 cycles
            NFock=  1  Conv=0.32D-08     -V/T= 2.0031
 <Sx>= 0.0000 <Sy>= 0.0000 <Sz>= 0.5000 <S**2>= 0.7944 S= 0.5220
 <L.S>=  0.00000000000    
 SMD-CDS (non-electrostatic) energy       (kcal/mol) =      -2.56
 (included in total energy above)
 Annihilation of the first spin contaminant:
 S**2 before annihilation     0.7944,   after     0.7511

 **********************************************************************

            Population analysis using the SCF density.

 **********************************************************************

 Orbital symmetries:
 Alpha Orbitals:
       Occupied  (A) (A) (A) (A) (A) (A) (A) (A) (A) (A) (A) (A)
                 (A) (A) (A) (A) (A) (A) (A) (A) (A) (A) (A) (A)
                 (A) (A) (A) (A) (A) (A) (A) (A) (A) (A) (A) (A)
                 (A) (A) (A) (A) (A) (A) (A) (A) (A) (A) (A) (A)
                 (A) (A) (A) (A) (A) (A) (A) (A) (A) (A) (A) (A)
                 (A) (A) (A) (A) (A) (A) (A) (A) (A) (A) (A) (A)
                 (A) (A) (A) (A) (A) (A) (A) (A) (A) (A) (A) (A)
                 (A) (A) (A) (A) (A) (A) (A) (A) (A) (A) (A) (A)
                 (A) (A) (A) (A) (A) (A) (A) (A) (A) (A) (A) (A)
                 (A)
       Virtual   (A) (A) (A) (A) (A) (A) (A) (A) (A) (A) (A) (A)
                 (A) (A) (A) (A) (A) (A) (A) (A) (A) (A) (A) (A)
                 (A) (A) (A) (A) (A) (A) (A) (A) (A) (A) (A) (A)
                 (A) (A) (A) (A) (A) (A) (A) (A) (A) (A) (A) (A)
                 (A) (A) (A) (A) (A) (A) (A) (A) (A) (A) (A) (A)
                 (A) (A) (A) (A) (A) (A) (A) (A) (A) (A) (A) (A)
                 (A) (A) (A) (A) (A) (A) (A) (A) (A) (A) (A) (A)
                 (A) (A) (A) (A) (A) (A) (A) (A) (A) (A) (A) (A)
                 (A) (A) (A) (A) (A) (A) (A) (A) (A) (A) (A) (A)
                 (A) (A) (A) (A) (A) (A) (A) (A) (A) (A) (A) (A)
                 (A) (A) (A) (A) (A) (A) (A) (A) (A) (A) (A) (A)
                 (A) (A) (A) (A) (A) (A) (A) (A) (A) (A) (A) (A)
                 (A) (A) (A) (A) (A) (A) (A) (A) (A) (A) (A) (A)
                 (A) (A) (A) (A) (A) (A) (A) (A) (A) (A) (A) (A)
                 (A) (A) (A) (A) (A) (A) (A) (A) (A) (A) (A) (A)
                 (A) (A) (A) (A) (A) (A) (A) (A) (A) (A) (A) (A)
                 (A) (A) (A) (A) (A) (A) (A) (A) (A) (A) (A) (A)
                 (A) (A) (A) (A) (A) (A) (A) (A) (A) (A) (A) (A)
                 (A) (A) (A) (A) (A) (A) (A) (A) (A) (A) (A) (A)
                 (A) (A) (A) (A) (A) (A) (A) (A) (A) (A) (A) (A)
                 (A) (A) (A) (A) (A) (A) (A) (A) (A) (A) (A) (A)
                 (A) (A) (A) (A) (A) (A) (A) (A) (A) (A) (A) (A)
                 (A) (A) (A) (A) (A) (A) (A) (A) (A) (A) (A) (A)
                 (A) (A) (A) (A) (A) (A) (A) (A) (A) (A) (A) (A)
                 (A) (A) (A) (A) (A) (A) (A) (A) (A) (A) (A) (A)
                 (A) (A) (A) (A) (A) (A) (A) (A) (A) (A) (A) (A)
                 (A) (A) (A) (A) (A) (A) (A) (A) (A) (A) (A) (A)
                 (A) (A) (A) (A) (A) (A) (A) (A) (A) (A) (A) (A)
                 (A) (A) (A) (A) (A) (A) (A) (A) (A) (A) (A) (A)
                 (A) (A) (A) (A) (A) (A) (A) (A) (A) (A) (A) (A)
                 (A) (A) (A) (A) (A) (A) (A) (A) (A) (A) (A) (A)
                 (A) (A) (A) (A) (A) (A) (A) (A) (A) (A) (A) (A)
                 (A) (A) (A) (A) (A) (A) (A) (A) (A) (A) (A) (A)
                 (A) (A) (A) (A) (A) (A) (A) (A) (A) (A) (A) (A)
                 (A) (A) (A) (A) (A) (A) (A) (A) (A) (A) (A) (A)
                 (A) (A) (A) (A) (A) (A) (A) (A) (A) (A) (A) (A)
                 (A) (A) (A) (A) (A) (A) (A) (A) (A) (A) (A) (A)
                 (A) (A) (A) (A) (A) (A) (A) (A) (A) (A) (A) (A)
                 (A) (A) (A) (A) (A) (A) (A) (A) (A) (A) (A) (A)
                 (A) (A) (A) (A) (A) (A) (A) (A) (A) (A) (A) (A)
                 (A) (A) (A) (A) (A) (A) (A) (A) (A) (A) (A)
 Beta  Orbitals:
       Occupied  (A) (A) (A) (A) (A) (A) (A) (A) (A) (A) (A) (A)
                 (A) (A) (A) (A) (A) (A) (A) (A) (A) (A) (A) (A)
                 (A) (A) (A) (A) (A) (A) (A) (A) (A) (A) (A) (A)
                 (A) (A) (A) (A) (A) (A) (A) (A) (A) (A) (A) (A)
                 (A) (A) (A) (A) (A) (A) (A) (A) (A) (A) (A) (A)
                 (A) (A) (A) (A) (A) (A) (A) (A) (A) (A) (A) (A)
                 (A) (A) (A) (A) (A) (A) (A) (A) (A) (A) (A) (A)
                 (A) (A) (A) (A) (A) (A) (A) (A) (A) (A) (A) (A)
                 (A) (A) (A) (A) (A) (A) (A) (A) (A) (A) (A) (A)
       Virtual   (A) (A) (A) (A) (A) (A) (A) (A) (A) (A) (A) (A)
                 (A) (A) (A) (A) (A) (A) (A) (A) (A) (A) (A) (A)
                 (A) (A) (A) (A) (A) (A) (A) (A) (A) (A) (A) (A)
                 (A) (A) (A) (A) (A) (A) (A) (A) (A) (A) (A) (A)
                 (A) (A) (A) (A) (A) (A) (A) (A) (A) (A) (A) (A)
                 (A) (A) (A) (A) (A) (A) (A) (A) (A) (A) (A) (A)
                 (A) (A) (A) (A) (A) (A) (A) (A) (A) (A) (A) (A)
                 (A) (A) (A) (A) (A) (A) (A) (A) (A) (A) (A) (A)
                 (A) (A) (A) (A) (A) (A) (A) (A) (A) (A) (A) (A)
                 (A) (A) (A) (A) (A) (A) (A) (A) (A) (A) (A) (A)
                 (A) (A) (A) (A) (A) (A) (A) (A) (A) (A) (A) (A)
                 (A) (A) (A) (A) (A) (A) (A) (A) (A) (A) (A) (A)
                 (A) (A) (A) (A) (A) (A) (A) (A) (A) (A) (A) (A)
                 (A) (A) (A) (A) (A) (A) (A) (A) (A) (A) (A) (A)
                 (A) (A) (A) (A) (A) (A) (A) (A) (A) (A) (A) (A)
                 (A) (A) (A) (A) (A) (A) (A) (A) (A) (A) (A) (A)
                 (A) (A) (A) (A) (A) (A) (A) (A) (A) (A) (A) (A)
                 (A) (A) (A) (A) (A) (A) (A) (A) (A) (A) (A) (A)
                 (A) (A) (A) (A) (A) (A) (A) (A) (A) (A) (A) (A)
                 (A) (A) (A) (A) (A) (A) (A) (A) (A) (A) (A) (A)
                 (A) (A) (A) (A) (A) (A) (A) (A) (A) (A) (A) (A)
                 (A) (A) (A) (A) (A) (A) (A) (A) (A) (A) (A) (A)
                 (A) (A) (A) (A) (A) (A) (A) (A) (A) (A) (A) (A)
                 (A) (A) (A) (A) (A) (A) (A) (A) (A) (A) (A) (A)
                 (A) (A) (A) (A) (A) (A) (A) (A) (A) (A) (A) (A)
                 (A) (A) (A) (A) (A) (A) (A) (A) (A) (A) (A) (A)
                 (A) (A) (A) (A) (A) (A) (A) (A) (A) (A) (A) (A)
                 (A) (A) (A) (A) (A) (A) (A) (A) (A) (A) (A) (A)
                 (A) (A) (A) (A) (A) (A) (A) (A) (A) (A) (A) (A)
                 (A) (A) (A) (A) (A) (A) (A) (A) (A) (A) (A) (A)
                 (A) (A) (A) (A) (A) (A) (A) (A) (A) (A) (A) (A)
                 (A) (A) (A) (A) (A) (A) (A) (A) (A) (A) (A) (A)
                 (A) (A) (A) (A) (A) (A) (A) (A) (A) (A) (A) (A)
                 (A) (A) (A) (A) (A) (A) (A) (A) (A) (A) (A) (A)
                 (A) (A) (A) (A) (A) (A) (A) (A) (A) (A) (A) (A)
                 (A) (A) (A) (A) (A) (A) (A) (A) (A) (A) (A) (A)
                 (A) (A) (A) (A) (A) (A) (A) (A) (A) (A) (A) (A)
                 (A) (A) (A) (A) (A) (A) (A) (A) (A) (A) (A) (A)
                 (A) (A) (A) (A) (A) (A) (A) (A) (A) (A) (A) (A)
                 (A) (A) (A) (A) (A) (A) (A) (A) (A) (A) (A) (A)
                 (A) (A) (A) (A) (A) (A) (A) (A) (A) (A) (A) (A)
 The electronic state is 2-A.
 Alpha  occ. eigenvalues --  -19.66831 -19.66354 -19.66082 -19.65924 -19.65823
 Alpha  occ. eigenvalues --  -19.63396 -19.61009 -19.60978 -14.99436 -10.63308
 Alpha  occ. eigenvalues --  -10.63229 -10.62528 -10.61985 -10.61743 -10.61513
 Alpha  occ. eigenvalues --  -10.59936 -10.58235 -10.57317 -10.57247 -10.56535
 Alpha  occ. eigenvalues --  -10.56534 -10.56311 -10.56234 -10.55476 -10.55037
 Alpha  occ. eigenvalues --  -10.54799 -10.54731 -10.54571 -10.54358 -10.54122
 Alpha  occ. eigenvalues --   -1.37830  -1.21823  -1.20416  -1.19366  -1.19233
 Alpha  occ. eigenvalues --   -1.17337  -1.17091  -1.16660  -0.99421  -0.97257
 Alpha  occ. eigenvalues --   -0.92004  -0.90958  -0.90502  -0.87318  -0.85681
 Alpha  occ. eigenvalues --   -0.85009  -0.82544  -0.81004  -0.78668  -0.77858
 Alpha  occ. eigenvalues --   -0.74697  -0.73242  -0.71490  -0.70594  -0.67999
 Alpha  occ. eigenvalues --   -0.66675  -0.66020  -0.64283  -0.63359  -0.63232
 Alpha  occ. eigenvalues --   -0.62557  -0.60905  -0.60637  -0.59639  -0.58852
 Alpha  occ. eigenvalues --   -0.58664  -0.57348  -0.56536  -0.56052  -0.55453
 Alpha  occ. eigenvalues --   -0.54451  -0.54011  -0.53005  -0.52786  -0.52086
 Alpha  occ. eigenvalues --   -0.51948  -0.50736  -0.50537  -0.50077  -0.49773
 Alpha  occ. eigenvalues --   -0.49189  -0.48784  -0.48406  -0.46935  -0.46581
 Alpha  occ. eigenvalues --   -0.46061  -0.44890  -0.44561  -0.44219  -0.43772
 Alpha  occ. eigenvalues --   -0.43371  -0.43211  -0.43003  -0.42525  -0.41779
 Alpha  occ. eigenvalues --   -0.40369  -0.39499  -0.38697  -0.38548  -0.38341
 Alpha  occ. eigenvalues --   -0.35934  -0.35242  -0.34901  -0.33675  -0.31889
 Alpha  occ. eigenvalues --   -0.30700  -0.28737  -0.26756  -0.23465
 Alpha virt. eigenvalues --   -0.04283  -0.02855  -0.01361   0.02334   0.04401
 Alpha virt. eigenvalues --    0.05617   0.07050   0.07487   0.09345   0.09790
 Alpha virt. eigenvalues --    0.10009   0.10208   0.10430   0.11258   0.11586
 Alpha virt. eigenvalues --    0.11873   0.12230   0.12508   0.13607   0.14673
 Alpha virt. eigenvalues --    0.15358   0.15436   0.15942   0.16160   0.16392
 Alpha virt. eigenvalues --    0.17377   0.18115   0.18377   0.19573   0.20237
 Alpha virt. eigenvalues --    0.20807   0.22032   0.22366   0.23002   0.24056
 Alpha virt. eigenvalues --    0.25313   0.26561   0.26812   0.27211   0.27667
 Alpha virt. eigenvalues --    0.28856   0.29896   0.30728   0.31409   0.31692
 Alpha virt. eigenvalues --    0.32739   0.33065   0.34145   0.34725   0.35423
 Alpha virt. eigenvalues --    0.35991   0.36653   0.37076   0.37694   0.38443
 Alpha virt. eigenvalues --    0.39072   0.39575   0.40069   0.40189   0.40539
 Alpha virt. eigenvalues --    0.40997   0.41240   0.41784   0.41949   0.42363
 Alpha virt. eigenvalues --    0.42723   0.43215   0.43883   0.44026   0.44593
 Alpha virt. eigenvalues --    0.45066   0.45272   0.45901   0.46808   0.47133
 Alpha virt. eigenvalues --    0.47982   0.48241   0.48428   0.48683   0.49129
 Alpha virt. eigenvalues --    0.49498   0.50233   0.50380   0.50817   0.51179
 Alpha virt. eigenvalues --    0.51650   0.52102   0.52909   0.53375   0.53676
 Alpha virt. eigenvalues --    0.54130   0.55468   0.56254   0.56816   0.56993
 Alpha virt. eigenvalues --    0.57516   0.58138   0.58934   0.59435   0.59606
 Alpha virt. eigenvalues --    0.60441   0.60787   0.61509   0.61916   0.62308
 Alpha virt. eigenvalues --    0.62887   0.63193   0.63487   0.64099   0.64738
 Alpha virt. eigenvalues --    0.65029   0.65468   0.65724   0.65919   0.66019
 Alpha virt. eigenvalues --    0.66871   0.67253   0.67476   0.68024   0.68315
 Alpha virt. eigenvalues --    0.68666   0.69010   0.69678   0.70409   0.71001
 Alpha virt. eigenvalues --    0.71569   0.72243   0.72387   0.73781   0.73941
 Alpha virt. eigenvalues --    0.74271   0.75043   0.76545   0.76926   0.77485
 Alpha virt. eigenvalues --    0.79615   0.79782   0.81125   0.81316   0.82355
 Alpha virt. eigenvalues --    0.82759   0.83236   0.83700   0.84081   0.84636
 Alpha virt. eigenvalues --    0.85331   0.85654   0.86247   0.86552   0.86795
 Alpha virt. eigenvalues --    0.87946   0.88339   0.89117   0.89953   0.90743
 Alpha virt. eigenvalues --    0.91063   0.91546   0.92360   0.93821   0.94550
 Alpha virt. eigenvalues --    0.94810   0.94950   0.96514   0.97208   0.98137
 Alpha virt. eigenvalues --    0.98409   0.99149   0.99897   1.00271   1.00758
 Alpha virt. eigenvalues --    1.01375   1.01513   1.02975   1.03235   1.03699
 Alpha virt. eigenvalues --    1.04681   1.05514   1.06707   1.06876   1.08326
 Alpha virt. eigenvalues --    1.09227   1.09645   1.10612   1.11395   1.13142
 Alpha virt. eigenvalues --    1.13209   1.14892   1.15912   1.16717   1.17303
 Alpha virt. eigenvalues --    1.18082   1.19959   1.20243   1.21186   1.22256
 Alpha virt. eigenvalues --    1.23163   1.23642   1.24997   1.25745   1.26336
 Alpha virt. eigenvalues --    1.27642   1.28472   1.28859   1.29283   1.30752
 Alpha virt. eigenvalues --    1.32134   1.32585   1.33684   1.35253   1.37938
 Alpha virt. eigenvalues --    1.41177   1.41373   1.41887   1.43426   1.44826
 Alpha virt. eigenvalues --    1.46652   1.48401   1.49061   1.50533   1.51137
 Alpha virt. eigenvalues --    1.51854   1.52664   1.54119   1.54898   1.55245
 Alpha virt. eigenvalues --    1.56011   1.56804   1.56937   1.57402   1.58685
 Alpha virt. eigenvalues --    1.58751   1.59344   1.59750   1.60803   1.61428
 Alpha virt. eigenvalues --    1.61574   1.62919   1.63551   1.64104   1.65411
 Alpha virt. eigenvalues --    1.66981   1.67223   1.69181   1.69307   1.70060
 Alpha virt. eigenvalues --    1.71280   1.72133   1.72629   1.73183   1.73615
 Alpha virt. eigenvalues --    1.74326   1.75476   1.75874   1.76601   1.77389
 Alpha virt. eigenvalues --    1.78009   1.79809   1.80562   1.81119   1.81671
 Alpha virt. eigenvalues --    1.82146   1.83572   1.84134   1.84353   1.84830
 Alpha virt. eigenvalues --    1.86711   1.87026   1.87628   1.88895   1.89222
 Alpha virt. eigenvalues --    1.92159   1.92971   1.94814   1.95605   1.97536
 Alpha virt. eigenvalues --    1.99641   2.00112   2.01630   2.03636   2.04763
 Alpha virt. eigenvalues --    2.06450   2.06897   2.08301   2.09852   2.12535
 Alpha virt. eigenvalues --    2.12783   2.14021   2.14604   2.15664   2.16260
 Alpha virt. eigenvalues --    2.17717   2.19161   2.21103   2.22797   2.23253
 Alpha virt. eigenvalues --    2.25896   2.28616   2.29271   2.31023   2.31154
 Alpha virt. eigenvalues --    2.32539   2.33730   2.34956   2.35318   2.35793
 Alpha virt. eigenvalues --    2.37661   2.38118   2.38509   2.39352   2.39878
 Alpha virt. eigenvalues --    2.42465   2.43704   2.45050   2.45194   2.45954
 Alpha virt. eigenvalues --    2.48527   2.49251   2.51475   2.54519   2.56097
 Alpha virt. eigenvalues --    2.57565   2.58364   2.58805   2.61363   2.65441
 Alpha virt. eigenvalues --    2.65959   2.67181   2.68125   2.70727   2.72218
 Alpha virt. eigenvalues --    2.73182   2.73790   2.75051   2.76743   2.79054
 Alpha virt. eigenvalues --    2.81198   2.84015   2.84702   2.85469   2.87344
 Alpha virt. eigenvalues --    2.89210   2.89654   2.90406   2.90836   2.92061
 Alpha virt. eigenvalues --    2.92994   2.93217   2.94314   2.95903   2.97737
 Alpha virt. eigenvalues --    2.98836   3.00357   3.00719   3.00917   3.01488
 Alpha virt. eigenvalues --    3.01871   3.02804   3.03747   3.04434   3.05114
 Alpha virt. eigenvalues --    3.06360   3.07215   3.08605   3.09061   3.10500
 Alpha virt. eigenvalues --    3.11434   3.13201   3.13991   3.16564   3.18161
 Alpha virt. eigenvalues --    3.19325   3.19588   3.20306   3.21708   3.22072
 Alpha virt. eigenvalues --    3.22436   3.22880   3.24031   3.25080   3.25901
 Alpha virt. eigenvalues --    3.26219   3.26603   3.27160   3.31430   3.32974
 Alpha virt. eigenvalues --    3.34059   3.35898   3.36272   3.36671   3.37255
 Alpha virt. eigenvalues --    3.37671   3.38253   3.39423   3.39848   3.39999
 Alpha virt. eigenvalues --    3.40166   3.41834   3.43142   3.46467   3.46701
 Alpha virt. eigenvalues --    3.48446   3.51517   3.52174   3.52638   3.54638
 Alpha virt. eigenvalues --    3.54903   3.55967   3.57180   3.58929   3.60434
 Alpha virt. eigenvalues --    3.62687   3.63714   3.67031   3.69110   3.72561
 Alpha virt. eigenvalues --    3.76626   3.77310   3.80886   3.84265   3.93931
 Alpha virt. eigenvalues --    3.94564   3.95239   3.97167   3.98504   3.99318
 Alpha virt. eigenvalues --    4.00466   4.04594   4.11931   4.13360   4.14086
 Alpha virt. eigenvalues --    4.17226   4.46830   4.50304   4.51661   4.52683
 Alpha virt. eigenvalues --    4.72111   4.82222   4.94519   4.94588   4.96622
 Alpha virt. eigenvalues --    4.99138   5.00860   5.01680   5.06181   5.07974
 Alpha virt. eigenvalues --    5.09442   5.09700   5.18158   5.18535   5.24407
 Alpha virt. eigenvalues --    5.25871   5.29747   5.32095   5.57963   5.60146
 Alpha virt. eigenvalues --    5.60662   5.69745   5.70191   5.78045   5.79181
 Alpha virt. eigenvalues --    6.09276  23.33218  23.35943  23.52182  23.52556
 Alpha virt. eigenvalues --   23.64533  23.65246  23.80838  23.82292  23.84993
 Alpha virt. eigenvalues --   23.87642  23.88518  23.94557  23.98357  24.02059
 Alpha virt. eigenvalues --   24.08542  24.11743  24.14240  24.18341  24.20850
 Alpha virt. eigenvalues --   24.21404  24.24998  35.43104  49.93808  49.98703
 Alpha virt. eigenvalues --   49.98779  50.03050  50.04941  50.06730  50.08581
 Alpha virt. eigenvalues --   50.09926
  Beta  occ. eigenvalues --  -19.66625 -19.66329 -19.66068 -19.65978 -19.65823
  Beta  occ. eigenvalues --  -19.63396 -19.61008 -19.60864 -14.99267 -10.63308
  Beta  occ. eigenvalues --  -10.63250 -10.62278 -10.62090 -10.61792 -10.61513
  Beta  occ. eigenvalues --  -10.59936 -10.58233 -10.57247 -10.57123 -10.56604
  Beta  occ. eigenvalues --  -10.56356 -10.56311 -10.56265 -10.55476 -10.55037
  Beta  occ. eigenvalues --  -10.54799 -10.54731 -10.54460 -10.54358 -10.54122
  Beta  occ. eigenvalues --   -1.37622  -1.21418  -1.20416  -1.19284  -1.19100
  Beta  occ. eigenvalues --   -1.17337  -1.16984  -1.16466  -0.98884  -0.97257
  Beta  occ. eigenvalues --   -0.91717  -0.90876  -0.89955  -0.87075  -0.85678
  Beta  occ. eigenvalues --   -0.84822  -0.82435  -0.80752  -0.77895  -0.77858
  Beta  occ. eigenvalues --   -0.74687  -0.72915  -0.71211  -0.70554  -0.67691
  Beta  occ. eigenvalues --   -0.66673  -0.65771  -0.64140  -0.63283  -0.62823
  Beta  occ. eigenvalues --   -0.62349  -0.60653  -0.60446  -0.59345  -0.58766
  Beta  occ. eigenvalues --   -0.58625  -0.57206  -0.56172  -0.55789  -0.54695
  Beta  occ. eigenvalues --   -0.54443  -0.54010  -0.52786  -0.52658  -0.51959
  Beta  occ. eigenvalues --   -0.51609  -0.50725  -0.50335  -0.50029  -0.49641
  Beta  occ. eigenvalues --   -0.49129  -0.48584  -0.48371  -0.46703  -0.46297
  Beta  occ. eigenvalues --   -0.45761  -0.44745  -0.44417  -0.44145  -0.43668
  Beta  occ. eigenvalues --   -0.43192  -0.42882  -0.42552  -0.42369  -0.40987
  Beta  occ. eigenvalues --   -0.40352  -0.39021  -0.38493  -0.38429  -0.37621
  Beta  occ. eigenvalues --   -0.35283  -0.34927  -0.34316  -0.33485  -0.31748
  Beta  occ. eigenvalues --   -0.30700  -0.26832  -0.26751
  Beta virt. eigenvalues --   -0.09630  -0.03971  -0.02000  -0.00793   0.02341
  Beta virt. eigenvalues --    0.04989   0.06371   0.07073   0.07488   0.09381
  Beta virt. eigenvalues --    0.09972   0.10256   0.10373   0.10850   0.11379
  Beta virt. eigenvalues --    0.11769   0.11887   0.12380   0.12718   0.13731
  Beta virt. eigenvalues --    0.14831   0.15374   0.15465   0.15952   0.16161
  Beta virt. eigenvalues --    0.16404   0.17470   0.18050   0.18385   0.19757
  Beta virt. eigenvalues --    0.20253   0.20816   0.22033   0.22498   0.23570
  Beta virt. eigenvalues --    0.24416   0.25492   0.26801   0.26862   0.27652
  Beta virt. eigenvalues --    0.27754   0.29099   0.30121   0.30822   0.31430
  Beta virt. eigenvalues --    0.31829   0.32872   0.33277   0.34246   0.34785
  Beta virt. eigenvalues --    0.35497   0.36095   0.36813   0.37257   0.37833
  Beta virt. eigenvalues --    0.38595   0.39284   0.39687   0.40162   0.40343
  Beta virt. eigenvalues --    0.40776   0.41007   0.41389   0.41881   0.42117
  Beta virt. eigenvalues --    0.42679   0.42853   0.43248   0.44021   0.44221
  Beta virt. eigenvalues --    0.44644   0.45311   0.45454   0.46082   0.46966
  Beta virt. eigenvalues --    0.47173   0.48167   0.48320   0.48549   0.48911
  Beta virt. eigenvalues --    0.49226   0.49712   0.50243   0.50633   0.50931
  Beta virt. eigenvalues --    0.51262   0.51886   0.52204   0.53034   0.53669
  Beta virt. eigenvalues --    0.53841   0.54288   0.55609   0.56371   0.56899
  Beta virt. eigenvalues --    0.57056   0.57564   0.58373   0.59103   0.59561
  Beta virt. eigenvalues --    0.59675   0.60511   0.61003   0.61573   0.61961
  Beta virt. eigenvalues --    0.62411   0.62913   0.63277   0.63591   0.64141
  Beta virt. eigenvalues --    0.64993   0.65146   0.65557   0.65836   0.66079
  Beta virt. eigenvalues --    0.66295   0.67167   0.67384   0.67555   0.68138
  Beta virt. eigenvalues --    0.68449   0.68799   0.69151   0.69728   0.70542
  Beta virt. eigenvalues --    0.71198   0.71702   0.72358   0.72600   0.73990
  Beta virt. eigenvalues --    0.74167   0.74501   0.75315   0.76912   0.76966
  Beta virt. eigenvalues --    0.77638   0.79759   0.79801   0.81201   0.81398
  Beta virt. eigenvalues --    0.82444   0.82863   0.83452   0.83754   0.84145
  Beta virt. eigenvalues --    0.84689   0.85344   0.85809   0.86381   0.86665
  Beta virt. eigenvalues --    0.86910   0.88011   0.88383   0.89400   0.89969
  Beta virt. eigenvalues --    0.90834   0.91167   0.91715   0.92444   0.93950
  Beta virt. eigenvalues --    0.94643   0.94895   0.95024   0.96590   0.97298
  Beta virt. eigenvalues --    0.98204   0.98596   0.99314   1.00002   1.00417
  Beta virt. eigenvalues --    1.00845   1.01415   1.01734   1.03062   1.03281
  Beta virt. eigenvalues --    1.03713   1.04955   1.05775   1.06773   1.07066
  Beta virt. eigenvalues --    1.08729   1.09428   1.09782   1.10670   1.11494
  Beta virt. eigenvalues --    1.13212   1.13822   1.15038   1.15990   1.17172
  Beta virt. eigenvalues --    1.17499   1.18323   1.19964   1.20310   1.21285
  Beta virt. eigenvalues --    1.22624   1.23527   1.24324   1.25026   1.26040
[...]
 00002671,0.00000696,-0.00000073,-0.00000351,-0.00000424,-0.00003150,0.
 00002358,0.00000349,0.00001291,-0.00000185,0.00004133,0.00002130,0.000
 01433,-0.00000178,-0.00000240,0.00000068,-0.00004828,-0.00002596,-0.00
 001338,0.00000459,0.00000525,-0.00000299,-0.00001306,0.00000655,-0.000
 01699,0.00000840,-0.00000567,0.00000077,-0.00000038,0.00000098,0.00000
 046,-0.00000101,0.00000094,-0.00000134,-0.00000013,-0.00000076,0.00000
 101,-0.13486344,-0.18518765,-0.04575363,0.00329725,0.00321117,0.001608
 55,0.14456707,0.19749103,0.00015011,-0.00045027,0.00017697,0.00155007,
 -0.00071076,-0.00098305,0.00001306,0.00011977,-0.00019661,0.00000787,0
 .00007444,0.00004472,0.00353574,0.00311510,-0.00083477,-0.00143844,0.0
 0176894,-0.00039144,-0.00005476,0.00021700,-0.00009254,-0.00002479,-0.
 00001275,0.00004023,-0.00011202,-0.00001693,0.00002628,0.00003061,-0.0
 0006241,0.00000131,0.00002132,0.00001711,-0.00002034,0.00002310,-0.000
 16015,0.00005146,0.00002173,0.00000665,0.00001332,0.00009259,0.0001348
 3,-0.00008016,-0.00000925,-0.00000276,0.00000498,-0.00010365,-0.000012
 02,0.00003487,0.00001395,0.00000893,-0.00000469,-0.00010530,0.00015164
 ,-0.00000416,0.00004953,-0.00002553,-0.00003776,-0.00000610,-0.0000007
 7,0.00000693,-0.00000422,0.00000731,0.00000373,-0.00000194,-0.00000122
 ,0.00000623,0.00079518,0.00071364,-0.00048488,0.00000917,0.00003818,0.
 00031806,-0.00088669,0.00237496,-0.00460159,-0.00127774,-0.00035570,-0
 .00025271,-0.02519109,-0.02363016,-0.01109938,0.00151910,0.00014203,0.
 00471220,-0.00002614,-0.00018163,0.00019187,-0.00000959,-0.00000364,-0
 .00002527,0.00004600,0.00003711,-0.00003454,-0.00002499,-0.00000192,-0
 .00001675,-0.00000274,-0.00000995,0.00000332,-0.00000029,-0.00004471,0
 .00006944,-0.00000373,-0.00000486,0.00004031,0.00003230,0.00001393,0.0
 0000295,-0.00000474,-0.00000180,0.00000029,-0.00005247,-0.00002975,-0.
 00000890,0.00000242,0.00000524,-0.00000380,-0.00001025,0.00000927,-0.0
 0001138,0.00001070,-0.00000688,0.00000103,-0.00000037,0.00000138,0.000
 00025,-0.00000122,0.00000096,-0.00000117,-0.00000048,-0.00000075,0.000
 00104,-0.03211805,-0.04039002,-0.05489734,0.01278338,0.01631841,0.0058
 7648,0.04075211,0.04082135,0.06246464,-0.00355514,-0.00122972,0.001900
 54,0.00025289,0.00002683,-0.00027777,0.00255550,-0.00000493,0.00127530
 ,-0.00045768,0.00094589,-0.00120167,-0.00155242,0.00098118,0.00055150,
 0.00083707,0.00066136,-0.00045574,-0.00464610,-0.00201905,-0.00179390,
 0.00132052,-0.00139180,-0.00065251,-0.00209446,-0.03042752,0.00857982,
 -0.00010241,-0.00015524,-0.00016536,-0.00004666,-0.00029508,0.00054726
 ,0.00136975,-0.00274502,-0.00137533,-0.00016344,-0.00003813,0.00135182
 ,0.00065980,0.00026276,-0.00016022,-0.00012071,-0.00004276,-0.00003452
 ,-0.00122577,-0.00022599,0.00058964,0.00014945,0.00011569,-0.00002980,
 -0.00118024,0.00161047,0.00036981,0.00052343,-0.00028713,-0.00026994,-
 0.00008579,0.00001349,0.00002257,-0.00007385,0.00011652,0.00005930,0.0
 0009247,-0.00002168,-0.00002051,0.00001056,-0.00002009,-0.00002273,-0.
 00001842,-0.00001174,-0.00001707,0.00000462,0.00011155,0.00006800,0.00
 002126,-0.00002035,0.00000398,-0.00018337,-0.00012782,-0.00008626,0.00
 010091,0.00009151,-0.00001496,0.00001076,0.00001161,0.00001265,-0.0000
 1390,0.00001723,0.00000202,-0.00000727,0.00000970,0.00000962,-0.000006
 19,0.00002799,0.00000088,0.00001000,-0.00001646,-0.00001443,0.00001956
 ,-0.00001230,0.00005214,0.00000909,-0.00001587,-0.00000151,0.00003940,
 0.00000931,-0.00000136,0.00000848,-0.00000884,-0.00000376,-0.00004164,
 0.00000074,-0.00000460,0.00001701,-0.00000563,-0.00000370,-0.00004679,
 0.00002890,-0.00004057,0.00003514,-0.00002984,0.00000171,-0.00000141,0
 .00000696,0.00000402,-0.00000405,0.00000133,-0.00000334,-0.00000260,0.
 00000059,0.00000192,-0.00026860,-0.00009824,0.00005983,-0.00003179,0.0
 0005947,-0.00001749,0.00003971,-0.00002958,0.00001011,0.26621227,-0.00
 303965,-0.00090512,0.00181454,0.00026230,0.00001138,-0.00009703,0.0034
 5477,-0.00023080,-0.00206275,0.00094526,-0.00208201,-0.00214856,-0.002
 26571,0.00006455,0.00105753,0.00117101,0.00086716,-0.00080456,0.000281
 81,0.00332335,-0.00190762,-0.00154595,-0.00163733,0.00155211,-0.031554
 25,-0.01615291,0.01165144,0.00132331,0.00000155,-0.00091066,0.00002940
 ,-0.00020545,0.00026073,0.00051522,-0.00741621,-0.00328111,-0.00070592
 ,-0.00053437,0.00050006,-0.00000641,0.00146603,-0.00077020,-0.00010508
 ,-0.00011137,-0.00005099,-0.00204896,-0.00063260,0.00122909,0.00013926
 ,0.00026685,0.00009147,0.00011698,0.00145780,0.00043624,0.00029199,-0.
 00037959,0.00001065,-0.00002117,0.00001877,-0.00004512,-0.00018149,0.0
 0016215,0.00004769,0.00018112,-0.00002872,-0.00019515,-0.00007903,-0.0
 0008965,0.00000153,-0.00005100,-0.00000507,-0.00000494,0.00013174,0.00
 015487,0.00005008,0.00001751,-0.00000459,0.00001497,-0.00035613,-0.000
 16035,-0.00029383,0.00018772,0.00005105,0.00004792,0.00004743,0.000025
 20,0.00002678,-0.00002417,-0.00000542,0.00002210,-0.00001182,0.0000127
 5,-0.00001359,0.00001428,0.00002760,0.00002368,0.00000437,-0.00001700,
 -0.00001180,0.00002537,0.00001140,0.00000719,0.00000129,-0.00000969,-0
 .00000404,-0.00001629,-0.00002208,-0.00001003,0.00001313,-0.00000549,-
 0.00000398,0.00002660,0.00004046,0.00001083,0.00000879,-0.00001479,0.0
 0000038,-0.00001450,0.00002020,-0.00001389,0.00001361,-0.00001855,0.00
 000053,-0.00000043,0.00000497,0.00000352,-0.00000260,-0.00000077,-0.00
 000112,-0.00000078,0.00000159,-0.00000074,0.00013676,-0.00016462,0.000
 14251,0.00002745,0.00000083,-0.00001373,0.00001909,0.00000140,0.000035
 27,0.29388036,0.38595834,0.00071939,-0.00023681,-0.00006995,0.00009057
 ,-0.00006967,0.00024397,0.00030269,0.00045683,-0.00230891,0.00047918,-
 0.00180165,0.00034984,-0.00056529,-0.00083331,0.00040686,0.00027576,0.
 00009022,-0.00012670,-0.00137014,-0.00030241,-0.00027464,0.00036582,-0
 .00088946,0.00046281,-0.00796634,-0.00731391,0.01192559,0.00052966,-0.
 00074679,0.00007922,-0.00006997,-0.00021202,0.00011992,-0.00161808,-0.
 00405415,-0.00068882,0.00015319,-0.00080490,0.00401389,-0.00073702,0.0
 0202755,-0.00006077,-0.00004344,-0.00005334,-0.00001845,-0.00055002,-0
 .00050181,0.00044838,-0.00009568,0.00003572,-0.00001619,-0.00061628,0.
 00054340,0.00031524,0.00017535,-0.00017861,-0.00081894,-0.00004401,0.0
 0000541,0.00017728,-0.00001079,0.00003273,0.00004257,-0.00031555,0.000
 01993,0.00029550,-0.00002770,-0.00002403,0.00000204,-0.00003270,0.0000
 0307,0.00000987,0.00005339,0.00004773,0.00001925,0.00002170,-0.0000017
 3,0.00001396,-0.00014889,-0.00000377,-0.00036894,0.00006744,-0.0000728
 7,0.00020484,0.00001870,0.00000472,0.00001352,-0.00000145,-0.00000852,
 0.00000216,-0.00000016,0.00001258,-0.00001569,0.00000831,-0.00000621,0
 .00001737,-0.00000489,0.00000220,0.00000592,-0.00000041,0.00001846,-0.
 00003978,0.00000218,-0.00000695,-0.00000264,-0.00002588,-0.00001307,-0
 .00001132,-0.00000240,0.00000159,-0.00000063,0.00003012,0.00001524,0.0
 0001530,-0.00000430,-0.00000228,-0.00000228,0.00001361,-0.00000964,0.0
 0004142,-0.00000398,0.00000506,-0.00000261,0.00000080,-0.00000049,-0.0
 0000291,0.00000358,-0.00000043,0.00000290,-0.00000187,-0.00000145,-0.0
 0000010,0.00043540,-0.00011883,0.00001606,0.00006699,-0.00007803,0.000
 00853,-0.00001338,0.00003467,0.00002722,-0.16124770,-0.19448976,0.2567
 2001,-0.00138143,-0.00068431,0.00057370,0.00009110,-0.00002871,-0.0000
 8564,0.00118571,-0.00015645,-0.00040789,0.00002682,-0.00024562,-0.0002
 6120,-0.00113578,0.00017855,0.00045586,0.00057224,0.00036880,-0.000364
 91,-0.00053587,-0.00144487,-0.00131470,0.00099172,-0.00020071,-0.00042
 275,0.01511965,-0.00254011,-0.01581649,-0.00113214,0.00136075,-0.00009
 353,0.00011638,-0.00006343,0.00026080,0.00098304,0.00100742,-0.0024025
 2,-0.00106397,-0.00249569,-0.00324144,0.00139080,-0.00181888,-0.001369
 47,-0.00007250,-0.00004167,0.00003309,-0.00119291,0.00017395,0.0005393
 9,0.00014067,0.00008390,-0.00018229,-0.00058292,-0.00033893,0.00008864
 ,0.00084589,-0.00035698,-0.00021561,-0.00008964,-0.00000088,0.00001895
 ,-0.00002766,0.00008680,0.00003111,-0.00011810,0.00000742,-0.00023359,
 0.00000215,-0.00000971,-0.00001221,-0.00002575,-0.00000576,-0.00000430
 ,0.00001236,0.00007503,0.00004858,0.00002680,-0.00001564,0.00000837,-0
 .00013952,-0.00004533,-0.00025043,0.00005373,0.00001286,0.00011733,0.0
 0000818,0.00000480,0.00001096,-0.00000672,0.00000742,0.00000075,-0.000
 00325,0.00001329,-0.00000081,-0.00000291,0.00001251,0.00000556,0.00000
 363,-0.00000856,-0.00000487,0.00001122,-0.00000155,0.00001822,0.000008
 21,-0.00001391,-0.00000225,0.00001875,0.00000433,-0.00000468,0.0000037
 0,-0.00000488,-0.00000207,-0.00001992,0.00000203,0.00000246,0.00000939
 ,-0.00000341,-0.00000351,-0.00002692,0.00001360,-0.00000786,0.00002303
 ,-0.00001707,0.00000043,-0.00000064,0.00000411,0.00000095,-0.00000071,
 0.00000090,-0.00000112,-0.00000282,-0.00000051,0.00000161,0.00007328,-
 0.00012721,0.00007834,0.00001458,0.00000117,-0.00000325,0.00001835,0.0
 0000352,0.00001389,0.00755427,-0.02183046,0.06732876,0.08053476,-0.001
 40824,-0.00020427,0.00087977,0.00010584,-0.00000121,-0.00014615,0.0013
 1339,-0.00017759,0.00019014,-0.00002302,-0.00013255,-0.00087752,-0.000
 98742,0.00040185,0.00044160,0.00052771,0.00032938,-0.00034640,-0.00009
 801,0.00238885,-0.00137678,-0.00006790,-0.00009637,0.00007680,-0.00278
 032,0.01456980,-0.02038241,-0.00000556,0.00114920,-0.00053605,0.000042
 62,-0.00008689,-0.00002310,0.00013888,-0.00195401,-0.00268075,-0.00305
 452,-0.00293177,-0.00409418,0.00106928,-0.00078337,-0.00083366,-0.0000
 8858,-0.00006824,0.00001365,-0.00175496,0.00004220,0.00085694,0.000136
 09,0.00016890,-0.00005079,0.00016991,0.00064621,0.00063975,-0.00026134
 ,-0.00022943,-0.00046016,-0.00001232,0.00000904,0.00011992,-0.00006997
 ,0.00006489,0.00000629,-0.00002106,-0.00003928,0.00015617,-0.00004837,
 -0.00005284,0.00000237,-0.00002307,-0.00000085,-0.00000064,0.00007533,
 0.00007727,0.00001439,0.00000472,-0.00000095,0.00000654,-0.00019275,-0
 .00008634,-0.00008341,0.00011330,0.00003605,-0.00001792,0.00002691,0.0
 0001449,0.00001417,-0.00001264,-0.00000429,0.00001169,-0.00000739,0.00
 000610,-0.00000851,0.00000894,0.00001298,0.00001471,0.00000176,-0.0000
 0792,-0.00000497,0.00001136,0.00000969,-0.00000708,-0.00000015,-0.0000
 0475,-0.00000250,-0.00001651,-0.00001602,-0.00000676,0.00000609,-0.000
 00259,-0.00000221,0.00002209,0.00002548,0.00000891,0.00000315,-0.00000
 854,-0.00000039,-0.00000214,0.00000863,0.00000196,0.00000409,-0.000008
 21,-0.00000092,0.00000012,0.00000261,0.00000154,-0.00000065,-0.0000007
 8,0.00000021,-0.00000045,0.00000059,-0.00000070,-0.00004471,-0.0000800
 2,0.00005070,-0.00000039,0.00001749,-0.00001214,0.00001842,-0.00000469
 ,0.00001722,-0.02119564,-0.00022813,0.08012019,0.06066002,0.10049874,0
 .00031600,-0.00139879,0.00061305,0.00010545,-0.00015101,-0.00008369,0.
 00031324,0.00074477,-0.00146472,-0.00045642,0.00024692,0.00166717,-0.0
 0104827,-0.00037771,0.00059654,0.00052194,0.00013672,-0.00031870,-0.00
 214027,0.00333617,-0.00145234,0.00024485,-0.00173613,0.00074097,-0.002
 08979,-0.00025271,-0.04184916,0.00127315,-0.00200367,-0.00019772,-0.00
 002169,-0.00026315,0.00039809,0.00432076,-0.00568924,-0.00191660,-0.00
 330384,-0.00505765,-0.00342302,0.00014446,0.00428003,-0.00098837,-0.00
 008083,-0.00007542,0.00004739,-0.00159374,-0.00076847,0.00093061,-0.00
 003533,0.00012339,-0.00009622,-0.00220059,0.00398710,0.00081740,0.0002
 8504,-0.00024818,-0.00158560,-0.00004868,0.00000998,0.00036787,-0.0001
 3237,0.00010786,0.00012271,-0.00081801,0.00003954,0.00068748,-0.000021
 70,-0.00001549,-0.00000734,-0.00005320,0.00000725,0.00001529,0.0000462
 0,0.00007227,0.00003734,0.00004133,-0.00000940,0.00002111,-0.00018147,
 0.00003380,-0.00059543,0.00005102,-0.00011169,0.00035734,0.00002007,-0
 .00000028,0.00002035,0.00000036,-0.00000867,-0.00000285,0.00000240,0.0
 0002369,-0.00002271,0.00000822,-0.00001102,0.00002373,-0.00000693,0.00
 000335,0.00001128,-0.00000374,0.00002486,-0.00005711,0.00000650,-0.000
 01458,-0.00000448,-0.00003212,-0.00001558,-0.00001762,-0.00000524,0.00
 000126,-0.00000080,0.00003492,0.00001714,0.00002310,-0.00000493,-0.000
 00211,-0.00000526,0.00001569,-0.00001403,0.00006618,-0.00000156,0.0000
 0490,-0.00000449,0.00000163,0.00000011,-0.00000475,0.00000602,-0.00000
 025,0.00000456,-0.00000372,-0.00000277,0.00000044,0.00044036,-0.000240
 17,0.00010524,0.00006613,-0.00005900,0.00000352,-0.00000051,0.00003649
 ,0.00003561,0.05547971,0.06844303,-0.07232510,-0.07432779,-0.08852320,
 0.73076141,0.00093345,0.00383207,-0.00006081,-0.00069509,-0.00016899,0
 .00018601,-0.00107772,0.00116594,-0.00188481,-0.00012135,0.00036977,0.
 00250648,0.00037679,-0.00071300,-0.00002163,-0.00038359,-0.00034026,0.
 00020617,0.01884965,-0.00055022,0.00918661,-0.00463297,0.00321285,0.00
 188898,-0.07712815,0.02261665,-0.00258625,0.00164512,-0.00205256,0.000
 34125,-0.00003022,0.00038408,-0.00143180,-0.04697737,-0.02879452,-0.01
 320998,-0.00127034,-0.00256130,0.00067170,-0.00269490,0.00596946,-0.00
 361703,0.00023557,0.00000975,-0.00017335,0.00034583,-0.00042435,0.0009
 6593,-0.00013891,0.00016698,0.00062181,0.00631421,-0.00465723,0.000101
 11,-0.00176551,0.00156322,0.00164089,0.00055224,-0.00023373,-0.0003027
 8,0.00022624,-0.00025589,-0.00015284,0.00001260,-0.00012539,-0.0000336
 4,-0.00003982,-0.00000819,0.00001632,-0.00000692,0.00002674,0.00002305
 ,0.00002468,-0.00013012,-0.00007658,-0.00003260,0.00003488,-0.00000053
 ,0.00022663,0.00022199,-0.00004288,-0.00021218,-0.00015106,0.00005251,
 -0.00000002,-0.00001145,-0.00000548,0.00001362,-0.00002799,0.00000383,
 0.00000873,-0.00001249,-0.00001661,0.00001479,-0.00003304,0.00000510,-
 0.00001411,0.00001964,0.00001666,-0.00002227,0.00002136,-0.00007563,-0
 .00001554,0.00002385,0.00000166,-0.00006505,-0.00002142,0.00000007,-0.
 00000870,0.00001279,0.00000437,0.00007304,0.00001023,0.00000848,-0.000
 02409,0.00000534,0.00000684,0.00006966,-0.00003912,0.00005433,-0.00005
 227,0.00004250,-0.00000217,0.00000176,-0.00000969,-0.00000497,0.000004
 99,-0.00000229,0.00000462,0.00000433,-0.00000020,-0.00000330,0.0002555
 8,0.00001766,0.00001664,0.00001050,-0.00006515,-0.00000399,-0.00002421
 ,-0.00002816,-0.00001297,-0.26592318,-0.23940616,0.10437573,-0.1022782
 8,-0.03228194,0.02486736,0.47543534,-0.00113938,0.00046939,0.00092918,
 -0.00042901,0.00036254,0.00142679,-0.00115102,0.00189115,-0.00300223,0
 .00034777,0.00023472,0.00208622,0.00097690,-0.00096312,-0.00036469,-0.
 00070860,-0.00039302,0.00039145,-0.00474578,-0.04475702,-0.01605154,0.
 00240715,0.00139401,-0.00346965,0.01631829,-0.05856480,-0.00172328,0.0
 0025317,-0.00503434,0.00234642,0.00021544,0.00043149,0.00046220,-0.025
 83183,-0.00226752,0.00774897,0.00433397,0.00399202,0.00796770,-0.00037
 309,0.00676283,-0.00305529,0.00015169,0.00014146,-0.00017643,0.0035098
 1,0.00014404,-0.00171524,-0.00016690,-0.00037873,0.00005964,0.00255354
 ,-0.00079775,-0.00105941,-0.00012940,0.00091606,0.00055753,0.00012101,
 -0.00013429,-0.00013710,0.00019663,-0.00022358,-0.00005574,-0.00016295
 ,-0.00003260,0.00006021,0.00005565,0.00007226,-0.00000276,0.00002161,0
 .00001473,0.00001261,-0.00010122,-0.00014653,-0.00004214,-0.00001422,0
 .00001360,-0.00000644,0.00037606,0.00021928,0.00000770,-0.00025118,-0.
 00014013,0.00010459,-0.00003723,-0.00002503,-0.00001879,0.00002613,-0.
 00000709,-0.00001590,0.00001517,-0.00001141,0.00000212,-0.00000697,-0.
 00003511,-0.00001561,-0.00001003,0.00002113,0.00001585,-0.00002805,-0.
 00000106,-0.00003170,-0.00000506,0.00001415,0.00000366,-0.00000756,0.0
 0001073,0.00000647,-0.00001333,0.00001011,0.00000407,0.00000342,-0.000
 02995,-0.00000606,-0.00001510,0.00001460,0.00000270,0.00003324,-0.0000
 3039,0.00003264,-0.00002566,0.00002990,-0.00000055,0.00000048,-0.00000
 737,-0.00000525,0.00000416,0.00000005,0.00000242,0.00000155,-0.0000017
 3,0.00000008,0.00018178,0.00009126,-0.00002217,0.00000622,-0.00006280,
 0.00001503,-0.00003844,-0.00002559,-0.00003332,-0.23851498,-0.36288756
 ,0.12935957,-0.03158196,-0.11326846,0.02536970,0.27337815,0.57297546,-
 0.00317789,0.00097598,0.00122066,-0.00042428,0.00037240,0.00026651,0.0
 0036149,-0.00078459,0.00171028,0.00124236,-0.00014284,-0.00359272,0.00
 132041,0.00095048,-0.00086424,-0.00072605,-0.00012745,0.00039061,0.011
 62674,-0.01663420,0.00214629,-0.00039449,0.00535299,-0.00337457,0.0098
 5329,0.01603738,-0.07496753,-0.00219983,0.00166194,0.00076268,0.000272
 62,0.00080635,-0.00105867,-0.01171297,0.01263537,0.01273556,-0.0201003
 5,-0.02324602,-0.02998284,0.00312282,-0.00383181,-0.00234717,0.0002137
 7,0.00020573,0.00008270,0.00159408,0.00165970,-0.00156504,0.00028773,-
 0.00014205,-0.00005816,0.00441423,-0.00527497,-0.00202901,-0.00060384,
 0.00082997,0.00294368,0.00024593,-0.00007616,-0.00071341,0.00015918,-0
 .00016807,-0.00024882,0.00114306,-0.00005389,-0.00119524,0.00004903,0.
 00003698,-0.00000120,0.00008335,-0.00001100,-0.00002506,-0.00010058,-0
 .00011579,-0.00004588,-0.00005949,0.00000988,-0.00003346,0.00035314,-0
 .00002004,0.00088140,-0.00015417,0.00016788,-0.00051912,-0.00003828,-0
 .00000289,-0.00002926,0.00000122,0.00001771,-0.00000233,-0.00000133,-0
 .00003400,0.00003638,-0.00001634,0.00001684,-0.00003808,0.00001114,-0.
 00000499,-0.00001561,0.00000212,-0.00004103,0.00009031,-0.00000785,0.0
 0001921,0.00000664,0.00005448,0.00002542,0.00002583,0.00000679,-0.0000
 0298,0.00000041,-0.00006205,-0.00002937,-0.00003512,0.00000956,0.00000
 399,0.00000623,-0.00002804,0.00002295,-0.00009795,0.00000637,-0.000010
 34,0.00000613,-0.00000208,0.00000088,0.00000714,-0.00000882,0.00000067
 ,-0.00000674,0.00000499,0.00000366,-0.00000014,-0.00079328,0.00037306,
 -0.00006540,-0.00012798,0.00012350,-0.00000984,-0.00000766,-0.00007912
 ,-0.00007250,0.09696263,0.11965334,-0.19884608,0.03139942,0.03683366,-
 0.61205175,-0.12405444,-0.14796426,0.91057357\\0.00003034,0.00001021,0
 .00003306,0.00000654,0.00000101,-0.00000140,0.00001841,0.00001242,0.00
 007474,0.00000312,-0.00000654,-0.00002047,-0.00011497,-0.00005705,-0.0
 0021390,0.00001916,0.00006292,0.00005707,-0.00004405,-0.00002778,0.000
 00468,0.00002473,0.00000555,-0.00001237,0.00006774,-0.00003035,-0.0000
 0960,-0.00000057,0.00000316,0.00001223,-0.00000974,0.00000104,0.000001
 96,-0.00001689,0.00001132,0.00000586,0.00000562,-0.00000282,-0.0000065
 5,0.00000413,0.00000180,0.00000409,0.00000222,0.00001339,-0.00000200,-
 0.00001122,-0.00001346,-0.00000481,-0.00000185,0.00000505,0.00000062,0
 .00001113,0.00000931,0.00000224,-0.00000996,0.00000328,-0.00000588,0.0
 0000457,0.00001850,0.00000256,0.00000658,0.00000130,-0.00001537,-0.000
 00584,0.00000830,-0.00000395,0.00001066,-0.00001921,-0.00000461,-0.000
 00234,0.00002065,0.00002159,-0.00000989,0.00001863,0.00002202,-0.00000
 568,-0.00000043,0.00000117,0.00008865,-0.00010740,-0.00003126,-0.00003
 759,0.00004435,0.00001784,0.00000418,-0.00000326,0.00001063,0.00002792
 ,-0.00002859,-0.00001932,0.00000915,0.00001017,0.00001173,-0.00000913,
 -0.00001557,-0.00001683,-0.00001110,0.00000182,0.00000763,-0.00002597,
 0.00000918,0.00002169,-0.00001302,0.00001152,0.00000573,0.00001186,-0.
 00002503,-0.00000510,-0.00000943,-0.00001849,-0.00000247,0.00001687,0.
 00004556,0.00002614,0.00000527,-0.00000013,0.00000092,0.00001127,-0.00
 001519,-0.00003434,-0.00000248,-0.00000661,0.00000395,0.00000096,0.000
 00203,0.00000520,-0.00000370,-0.00000371,0.00000433,0.00000143,0.00000
 556,-0.00000964,-0.00001211,-0.00000352,0.00001924,-0.00000374,-0.0000
 0792,0.00004269,-0.00000550,-0.00000391,0.00001785,0.00003288,0.000015
 06,0.00000999,0.00003274,-0.00000596,-0.00000789,-0.00009133,0.0000498
 2,-0.00002170\\\@


 I WISH TO HAVE NO CONNECTION WITH ANY SHIP THAT DOES NOT SAIL FAST,
 FOR I INTEND TO GO IN HARM'S WAY.
     -- JOHN PAUL JONES, USN 1747-1792
 Job cpu time:       0 days  3 hours 57 minutes  1.6 seconds.
 Elapsed time:       0 days  3 hours 57 minutes 24.9 seconds.
 File lengths (MBytes):  RWF=   3721 Int=      0 D2E=      0 Chk=     69 Scr=      1
 Normal termination of Gaussian 16 at Mon Nov  4 16:28:12 2024.
