 Entering Gaussian System, Link 0=g16
 Initial command:
 /sw/cluster/pub/apps//g16/l1.exe "/data/natrosa/25923/Gau-481310.inp" -scrdir="/data/natrosa/25923/"
 Entering Link 1 = /sw/cluster/pub/apps//g16/l1.exe PID=    481311.
  
 Copyright (c) 1988,1990,1992,1993,1995,1998,2003,2009,2016,
            Gaussian, Inc.  All Rights Reserved.
  
 This is part of the Gaussian(R) 16 program.  It is based on
 the Gaussian(R) 09 system (copyright 2009, Gaussian, Inc.),
 the Gaussian(R) 03 system (copyright 2003, Gaussian, Inc.),
 the Gaussian(R) 98 system (copyright 1998, Gaussian, Inc.),
 the Gaussian(R) 94 system (copyright 1995, Gaussian, Inc.),
 the Gaussian 92(TM) system (copyright 1992, Gaussian, Inc.),
 the Gaussian 90(TM) system (copyright 1990, Gaussian, Inc.),
 the Gaussian 88(TM) system (copyright 1988, Gaussian, Inc.),
 the Gaussian 86(TM) system (copyright 1986, Carnegie Mellon
 University), and the Gaussian 82(TM) system (copyright 1983,
 Carnegie Mellon University). Gaussian is a federally registered
 trademark of Gaussian, Inc.
  
 This software contains proprietary and confidential information,
 including trade secrets, belonging to Gaussian, Inc.
  
 This software is provided under written license and may be
 used, copied, transmitted, or stored only in accord with that
 written license.
  
 The following legend is applicable only to US Government
 contracts under FAR:
  
                    RESTRICTED RIGHTS LEGEND
  
 Use, reproduction and disclosure by the US Government is
 subject to restrictions as set forth in subparagraphs (a)
 and (c) of the Commercial Computer Software - Restricted
 Rights clause in FAR 52.227-19.
  
 Gaussian, Inc.
 340 Quinnipiac St., Bldg. 40, Wallingford CT 06492
  
  
 ---------------------------------------------------------------
 Warning -- This program may not be used in any manner that
 competes with the business of Gaussian, Inc. or will provide
 assistance to any competitor of Gaussian, Inc.  The licensee
 of this program is prohibited from giving any competitor of
 Gaussian, Inc. access to this program.  By using this program,
 the user acknowledges that Gaussian, Inc. is engaged in the
 business of creating and licensing software in the field of
 computational chemistry and represents and warrants to the
 licensee that it is not a competitor of Gaussian, Inc. and that
 it will not use this program in any manner prohibited above.
 ---------------------------------------------------------------
  

 Cite this work as:
 Gaussian 16, Revision A.03,
 M. J. Frisch, G. W. Trucks, H. B. Schlegel, G. E. Scuseria, 
 M. A. Robb, J. R. Cheeseman, G. Scalmani, V. Barone, 
 G. A. Petersson, H. Nakatsuji, X. Li, M. Caricato, A. V. Marenich, 
 J. Bloino, B. G. Janesko, R. Gomperts, B. Mennucci, H. P. Hratchian, 
 J. V. Ortiz, A. F. Izmaylov, J. L. Sonnenberg, D. Williams-Young, 
 F. Ding, F. Lipparini, F. Egidi, J. Goings, B. Peng, A. Petrone, 
 T. Henderson, D. Ranasinghe, V. G. Zakrzewski, J. Gao, N. Rega, 
 G. Zheng, W. Liang, M. Hada, M. Ehara, K. Toyota, R. Fukuda, 
 J. Hasegawa, M. Ishida, T. Nakajima, Y. Honda, O. Kitao, H. Nakai, 
 T. Vreven, K. Throssell, J. A. Montgomery, Jr., J. E. Peralta, 
 F. Ogliaro, M. J. Bearpark, J. J. Heyd, E. N. Brothers, K. N. Kudin, 
 V. N. Staroverov, T. A. Keith, R. Kobayashi, J. Normand, 
 K. Raghavachari, A. P. Rendell, J. C. Burant, S. S. Iyengar, 
 J. Tomasi, M. Cossi, J. M. Millam, M. Klene, C. Adamo, R. Cammi, 
 J. W. Ochterski, R. L. Martin, K. Morokuma, O. Farkas, 
 J. B. Foresman, and D. J. Fox, Gaussian, Inc., Wallingford CT, 2016.
 
 ******************************************
 Gaussian 16:  ES64L-G16RevA.03 25-Dec-2016
                 4-Dec-2024 
 ******************************************
 %chk=CURCUMIN-FREQ-Prod-1-M06-2X-6-311G-D-363.chk
 ----------------------------------------------------------------------
 # freq=noraman M062X/6-311g(d) scrf=(smd,solvent=generic,read) scf=(qc
 ,maxcycle=10000) temperature=363.15
 ----------------------------------------------------------------------
 1/10=4,30=1,38=1,40=2,112=363150/1,3;
 2/12=2,17=6,18=5,40=1/2;
 3/5=4,6=6,7=1,11=2,25=1,30=1,70=32203,71=2,72=-2,74=-55,140=1/1,2,3;
 4//1;
 5/5=2,7=10000,8=3,38=5,98=1/8;
 8/6=4,10=90,11=11/1;
 11/6=1,8=1,9=11,15=111,16=1/1,2,10;
 10/6=1/2;
 6/7=2,8=2,9=2,10=2,28=1/1;
 7/8=1,10=1,25=1/1,2,3,16;
 1/10=4,30=1/3;
 99//99;
 ----------
 Reagente 1
 ----------
 Symbolic Z-matrix:
 Charge =  0 Multiplicity = 2
 C                     2.17116   1.30469   0.44385 
 H                     1.80327   2.24728   0.04778 
 C                     1.45992   0.66943   1.38393 
 H                     1.7896   -0.25275   1.853 
 C                     0.16899   1.16325   1.90897 
 O                    -0.41554   0.53302   2.76396 
 C                     3.46358   0.89345  -0.11472 
 C                     4.32338   1.87768  -0.60856 
 C                     3.9457   -0.41888  -0.16625 
 C                     5.58522   1.57152  -1.0986 
 H                     3.99454   2.91057  -0.5962 
 C                     5.18955  -0.76864  -0.66127 
 H                     4.96644  -1.04193   5.35011 
 C                     6.03009   0.25466  -1.12948 
 H                     6.22962   2.36081  -1.47292 
 O                     7.22912  -0.12372  -1.61341 
 H                     7.72209   0.64755  -1.92349 
 O                     5.53736  -2.07451  -0.75174 
 C                     6.51187  -2.48575   0.21762 
 H                     6.13094  -2.3137    1.22605 
 H                     6.66439  -3.55083   0.05799 
 H                     7.45108  -1.95128   0.06915 
 C                    -2.91099   1.00724   0.65674 
 H                    -2.57032   1.06249   1.68784 
 C                    -2.18504   1.60167  -0.30381 
 H                    -2.47447   1.56208  -1.34959 
 C                    -0.93796   2.34194  -0.05961 
 O                    -0.33207   2.8499   -0.98167 
 C                    -4.14647   0.2502    0.46632 
 C                    -4.7506   -0.34324   1.57735 
 C                    -4.75884   0.09275  -0.78766 
 C                    -5.92065  -1.08053   1.4474 
 H                    -4.29435  -0.23431   2.55549 
 C                    -5.92007  -0.6397   -0.92997 
 H                    -4.33296   0.5315   -1.68332 
 C                    -6.51197  -1.23834   0.19906 
 H                    -6.37586  -1.54664   2.31611 
 O                    -7.63996  -1.95541  -0.00195 
 H                    -7.94977  -2.32207   0.83628 
 O                    -6.47054  -0.81196  -2.16662 
 C                    -7.66664  -0.06114  -2.37264 
 H                    -7.46653   1.00941  -2.26868 
 H                    -7.99279  -0.27229  -3.38954 
 H                    -8.4466   -0.36122  -1.67041 
 C                    -0.40834   2.46813   1.36979 
 H                    -1.20631   2.7714    2.04735 
 H                     0.3571    3.24453   1.36107 
 O                     3.4412   -2.15868   1.24697 
 O                     2.13637  -1.80582  -0.42636 
 N                     3.10313  -1.55507   0.25167 
 

 GradGradGradGradGradGradGradGradGradGradGradGradGradGradGradGradGradGrad
 Berny optimization.
 Initialization pass.
 Trust Radius=3.00D-01 FncErr=1.00D-07 GrdErr=1.00D-07 EigMax=2.50D+02 EigMin=1.00D-04
 Number of steps in this run=      2 maximum allowed number of steps=      2.
 GradGradGradGradGradGradGradGradGradGradGradGradGradGradGradGradGradGrad

                          Input orientation:                          
 ---------------------------------------------------------------------
 Center     Atomic      Atomic             Coordinates (Angstroms)
 Number     Number       Type             X           Y           Z
 ---------------------------------------------------------------------
      1          6           0        2.171164    1.304693    0.443851
      2          1           0        1.803269    2.247282    0.047782
      3          6           0        1.459923    0.669425    1.383926
      4          1           0        1.789602   -0.252754    1.852999
      5          6           0        0.168990    1.163253    1.908970
      6          8           0       -0.415538    0.533023    2.763964
      7          6           0        3.463577    0.893451   -0.114721
      8          6           0        4.323383    1.877681   -0.608559
      9          6           0        3.945704   -0.418877   -0.166253
     10          6           0        5.585216    1.571517   -1.098596
     11          1           0        3.994543    2.910568   -0.596195
     12          6           0        5.189547   -0.768635   -0.661268
     13          1           0        4.966436   -1.041929    5.350106
     14          6           0        6.030094    0.254658   -1.129476
     15          1           0        6.229624    2.360814   -1.472924
     16          8           0        7.229117   -0.123724   -1.613413
     17          1           0        7.722093    0.647547   -1.923485
     18          8           0        5.537363   -2.074514   -0.751736
     19          6           0        6.511875   -2.485750    0.217619
     20          1           0        6.130943   -2.313695    1.226052
     21          1           0        6.664391   -3.550830    0.057991
     22          1           0        7.451084   -1.951277    0.069150
     23          6           0       -2.910993    1.007235    0.656737
     24          1           0       -2.570316    1.062485    1.687841
     25          6           0       -2.185039    1.601672   -0.303806
     26          1           0       -2.474468    1.562077   -1.349590
     27          6           0       -0.937961    2.341944   -0.059606
     28          8           0       -0.332066    2.849897   -0.981669
     29          6           0       -4.146473    0.250195    0.466315
     30          6           0       -4.750602   -0.343236    1.577347
     31          6           0       -4.758841    0.092748   -0.787658
     32          6           0       -5.920652   -1.080532    1.447400
     33          1           0       -4.294349   -0.234305    2.555491
     34          6           0       -5.920067   -0.639701   -0.929967
     35          1           0       -4.332956    0.531498   -1.683318
     36          6           0       -6.511969   -1.238343    0.199059
     37          1           0       -6.375861   -1.546638    2.316114
     38          8           0       -7.639962   -1.955412   -0.001952
     39          1           0       -7.949767   -2.322066    0.836284
     40          8           0       -6.470536   -0.811955   -2.166622
     41          6           0       -7.666641   -0.061135   -2.372640
     42          1           0       -7.466526    1.009408   -2.268678
     43          1           0       -7.992785   -0.272289   -3.389543
     44          1           0       -8.446602   -0.361224   -1.670414
     45          6           0       -0.408344    2.468129    1.369789
     46          1           0       -1.206308    2.771397    2.047349
     47          1           0        0.357100    3.244531    1.361072
     48          8           0        3.441202   -2.158680    1.246968
     49          8           0        2.136373   -1.805815   -0.426356
     50          7           0        3.103126   -1.555072    0.251665
 ---------------------------------------------------------------------
                    Distance matrix (angstroms):
                    1          2          3          4          5
     1  C    0.000000
     2  H    1.086596   0.000000
     3  C    1.339093   2.095901   0.000000
     4  H    2.134696   3.083695   1.085878   0.000000
     5  C    2.485011   2.703703   1.478528   2.152810   0.000000
     6  O    3.559414   3.903772   2.332480   2.511960   1.212385
     7  C    1.466784   2.148462   2.512123   2.826287   3.875877
     8  C    2.463317   2.630278   3.691786   4.125296   4.909923
     9  C    2.547923   3.426987   3.125150   2.958674   4.590561
    10  C    3.755807   4.009235   4.898441   5.142622   6.208674
    11  H    2.642961   2.378305   3.920191   4.568033   4.895285
    12  C    3.824998   4.589704   4.490092   4.259965   5.961905
    13  H    6.114860   6.995654   5.563717   4.790076   6.302359
    14  C    4.297589   4.818977   5.232178   5.209069   6.664101
    15  H    4.610913   4.681672   5.811406   6.132397   7.042914
    16  O    5.644076   6.149883   6.549559   6.451433   7.994303
    17  H    6.070332   6.440305   7.081964   7.089910   8.485460
    18  O    4.917292   5.767201   5.358710   4.914180   6.810427
    19  C    5.767184   6.678428   6.069400   5.473628   7.510531
    20  H    5.420740   6.396842   5.544579   4.846420   6.935447
    21  H    6.626770   7.566288   6.830457   6.153286   8.236440
    22  H    6.214443   7.037483   6.670137   6.174097   8.131059
    23  C    5.095304   4.912516   4.443853   5.011408   3.328472
    24  H    4.907933   4.818899   4.060750   4.556974   2.750064
    25  C    4.429864   4.055493   4.123502   4.887584   3.260374
    26  H    4.986439   4.552053   4.873230   5.633159   4.214872
    27  C    3.316024   2.744965   3.260514   4.222572   2.547537
    28  O    3.268933   2.445929   3.682624   4.707787   3.384024
    29  C    6.405077   6.289909   5.696441   6.116603   4.640921
    30  C    7.204952   7.211351   6.295515   6.546636   5.155761
    31  C    7.142156   6.957102   6.612213   7.069268   5.718505
    32  C    8.495522   8.525974   7.585464   7.765162   6.506255
    33  H    6.973550   7.044702   5.941459   6.124402   4.721499
    34  C    8.434220   8.303047   7.844244   8.205707   6.956064
    35  H    6.886672   6.602566   6.556253   7.113811   5.794063
    36  C    9.051174   9.017519   8.282183   8.521912   7.302511
    37  H    9.202559   9.297168   8.196305   8.280302   7.095375
    38  O   10.348199  10.336330   9.571747   9.759947   8.623075
    39  H   10.758282  10.799185   9.888943  10.008550   8.900130
    40  O    9.272203   9.094964   8.814367   9.203257   8.037114
    41  C   10.323784  10.043228   9.896448  10.359212   9.012681
    42  H   10.016490   9.634699   9.650834  10.210641   8.705028
    43  H   10.976686  10.682983  10.631393  11.098636   9.836137
    44  H   10.953646  10.715239  10.417796  10.826176   9.453277
    45  C    2.977382   2.586060   2.593445   3.530958   1.525363
    46  H    4.016185   3.651098   3.459365   4.261307   2.120547
    47  H    2.809821   2.193317   2.801412   3.811175   2.160392
    48  O    3.775307   4.851121   3.455778   2.593764   4.709656
    49  O    3.230129   4.094308   3.140305   2.779876   4.259074
    50  N    3.013925   4.023567   2.988397   2.446558   4.329562
                    6          7          8          9         10
     6  O    0.000000
     7  C    4.843993   0.000000
     8  C    5.969873   1.397087   0.000000
     9  C    5.339730   1.399038   2.369062   0.000000
    10  C    7.211580   2.434982   1.387838   2.742067   0.000000
    11  H    6.032595   2.140678   1.084041   3.357445   2.139090
    12  C    6.696529   2.457685   2.784961   1.383660   2.413322
    13  H    6.175293   5.989041   6.666583   5.644493   6.985610
    14  C    7.535419   2.832807   2.412140   2.392933   1.390319
    15  H    8.090131   3.413046   2.148092   3.827579   1.085529
    16  O    8.833657   4.178518   3.668602   3.600304   2.416876
    17  H    9.391823   4.633255   3.846231   4.299563   2.469900
    18  O    7.388939   3.676302   4.136918   2.370085   3.662805
    19  C    7.974078   4.563066   4.950919   3.317311   4.364921
    20  H    7.302424   4.381586   4.919421   3.210003   4.560338
    21  H    8.609619   5.479660   5.949230   4.153393   5.361040
    22  H    8.678566   4.901683   4.990263   3.832930   4.153934
    23  C    3.300391   6.422090   7.395596   7.051624   8.693974
    24  H    2.466057   6.299656   7.311709   6.934740   8.633426
    25  C    3.699237   5.695980   6.521396   6.456590   7.810855
    26  H    4.713753   6.101831   6.845401   6.822248   8.063597
    27  C    3.393769   4.634081   5.310238   5.611033   6.650180
    28  O    4.405070   4.357314   4.770495   5.445099   6.054928
    29  C    4.390792   7.659259   8.691520   8.144392   9.944879
    30  C    4.579156   8.477336   9.594158   8.869701  10.846939
    31  C    5.627801   8.288675   9.257692   8.741682  10.453849
    32  C    5.885846   9.715996  10.859017  10.019314  12.078926
    33  H    3.959473   8.281744   9.420032   8.679887  10.687336
    34  C    6.732031   9.542953  10.553141   9.897750  11.717058
    35  H    5.926591   7.960994   8.826070   8.470001   9.989678
    36  C    6.847112  10.205612  11.303394  10.496090  12.486837
    37  H    6.328587  10.424852  11.608337  10.675612  12.823825
    38  O    8.126186  11.463739  12.577050  11.688267  13.731249
    39  H    8.284449  11.895730  13.052037  12.088401  14.216171
    40  O    7.923550  10.286171  11.232559  10.613861  12.335428
    41  C    8.905965  11.396981  12.273209  11.825510  13.412698
    42  H    8.675878  11.140921  11.937833  11.691843  13.116136
    43  H    9.794327  11.972119  12.807976  12.366835  13.892810
    44  H    9.217449  12.076703  13.008180  12.483392  14.175838
    45  C    2.385039   4.435668   5.162531   5.445362   6.543669
    46  H    2.479752   5.478052   6.199198   6.451442   7.580335
    47  H    3.149183   4.166022   4.634558   5.350828   6.015159
    48  O    4.941759   3.342185   4.529176   2.297527   4.900289
    49  O    4.707500   3.024008   4.287698   2.294543   4.873684
    50  N    4.801331   2.501885   3.743368   1.474969   4.214206
                   11         12         13         14         15
    11  H    0.000000
    12  C    3.868954   0.000000
    13  H    7.205921   6.021718   0.000000
    14  C    3.388468   1.404588   6.693093   0.000000
    15  H    2.463021   3.396174   7.728392   2.143283   0.000000
    16  O    4.550179   2.341439   7.379256   1.347228   2.681726
    17  H    4.558244   3.164262   7.959466   1.909888   2.316409
    18  O    5.220683   1.354430   6.214875   2.410501   4.546589
    19  C    6.009950   2.338691   5.551164   3.091377   5.140699
    20  H    5.931080   2.614462   4.470043   3.486419   5.398634
    21  H    7.021803   3.230032   6.097878   4.036601   6.122112
    22  H    6.002324   2.654563   5.906681   2.884799   4.739629
    23  C    7.271791   8.396999   9.395780   9.148769   9.482537
    24  H    7.192330   8.311846   8.639640   9.086083   9.440076
    25  C    6.323443   7.754396   9.492046   8.365679   8.529343
    26  H    6.650875   8.040095  10.345715   8.607286   8.741534
    27  C    4.994082   6.898120   8.693531   7.352222   7.305621
    28  O    4.344170   6.609436   9.127530   6.872714   6.598205
    29  C    8.630333   9.458897  10.419506  10.300926  10.764699
    30  C    9.580662  10.197986  10.447139  11.131387  11.712446
    31  C    9.197744   9.986410  11.555979  10.795563  11.241000
    32  C   10.881923  11.312837  11.565522  12.298104  12.961495
    33  H    9.408989  10.028825   9.706919  10.973249  11.563597
    34  C   10.536380  11.113611  12.574460  11.985242  12.526487
    35  H    8.728634   9.665040  11.765348  10.381531  10.721882
    36  C   11.323987  11.742498  12.582752  12.700291  13.345323
    37  H   11.657337  11.967822  11.751916  13.000941  13.730377
    38  O   12.625078  12.901141  13.725897  13.893385  14.599965
    39  H   13.118651  13.315306  13.741966  14.350618  15.110160
    40  O   11.217901  11.756934  13.687893  12.588848  13.108842
    41  C   12.164292  12.988877  14.839050  13.756661  14.134409
    42  H   11.737449  12.881048  14.725230  13.565625  13.785646
    43  H   12.713355  13.470847  15.649767  14.213610  14.590530
    44  H   12.908937  13.679507  15.154559  14.499885  14.927830
    45  C    4.842134   6.777774   7.553257   7.252535   7.221852
    46  H    5.835799   7.795857   7.971978   8.294077   8.237353
    47  H    4.144082   6.599084   7.451987   6.879319   6.580200
    48  O    5.422242   2.937737   4.517656   4.263103   5.966484
    49  O    5.072072   3.233079   6.477676   4.461053   5.933869
    50  N    4.632001   2.409374   5.452462   3.708074   5.299374
                   16         17         18         19         20
    16  O    0.000000
    17  H    0.966452   0.000000
    18  O    2.722150   3.681801   0.000000
    19  C    3.073480   3.983278   1.434726   0.000000
    20  H    3.750269   4.606549   2.078747   1.091627   0.000000
    21  H    3.854551   4.761444   2.026169   1.087721   1.783097
    22  H    2.494040   3.286020   2.085994   1.090788   1.792356
    23  C   10.452487  10.947577   9.102510  10.059036   9.649316
    24  H   10.408374  10.915472   9.029217   9.860919   9.344718
    25  C    9.660145  10.083897   8.564489   9.623680   9.318053
    26  H    9.852466  10.253564   8.818824   9.979750   9.783079
    27  C    8.671505   9.018956   7.868543   8.881641   8.561384
    28  O    8.149418   8.402788   7.665043   8.760534   8.561962
    29  C   11.570183  12.113294  10.033175  11.006708  10.619605
    30  C   12.399307  12.992521  10.689442  11.544809  11.064092
    31  C   12.018314  12.544785  10.521888  11.605528  11.332846
    32  C   13.535157  14.158871  11.709411  12.571982  12.116544
    33  H   12.254887  12.854329  10.535022  11.283135  10.713449
    34  C   13.177040  13.738727  11.548297  12.620540  12.356274
    35  H   11.580835  12.058000  10.250968  11.416116  11.227321
    36  C   13.904851  14.514486  12.115676  13.083458  12.730056
    37  H   14.232403  14.884252  12.313215  13.091194  12.577629
    38  O   15.067893  15.699058  13.199176  14.163473  13.830191
    39  H   15.531653  16.187715  13.582554  14.475795  14.086106
    40  O   13.728081  14.269547  12.156710  13.305232  13.136314
    41  C   14.915225  15.411590  13.454618  14.615694  14.435994
    42  H   14.753823  15.196850  13.450384  14.621679  14.427311
    43  H   15.325893  15.809896  13.902192  15.109473  14.998358
    44  H   15.677622  16.202110  14.118449  15.226106  14.990213
    45  C    8.599303   8.959028   7.777397   8.588239   8.102393
    46  H    9.640503   9.999730   8.763266   9.516084   8.964817
    47  H    8.210805   8.472058   7.719542   8.486746   8.015570
    48  O    5.164409   6.021022   2.897549   3.255083   2.694285
    49  O    5.493139   6.281771   3.427069   4.474599   4.352584
    50  N    4.748797   5.560365   2.683681   3.533679   3.269956
                   21         22         23         24         25
    21  H    0.000000
    22  H    1.782577   0.000000
    23  C   10.621790  10.792159   0.000000
    24  H   10.450785  10.589211   1.087331   0.000000
    25  C   10.246540  10.277033   1.342761   2.099004   0.000000
    26  H   10.566071  10.624173   2.126911   3.079735   1.085818
    27  C    9.619479   9.424670   2.487459   2.712042   1.470660
    28  O    9.539424   9.205048   3.568003   3.915468   2.334753
    29  C   11.466878  11.811331   1.461431   2.153186   2.503358
    30  C   11.954044  12.399258   2.460784   2.596518   3.728742
    31  C   12.020025  12.409449   2.517361   3.443563   3.022486
    32  C   12.900238  13.470750   3.747261   3.984355   4.920950
    33  H   11.718824  12.127864   2.657134   2.325246   3.999447
    34  C   12.954509  13.472422   3.779491   4.579431   4.400712
    35  H   11.859140  12.169590   2.779238   3.841036   2.768009
    36  C   13.378489  13.981845   4.268386   4.800720   5.200085
    37  H   13.385219  14.014171   4.613145   4.656654   5.859934
    38  O   14.393174  15.091214   5.619101   6.137134   6.519214
    39  H   14.686362  15.424402   6.041997   6.412396   7.065947
    40  O   13.600612  14.145962   4.893992   5.795009   5.259388
    41  C   14.948726  15.429860   5.738879   6.612303   6.090399
    42  H   15.029703  15.387208   5.413958   6.295215   5.666181
    43  H   15.409969  15.915233   6.620738   7.547491   6.838378
    44  H   15.540369  16.071427   6.158837   6.916326   6.702817
    45  C    9.379353   9.110072   2.984277   2.598291   2.590041
    46  H   10.289607  10.058199   2.819933   2.215884   2.802517
    47  H    9.362525   8.887637   4.022687   3.665770   3.454457
    48  O    3.706844   4.184426   7.121922   6.834371   6.942603
    49  O    4.876742   5.339741   5.878966   5.903380   5.504597
    50  N    4.086951   4.369786   6.549743   6.411096   6.183710
                   26         27         28         29         30
    26  H    0.000000
    27  C    2.152465   0.000000
    28  O    2.526605   1.214630   0.000000
    29  C    2.795379   3.866078   4.837852   0.000000
    30  C    4.168689   4.942271   6.022302   1.396970   0.000000
    31  C    2.773636   4.493113   5.218798   1.404362   2.404870
    32  C    5.165532   6.229897   7.251272   2.425092   1.389068
    33  H    4.667827   4.974046   6.141945   2.149713   1.084803
    34  C    4.110482   5.871040   6.588302   2.426346   2.782474
    35  H    2.151150   4.176140   4.677008   2.175966   3.401694
    36  C    5.151901   6.629851   7.503268   2.807622   2.409006
    37  H    6.190506   7.094778   8.168987   3.408891   2.153003
    38  O    6.393058   7.961621   8.800919   4.157937   3.666292
    39  H    7.059994   8.468827   9.385282   4.606349   3.834006
    40  O    4.719336   6.707904   7.245280   3.669031   4.146706
    41  C    5.535351   7.509997   8.012796   4.533009   4.917851
    42  H    5.105958   7.019816   7.479593   4.367991   4.898755
    43  H    6.162640   8.227590   8.615830   5.471266   5.931845
    44  H    6.282388   8.141346   8.753934   4.840512   4.920233
    45  C    3.533387   1.529571   2.383468   4.439494   5.177070
    46  H    3.822287   2.166956   3.153635   4.183384   4.741715
    47  H    4.265691   2.123717   2.473686   5.481679   6.245596
    48  O    7.455287   6.414033   6.655090   7.999057   8.397061
    49  O    5.784022   5.175900   5.298794   6.670697   7.320136
    50  N    6.587123   5.622634   5.720613   7.474072   8.056489
                   31         32         33         34         35
    31  C    0.000000
    32  C    2.778826   0.000000
    33  H    3.391071   2.142155   0.000000
    34  C    1.380282   2.417893   3.867263   0.000000
    35  H    1.084475   3.862747   4.307603   2.111437   0.000000
    36  C    2.412234   1.390293   3.388023   1.408339   3.379908
    37  H    3.864679   1.085879   2.472289   3.401077   4.948491
    38  O    3.621209   2.412895   4.549269   2.355917   4.466319
    39  H    4.318625   2.456049   4.547142   3.173275   5.250956
    40  O    2.376958   3.665469   5.231426   1.364552   2.570544
    41  C    3.315290   4.322077   5.974012   2.338069   3.455407
    42  H    3.219510   4.535065   5.906110   2.627402   3.223400
    43  H    4.166707   5.323815   7.001664   3.237386   4.117235
    44  H    3.819022   4.076591   5.925841   2.647488   4.209418
    45  C    5.405908   6.556261   4.879557   6.732501   5.336158
    46  H    5.275691   6.117380   4.339176   6.536017   5.358260
    47  H    6.381507   7.623896   5.930001   7.729097   6.214940
    48  O    8.743531   9.425863   8.078007   9.730349   8.732764
    49  O    7.160940   8.303773   7.260526   8.155959   6.992511
    50  N    8.099755   9.115017   7.859687   9.146156   7.961988
                   36         37         38         39         40
    36  C    0.000000
    37  H    2.143710   0.000000
    38  O    1.351651   2.671793   0.000000
    39  H    1.909915   2.295292   0.965947   0.000000
    40  O    2.404157   4.543528   2.713088   3.672330   0.000000
    41  C    3.054950   5.085002   3.034660   3.935627   1.427179
    42  H    3.471785   5.361272   3.736079   4.579632   2.078407
    43  H    4.000518   6.065718   3.799100   4.696919   2.025837
    44  H    2.829677   4.646028   2.444559   3.221068   2.086676
    45  C    7.236213   7.254319   8.587531   8.950065   7.746956
    46  H    6.902480   6.741064   8.242224   8.537229   7.636102
    47  H    8.284355   8.318664   9.635883  10.013313   8.690012
    48  O   10.050410   9.894059  11.153175  11.399541  10.569239
    49  O    8.689476   8.946868   9.786686  10.177966   8.837147
    50  N    9.620454   9.701197  10.753536  11.094886   9.902290
                   41         42         43         44         45
    41  C    0.000000
    42  H    1.094037   0.000000
    43  H    1.088599   1.782143   0.000000
    44  H    1.091565   1.788044   1.780243   0.000000
    45  C    8.549025   8.073676   9.364020   9.047744   0.000000
    46  H    8.324388   7.805320   9.213039   8.721063   1.089865
    47  H    9.447140   8.909545  10.230198   9.984816   1.090312
    48  O   11.869517  11.890125  12.481657  12.371817   6.020087
    49  O   10.145492  10.175230  10.664522  10.753320   5.288508
    50  N   11.185111  11.164508  11.748326  11.769277   5.455893
                   46         47         48         49         50
    46  H    0.000000
    47  H    1.771744   0.000000
    48  O    6.822435   6.222491   0.000000
    49  O    6.184141   5.645060   2.151071   0.000000
    50  N    6.365064   5.639825   1.212133   1.207144   0.000000
 Stoichiometry    C21H20NO8(2)
 Framework group  C1[X(C21H20NO8)]
 Deg. of freedom   144
 Full point group                 C1      NOp   1
 Largest Abelian subgroup         C1      NOp   1
 Largest concise Abelian subgroup C1      NOp   1
                         Standard orientation:                         
 ---------------------------------------------------------------------
 Center     Atomic      Atomic             Coordinates (Angstroms)
 Number     Number       Type             X           Y           Z
 ---------------------------------------------------------------------
      1          6           0        2.171164    1.304693    0.443851
      2          1           0        1.803269    2.247282    0.047782
      3          6           0        1.459923    0.669425    1.383926
      4          1           0        1.789602   -0.252754    1.852999
      5          6           0        0.168990    1.163253    1.908970
      6          8           0       -0.415538    0.533023    2.763964
      7          6           0        3.463577    0.893451   -0.114721
      8          6           0        4.323383    1.877681   -0.608559
      9          6           0        3.945704   -0.418877   -0.166253
     10          6           0        5.585216    1.571517   -1.098596
     11          1           0        3.994543    2.910568   -0.596195
     12          6           0        5.189547   -0.768635   -0.661268
     13          1           0        4.966436   -1.041929    5.350106
     14          6           0        6.030094    0.254658   -1.129476
     15          1           0        6.229624    2.360814   -1.472924
     16          8           0        7.229117   -0.123724   -1.613413
     17          1           0        7.722093    0.647547   -1.923485
     18          8           0        5.537363   -2.074514   -0.751736
     19          6           0        6.511875   -2.485750    0.217619
     20          1           0        6.130943   -2.313695    1.226052
     21          1           0        6.664391   -3.550830    0.057991
     22          1           0        7.451084   -1.951277    0.069150
     23          6           0       -2.910993    1.007235    0.656737
     24          1           0       -2.570316    1.062485    1.687841
     25          6           0       -2.185039    1.601672   -0.303806
     26          1           0       -2.474468    1.562077   -1.349590
     27          6           0       -0.937961    2.341944   -0.059606
     28          8           0       -0.332066    2.849897   -0.981669
     29          6           0       -4.146473    0.250195    0.466315
     30          6           0       -4.750602   -0.343236    1.577347
     31          6           0       -4.758841    0.092748   -0.787658
     32          6           0       -5.920652   -1.080532    1.447400
     33          1           0       -4.294349   -0.234305    2.555491
     34          6           0       -5.920067   -0.639701   -0.929967
     35          1           0       -4.332956    0.531498   -1.683318
     36          6           0       -6.511969   -1.238343    0.199059
     37          1           0       -6.375861   -1.546638    2.316114
     38          8           0       -7.639962   -1.955412   -0.001952
     39          1           0       -7.949767   -2.322066    0.836284
     40          8           0       -6.470536   -0.811955   -2.166622
     41          6           0       -7.666641   -0.061135   -2.372640
     42          1           0       -7.466526    1.009408   -2.268678
     43          1           0       -7.992785   -0.272289   -3.389543
     44          1           0       -8.446602   -0.361224   -1.670414
     45          6           0       -0.408344    2.468129    1.369789
     46          1           0       -1.206308    2.771397    2.047349
     47          1           0        0.357100    3.244531    1.361072
     48          8           0        3.441202   -2.158680    1.246968
     49          8           0        2.136373   -1.805815   -0.426356
     50          7           0        3.103126   -1.555072    0.251665
 ---------------------------------------------------------------------
 Rotational constants (GHZ):           0.3161017           0.0511464           0.0497338
 Standard basis: 6-311G(d) (5D, 7F)
 There are   630 symmetry adapted cartesian basis functions of A   symmetry.
 There are   600 symmetry adapted basis functions of A   symmetry.
   600 basis functions,  1060 primitive gaussians,   630 cartesian basis functions
   109 alpha electrons      108 beta electrons
       nuclear repulsion energy      2720.4777898714 Hartrees.
 NAtoms=   50 NActive=   50 NUniq=   50 SFac= 1.00D+00 NAtFMM=   60 NAOKFM=F Big=F
 Integral buffers will be    131072 words long.
 Raffenetti 2 integral format.
 Two-electron integral symmetry is turned on.
 Force inversion solution in PCM.
 Using the following non-standard input for PCM:
 Eps=7
 EpsInf=1.85341
 HbondAcidity=0
 HbondBasicity=0.48
 SurfaceTensionAtInterface=60.62
 CarbonAromaticity=0
 ElectronegativeHalogenicity=0
 --- end of non-standard input.
 Force inversion solution in PCM.
 ------------------------------------------------------------------------------
 Polarizable Continuum Model (PCM)
 =================================
 Model                : PCM.
 Atomic radii         : SMD-Coulomb.
 Polarization charges : Total charges.
 Charge compensation  : None.
 Solution method      : Matrix inversion.
 Cavity type          : VdW (van der Waals Surface) (Alpha=1.000).
 Cavity algorithm     : GePol (No added spheres)
                        Default sphere list used, NSphG=   50.
                        Lebedev-Laikov grids with approx.  5.0 points / Ang**2.
                        Smoothing algorithm: York/Karplus (Gamma=1.0000).
                        Polarization charges: spherical gaussians, with
                                              point-specific exponents (IZeta= 3).
                        Self-potential: point-specific (ISelfS= 7).
                        Self-field    : sphere-specific E.n sum rule (ISelfD= 2).
 1st derivatives      : Analytical E(r).r(x)/FMM algorithm (CHGder, D1EAlg=3).
                        Cavity 1st derivative terms included.
 2nd derivatives      : Analytical E(r).r(xy)/FMM algorithm (CHGder, D2EAlg=3).
                        Cavity 2nd derivative terms included.
 Solvent              : Generic,
                        Eps                           =   7.000000
                        Eps(infinity)                 =   1.853410
                        RSolv                         =   0.000000 Ang.
                        Molar volume                  =   0.000000 cm**3/mol
                        Thermal expansion coefficient =   0.000000 K**-1
                        Absolute temperature          = 298.150000 K
                        Numeral density               =   0.000000 Ang**-3
                        Hydrogen bond acidity         =   0.000000
                        Hydrogen bond basicity        =   0.480000
                        Surface tension at interface  =  60.620000 (cal/mol)*Ang**-2
                        Carbon aromaticity            =   0.000000
                        Electronegative halogenicity  =   0.000000
 ------------------------------------------------------------------------------
 Separa: There are  2 disjoint cavities,
 ------------------------------------------------------------------------------
 Atomic radii for non-electrostatic terms: SMD-CDS.
 ------------------------------------------------------------------------------
 Separa: There are  2 disjoint cavities,
 Nuclear repulsion after PCM non-electrostatic terms =     2720.4744023994 Hartrees.
 One-electron integrals computed using PRISM.
 NBasis=   600 RedAO= T EigKep=  1.31D-04  NBF=   600
 NBsUse=   600 1.00D-06 EigRej= -1.00D+00 NBFU=   600
 ExpMin= 1.03D-01 ExpMax= 8.59D+03 ExpMxC= 1.30D+03 IAcc=3 IRadAn=         5 AccDes= 0.00D+00
 Harris functional with IExCor= 1009 and IRadAn=       5 diagonalized for initial guess.
 HarFok:  IExCor= 1009 AccDes= 0.00D+00 IRadAn=         5 IDoV= 1 UseB2=F ITyADJ=14
 ICtDFT=  3500011 ScaDFX=  1.000000  1.000000  1.000000  1.000000
 FoFCou: FMM=F IPFlag=           0 FMFlag=      100000 FMFlg1=           0
         NFxFlg=           0 DoJE=T BraDBF=F KetDBF=T FulRan=T
         wScrn=  0.000000 ICntrl=       500 IOpCl=  0 I1Cent=   200000004 NGrid=           0
         NMat0=    1 NMatS0=      1 NMatT0=    0 NMatD0=    1 NMtDS0=    0 NMtDT0=    0
 Petite list used in FoFCou.
 Initial guess <Sx>= 0.0000 <Sy>= 0.0000 <Sz>= 0.5000 <S**2>= 0.7500 S= 0.5000
 Inv3:  Mode=1 IEnd=    51518208.
 Iteration    1 A*A^-1 deviation from unit magnitude is 3.33D-15 for   3202.
 Iteration    1 A*A^-1 deviation from orthogonality  is 2.33D-15 for   2365   1746.
 Iteration    1 A^-1*A deviation from unit magnitude is 3.44D-15 for   3735.
 Iteration    1 A^-1*A deviation from orthogonality  is 2.44D-15 for   3882    218.
 Gradient too large for Newton-Raphson -- use scaled steepest descent instead.
     Minimum is close to point  3 DX= -2.41D-02 DF= -1.68D-03 DXR=  5.06D-02 DFR=  2.56D-03 which will be used.
 Gradient too large for Newton-Raphson -- use scaled steepest descent instead.
 Gradient too large for Newton-Raphson -- use scaled steepest descent instead.
 Gradient too large for Newton-Raphson -- use scaled steepest descent instead.
     Minimum is close to point  2 DX=  6.00D-03 DF= -2.33D-07 DXR=  1.19D-02 DFR=  1.41D-04 which will be used.
 Gradient too large for Newton-Raphson -- use scaled steepest descent instead.
 Gradient too large for Newton-Raphson -- use scaled steepest descent instead.
     Accept linear search using points  1 and  2.
 LinEq1:  Iter=  0 NonCon=     1 RMS=3.80D-05 Max=3.91D-03 NDo=     1
 AX will form     1 AO Fock derivatives at one time.
 LinEq1:  Iter=  1 NonCon=     1 RMS=1.07D-05 Max=3.76D-04 NDo=     1
 LinEq1:  Iter=  2 NonCon=     1 RMS=7.50D-06 Max=6.41D-04 NDo=     1
 LinEq1:  Iter=  3 NonCon=     1 RMS=1.21D-05 Max=1.40D-03 NDo=     1
 LinEq1:  Iter=  4 NonCon=     1 RMS=6.57D-06 Max=3.33D-04 NDo=     1
 LinEq1:  Iter=  5 NonCon=     1 RMS=4.18D-06 Max=3.17D-04 NDo=     1
 LinEq1:  Iter=  6 NonCon=     1 RMS=2.88D-06 Max=2.15D-04 NDo=     1
 LinEq1:  Iter=  7 NonCon=     1 RMS=1.63D-06 Max=8.96D-05 NDo=     1
 LinEq1:  Iter=  8 NonCon=     1 RMS=1.08D-06 Max=5.77D-05 NDo=     1
 LinEq1:  Iter=  9 NonCon=     1 RMS=6.20D-07 Max=2.81D-05 NDo=     1
 LinEq1:  Iter= 10 NonCon=     1 RMS=3.45D-07 Max=2.00D-05 NDo=     1
 LinEq1:  Iter= 11 NonCon=     1 RMS=1.80D-07 Max=1.40D-05 NDo=     1
 LinEq1:  Iter= 12 NonCon=     1 RMS=1.22D-07 Max=1.15D-05 NDo=     1
 LinEq1:  Iter= 13 NonCon=     1 RMS=7.24D-08 Max=5.57D-06 NDo=     1
 LinEq1:  Iter= 14 NonCon=     1 RMS=4.22D-08 Max=2.34D-06 NDo=     1
 LinEq1:  Iter= 15 NonCon=     1 RMS=2.20D-08 Max=1.03D-06 NDo=     1
 LinEq1:  Iter= 16 NonCon=     1 RMS=1.12D-08 Max=7.43D-07 NDo=     1
 LinEq1:  Iter= 17 NonCon=     1 RMS=6.45D-09 Max=4.64D-07 NDo=     1
 LinEq1:  Iter= 18 NonCon=     0 RMS=4.22D-09 Max=2.33D-07 NDo=     1
 Linear equations converged to 3.266D-08 3.266D-07 after    18 iterations.
     Accept linear search using points  1 and  2.
     Minimum is close to point  2 DX= -1.06D-03 DF= -9.80D-11 DXR=  1.06D-03 DFR=  1.12D-06 which will be used.
 LinEq1:  Iter=  0 NonCon=     1 RMS=1.78D-07 Max=1.55D-05 NDo=     1
 LinEq1:  Iter=  1 NonCon=     1 RMS=3.45D-07 Max=2.84D-05 NDo=     1
 LinEq1:  Iter=  2 NonCon=     1 RMS=2.55D-07 Max=1.38D-05 NDo=     1
 LinEq1:  Iter=  3 NonCon=     1 RMS=1.94D-07 Max=1.40D-05 NDo=     1
 LinEq1:  Iter=  4 NonCon=     1 RMS=6.70D-08 Max=4.20D-06 NDo=     1
 LinEq1:  Iter=  5 NonCon=     1 RMS=3.58D-08 Max=2.09D-06 NDo=     1
 LinEq1:  Iter=  6 NonCon=     1 RMS=1.86D-08 Max=1.47D-06 NDo=     1
 LinEq1:  Iter=  7 NonCon=     1 RMS=1.59D-08 Max=1.18D-06 NDo=     1
 LinEq1:  Iter=  8 NonCon=     1 RMS=8.45D-09 Max=4.11D-07 NDo=     1
 LinEq1:  Iter=  9 NonCon=     1 RMS=5.19D-09 Max=2.47D-07 NDo=     1
 LinEq1:  Iter= 10 NonCon=     1 RMS=2.31D-09 Max=1.12D-07 NDo=     1
 LinEq1:  Iter= 11 NonCon=     1 RMS=1.46D-09 Max=1.02D-07 NDo=     1
 LinEq1:  Iter= 12 NonCon=     1 RMS=8.10D-10 Max=6.65D-08 NDo=     1
 LinEq1:  Iter= 13 NonCon=     1 RMS=5.58D-10 Max=4.73D-08 NDo=     1
 LinEq1:  Iter= 14 NonCon=     1 RMS=3.36D-10 Max=1.86D-08 NDo=     1
 LinEq1:  Iter= 15 NonCon=     1 RMS=1.93D-10 Max=1.08D-08 NDo=     1
 LinEq1:  Iter= 16 NonCon=     1 RMS=1.26D-10 Max=7.88D-09 NDo=     1
 LinEq1:  Iter= 17 NonCon=     1 RMS=7.24D-11 Max=7.90D-09 NDo=     1
 LinEq1:  Iter= 18 NonCon=     0 RMS=4.06D-11 Max=2.70D-09 NDo=     1
 Linear equations converged to 6.499D-10 6.499D-09 after    18 iterations.
 Incorrect curvature in search direction -- initial direction reversed.
 QCLLim is confused:  Bigger=T Turned=T
 NLin=  3 IMin12=  1  2 I12=  0  2 IX=  1 XLMin= 0.000D+00 XLMax= 0.000D+00
 X = 0.000D+00 1.000D+00 2.000D+00
 DE= 0.000D+00 7.094D-11 1.146D-10
     Accept linear search using points  1 and  2.
 Restarting incremental Fock formation.
 LinEq1:  Iter=  0 NonCon=     1 RMS=2.12D-07 Max=2.23D-05 NDo=     1
 LinEq1:  Iter=  1 NonCon=     1 RMS=3.30D-07 Max=3.53D-05 NDo=     1
 LinEq1:  Iter=  2 NonCon=     1 RMS=2.41D-07 Max=1.36D-05 NDo=     1
 LinEq1:  Iter=  3 NonCon=     1 RMS=1.92D-07 Max=1.40D-05 NDo=     1
 LinEq1:  Iter=  4 NonCon=     1 RMS=6.52D-08 Max=4.21D-06 NDo=     1
 LinEq1:  Iter=  5 NonCon=     1 RMS=3.55D-08 Max=2.10D-06 NDo=     1
 LinEq1:  Iter=  6 NonCon=     1 RMS=1.89D-08 Max=1.50D-06 NDo=     1
 LinEq1:  Iter=  7 NonCon=     1 RMS=1.57D-08 Max=1.14D-06 NDo=     1
 LinEq1:  Iter=  8 NonCon=     1 RMS=8.38D-09 Max=5.24D-07 NDo=     1
 LinEq1:  Iter=  9 NonCon=     1 RMS=5.17D-09 Max=2.64D-07 NDo=     1
 LinEq1:  Iter= 10 NonCon=     1 RMS=2.19D-09 Max=1.05D-07 NDo=     1
 LinEq1:  Iter= 11 NonCon=     1 RMS=1.44D-09 Max=1.01D-07 NDo=     1
 LinEq1:  Iter= 12 NonCon=     1 RMS=7.35D-10 Max=5.56D-08 NDo=     1
 LinEq1:  Iter= 13 NonCon=     1 RMS=5.19D-10 Max=4.55D-08 NDo=     1
 LinEq1:  Iter= 14 NonCon=     1 RMS=3.15D-10 Max=1.86D-08 NDo=     1
 LinEq1:  Iter= 15 NonCon=     1 RMS=1.87D-10 Max=1.00D-08 NDo=     1
 LinEq1:  Iter= 16 NonCon=     0 RMS=1.20D-10 Max=7.29D-09 NDo=     1
 Linear equations converged to 7.564D-10 7.564D-09 after    16 iterations.
 Incorrect curvature in search direction -- initial direction reversed.
 LinEq1:  Iter=  0 NonCon=     1 RMS=8.56D-07 Max=9.46D-05 NDo=     1
 LinEq1:  Iter=  1 NonCon=     1 RMS=2.28D-06 Max=1.72D-04 NDo=     1
 LinEq1:  Iter=  2 NonCon=     1 RMS=5.83D-06 Max=6.29D-04 NDo=     1
 LinEq1:  Iter=  3 NonCon=     1 RMS=9.06D-06 Max=7.29D-04 NDo=     1
 LinEq1:  Iter=  4 NonCon=     1 RMS=1.03D-05 Max=6.92D-04 NDo=     1
 LinEq1:  Iter=  5 NonCon=     1 RMS=9.79D-06 Max=6.16D-04 NDo=     1
 LinEq1:  Iter=  6 NonCon=     1 RMS=3.80D-06 Max=3.28D-04 NDo=     1
 LinEq1:  Iter=  7 NonCon=     1 RMS=2.08D-06 Max=1.20D-04 NDo=     1
 LinEq1:  Iter=  8 NonCon=     1 RMS=1.11D-06 Max=8.28D-05 NDo=     1
 LinEq1:  Iter=  9 NonCon=     1 RMS=7.46D-07 Max=5.90D-05 NDo=     1
 LinEq1:  Iter= 10 NonCon=     1 RMS=5.85D-07 Max=3.68D-05 NDo=     1
 LinEq1:  Iter= 11 NonCon=     1 RMS=2.72D-07 Max=1.32D-05 NDo=     1
 LinEq1:  Iter= 12 NonCon=     1 RMS=1.51D-07 Max=7.44D-06 NDo=     1
 LinEq1:  Iter= 13 NonCon=     1 RMS=8.22D-08 Max=5.57D-06 NDo=     1
 LinEq1:  Iter= 14 NonCon=     1 RMS=4.78D-08 Max=3.41D-06 NDo=     1
 LinEq1:  Iter= 15 NonCon=     1 RMS=2.99D-08 Max=2.69D-06 NDo=     1
 LinEq1:  Iter= 16 NonCon=     1 RMS=1.95D-08 Max=1.27D-06 NDo=     1
 LinEq1:  Iter= 17 NonCon=     1 RMS=1.11D-08 Max=5.39D-07 NDo=     1
 LinEq1:  Iter= 18 NonCon=     1 RMS=7.10D-09 Max=3.71D-07 NDo=     1
 LinEq1:  Iter= 19 NonCon=     1 RMS=4.02D-09 Max=4.02D-07 NDo=     1
 LinEq1:  Iter= 20 NonCon=     1 RMS=2.49D-09 Max=1.72D-07 NDo=     1
 LinEq1:  Iter= 21 NonCon=     1 RMS=1.06D-09 Max=7.33D-08 NDo=     1
 LinEq1:  Iter= 22 NonCon=     1 RMS=6.55D-10 Max=4.11D-08 NDo=     1
 LinEq1:  Iter= 23 NonCon=     0 RMS=3.17D-10 Max=2.25D-08 NDo=     1
 Linear equations converged to 2.723D-09 2.723D-08 after    23 iterations.
 LinEq1:  Iter=  0 NonCon=     1 RMS=9.00D-07 Max=1.00D-04 NDo=     1
 LinEq1:  Iter=  1 NonCon=     1 RMS=1.24D-06 Max=1.17D-04 NDo=     1
 LinEq1:  Iter=  2 NonCon=     1 RMS=9.76D-07 Max=7.32D-05 NDo=     1
 LinEq1:  Iter=  3 NonCon=     1 RMS=4.91D-07 Max=2.44D-05 NDo=     1
 LinEq1:  Iter=  4 NonCon=     1 RMS=2.50D-07 Max=1.72D-05 NDo=     1
 LinEq1:  Iter=  5 NonCon=     1 RMS=1.09D-07 Max=4.15D-06 NDo=     1
 LinEq1:  Iter=  6 NonCon=     1 RMS=5.31D-08 Max=4.26D-06 NDo=     1
 LinEq1:  Iter=  7 NonCon=     1 RMS=4.35D-08 Max=3.93D-06 NDo=     1
 LinEq1:  Iter=  8 NonCon=     1 RMS=2.57D-08 Max=1.87D-06 NDo=     1
 LinEq1:  Iter=  9 NonCon=     1 RMS=1.83D-08 Max=1.13D-06 NDo=     1
 LinEq1:  Iter= 10 NonCon=     1 RMS=8.38D-09 Max=5.07D-07 NDo=     1
 LinEq1:  Iter= 11 NonCon=     1 RMS=5.48D-09 Max=4.11D-07 NDo=     1
 LinEq1:  Iter= 12 NonCon=     1 RMS=3.55D-09 Max=3.43D-07 NDo=     1
 LinEq1:  Iter= 13 NonCon=     1 RMS=2.04D-09 Max=1.30D-07 NDo=     1
 LinEq1:  Iter= 14 NonCon=     1 RMS=1.16D-09 Max=5.22D-08 NDo=     1
 LinEq1:  Iter= 15 NonCon=     1 RMS=6.29D-10 Max=3.75D-08 NDo=     1
 LinEq1:  Iter= 16 NonCon=     1 RMS=4.48D-10 Max=3.64D-08 NDo=     1
 LinEq1:  Iter= 17 NonCon=     0 RMS=2.85D-10 Max=2.46D-08 NDo=     1
 Linear equations converged to 3.407D-09 3.407D-08 after    17 iterations.
     Accept linear search using points  1 and  2.
 LinEq1:  Iter=  0 NonCon=     1 RMS=3.89D-07 Max=4.69D-05 NDo=     1
 LinEq1:  Iter=  1 NonCon=     1 RMS=1.55D-06 Max=1.08D-04 NDo=     1
 LinEq1:  Iter=  2 NonCon=     1 RMS=1.07D-06 Max=7.39D-05 NDo=     1
 LinEq1:  Iter=  3 NonCon=     1 RMS=6.26D-07 Max=4.00D-05 NDo=     1
 LinEq1:  Iter=  4 NonCon=     1 RMS=2.73D-07 Max=1.70D-05 NDo=     1
 LinEq1:  Iter=  5 NonCon=     1 RMS=1.39D-07 Max=6.29D-06 NDo=     1
 LinEq1:  Iter=  6 NonCon=     1 RMS=7.27D-08 Max=5.06D-06 NDo=     1
 LinEq1:  Iter=  7 NonCon=     1 RMS=5.51D-08 Max=5.00D-06 NDo=     1
 LinEq1:  Iter=  8 NonCon=     1 RMS=3.34D-08 Max=2.25D-06 NDo=     1
 LinEq1:  Iter=  9 NonCon=     1 RMS=2.08D-08 Max=1.14D-06 NDo=     1
 LinEq1:  Iter= 10 NonCon=     1 RMS=9.75D-09 Max=5.32D-07 NDo=     1
 LinEq1:  Iter= 11 NonCon=     1 RMS=5.47D-09 Max=4.12D-07 NDo=     1
 LinEq1:  Iter= 12 NonCon=     1 RMS=3.86D-09 Max=3.53D-07 NDo=     1
 LinEq1:  Iter= 13 NonCon=     1 RMS=2.25D-09 Max=1.42D-07 NDo=     1
 LinEq1:  Iter= 14 NonCon=     1 RMS=1.40D-09 Max=7.93D-08 NDo=     1
 LinEq1:  Iter= 15 NonCon=     1 RMS=7.72D-10 Max=4.12D-08 NDo=     1
 LinEq1:  Iter= 16 NonCon=     1 RMS=4.88D-10 Max=4.11D-08 NDo=     1
 LinEq1:  Iter= 17 NonCon=     1 RMS=3.13D-10 Max=2.95D-08 NDo=     1
 LinEq1:  Iter= 18 NonCon=     0 RMS=1.66D-10 Max=1.25D-08 NDo=     1
 Linear equations converged to 1.908D-09 1.908D-08 after    18 iterations.
 LinEq1:  Iter=  0 NonCon=     1 RMS=6.94D-08 Max=1.36D-05 NDo=     1
 LinEq1:  Iter=  1 NonCon=     1 RMS=3.44D-07 Max=3.75D-05 NDo=     1
 LinEq1:  Iter=  2 NonCon=     1 RMS=2.77D-07 Max=3.32D-05 NDo=     1
 LinEq1:  Iter=  3 NonCon=     1 RMS=1.42D-08 Max=1.30D-06 NDo=     1
 LinEq1:  Iter=  4 NonCon=     1 RMS=3.27D-10 Max=2.03D-08 NDo=     1
 LinEq1:  Iter=  5 NonCon=     1 RMS=2.98D-10 Max=3.95D-08 NDo=     1
 LinEq1:  Iter=  6 NonCon=     1 RMS=1.24D-10 Max=9.00D-09 NDo=     1
 LinEq1:  Iter=  7 NonCon=     1 RMS=1.01D-10 Max=9.50D-09 NDo=     1
 LinEq1:  Iter=  8 NonCon=     1 RMS=5.10D-11 Max=4.47D-09 NDo=     1
 LinEq1:  Iter=  9 NonCon=     1 RMS=4.16D-11 Max=3.62D-09 NDo=     1
 LinEq1:  Iter= 10 NonCon=     0 RMS=2.03D-11 Max=1.47D-09 NDo=     1
 Linear equations converged to 2.268D-10 2.268D-09 after    10 iterations.
 Error on total polarization charges =  0.04328
 SCF Done:  E(UM062X) =  -1468.34292211     a.u. after   14 cycles
            Convg  =    0.8084D-06                   153 Fock formations.
              S**2 =  0.7500                  -V/T =  2.0031
 <Sx>= 0.0000 <Sy>= 0.0000 <Sz>= 0.5000 <S**2>= 0.7500 S= 0.5000
 <L.S>=  0.00000000000    
 SMD-CDS (non-electrostatic) energy       (kcal/mol) =      -2.13
 (included in total energy above)
 Annihilation of the first spin contaminant:
 S**2 before annihilation     0.7500,   after     0.7500
 DoSCS=F DFT=T ScalE2(SS,OS)=  1.000000  1.000000
 Range of M.O.s used for correlation:     1   600
 NBasis=   600 NAE=   109 NBE=   108 NFC=     0 NFV=     0
 NROrb=    600 NOA=   109 NOB=   108 NVA=   491 NVB=   492

 **** Warning!!: The largest alpha MO coefficient is  0.16560826D+02


 **** Warning!!: The largest beta MO coefficient is  0.16561265D+02

 Symmetrizing basis deriv contribution to polar:
 IMax=3 JMax=2 DiffMx= 0.00D+00
 G2DrvN: will do    26 centers at a time, making    2 passes.
 Calling FoFCou, ICntrl=  3107 FMM=F I1Cent=   0 AccDes= 0.00D+00.
 Calling FoFCou, ICntrl=  3107 FMM=F I1Cent=   0 AccDes= 0.00D+00.
 NEqPCM:  Using equilibrium solvation (IEInf=0, Eps=   7.0000, EpsInf=   1.8534)
 G2PCM: DoFxE=T DoFxN=T DoGrad=T DoDP/DQ/DG/TGxP=FFFF NFrqRd=   0 IEInf=0 SqF1=F DoCFld=F IF1Alg=4.
 Separa: There are  2 disjoint cavities,
 End of G2Drv F.D. properties file   721 does not exist.
 End of G2Drv F.D. properties file   722 does not exist.
 End of G2Drv F.D. properties file   788 does not exist.
          IDoAtm=11111111111111111111111111111111111111111111111111
 NEqPCM:  Using equilibrium solvation (IEInf=0, Eps=   7.0000, EpsInf=   1.8534)
          Differentiating once with respect to electric field.
                with respect to dipole field.
          Differentiating once with respect to nuclear coordinates.
 CalDSu exits because no D1Ps are significant.
          There are   153 degrees of freedom in the 1st order CPHF.  IDoFFX=6 NUNeed=     3.
    153 vectors produced by pass  0 Test12= 1.07D-13 1.00D-09 XBig12= 5.51D+02 7.50D+00.
 AX will form    50 AO Fock derivatives at one time.
    153 vectors produced by pass  1 Test12= 1.07D-13 1.00D-09 XBig12= 6.21D+01 1.38D+00.
    151 vectors produced by pass  2 Test12= 1.07D-13 1.00D-09 XBig12= 1.40D+00 9.03D-02.
    150 vectors produced by pass  3 Test12= 1.07D-13 1.00D-09 XBig12= 1.33D-02 6.39D-03.
    150 vectors produced by pass  4 Test12= 1.07D-13 1.00D-09 XBig12= 9.07D-05 6.74D-04.
    150 vectors produced by pass  5 Test12= 1.07D-13 1.00D-09 XBig12= 4.39D-07 3.94D-05.
    133 vectors produced by pass  6 Test12= 1.07D-13 1.00D-09 XBig12= 1.82D-09 3.74D-06.
     35 vectors produced by pass  7 Test12= 1.07D-13 1.00D-09 XBig12= 1.34D-11 3.20D-07.
      3 vectors produced by pass  8 Test12= 1.07D-13 1.00D-09 XBig12= 2.08D-13 5.17D-08.
      3 vectors produced by pass  9 Test12= 1.07D-13 1.00D-09 XBig12= 8.63D-15 1.27D-08.
      3 vectors produced by pass 10 Test12= 1.07D-13 1.00D-09 XBig12= 3.53D-15 3.53D-09.
      3 vectors produced by pass 11 Test12= 1.07D-13 1.00D-09 XBig12= 4.08D-15 2.36D-09.
      3 vectors produced by pass 12 Test12= 1.07D-13 1.00D-09 XBig12= 2.14D-15 2.80D-09.
      3 vectors produced by pass 13 Test12= 1.07D-13 1.00D-09 XBig12= 2.56D-15 2.05D-09.
      3 vectors produced by pass 14 Test12= 1.07D-13 1.00D-09 XBig12= 2.47D-15 2.70D-09.
      2 vectors produced by pass 15 Test12= 1.07D-13 1.00D-09 XBig12= 9.02D-16 1.27D-09.
 InvSVY:  IOpt=1 It=  1 EMax= 6.60D-15
 Solved reduced A of dimension  1098 with   153 vectors.
 Isotropic polarizability for W=    0.000000      358.12 Bohr**3.
 End of Minotr F.D. properties file   721 does not exist.
 End of Minotr F.D. properties file   722 does not exist.
 End of Minotr F.D. properties file   788 does not exist.

 **********************************************************************

            Population analysis using the SCF density.

 **********************************************************************

 Orbital symmetries:
 Alpha Orbitals:
       Occupied  (A) (A) (A) (A) (A) (A) (A) (A) (A) (A) (A) (A)
                 (A) (A) (A) (A) (A) (A) (A) (A) (A) (A) (A) (A)
                 (A) (A) (A) (A) (A) (A) (A) (A) (A) (A) (A) (A)
                 (A) (A) (A) (A) (A) (A) (A) (A) (A) (A) (A) (A)
                 (A) (A) (A) (A) (A) (A) (A) (A) (A) (A) (A) (A)
                 (A) (A) (A) (A) (A) (A) (A) (A) (A) (A) (A) (A)
                 (A) (A) (A) (A) (A) (A) (A) (A) (A) (A) (A) (A)
                 (A) (A) (A) (A) (A) (A) (A) (A) (A) (A) (A) (A)
                 (A) (A) (A) (A) (A) (A) (A) (A) (A) (A) (A) (A)
                 (A)
       Virtual   (A) (A) (A) (A) (A) (A) (A) (A) (A) (A) (A) (A)
                 (A) (A) (A) (A) (A) (A) (A) (A) (A) (A) (A) (A)
                 (A) (A) (A) (A) (A) (A) (A) (A) (A) (A) (A) (A)
                 (A) (A) (A) (A) (A) (A) (A) (A) (A) (A) (A) (A)
                 (A) (A) (A) (A) (A) (A) (A) (A) (A) (A) (A) (A)
                 (A) (A) (A) (A) (A) (A) (A) (A) (A) (A) (A) (A)
                 (A) (A) (A) (A) (A) (A) (A) (A) (A) (A) (A) (A)
                 (A) (A) (A) (A) (A) (A) (A) (A) (A) (A) (A) (A)
                 (A) (A) (A) (A) (A) (A) (A) (A) (A) (A) (A) (A)
                 (A) (A) (A) (A) (A) (A) (A) (A) (A) (A) (A) (A)
                 (A) (A) (A) (A) (A) (A) (A) (A) (A) (A) (A) (A)
                 (A) (A) (A) (A) (A) (A) (A) (A) (A) (A) (A) (A)
                 (A) (A) (A) (A) (A) (A) (A) (A) (A) (A) (A) (A)
                 (A) (A) (A) (A) (A) (A) (A) (A) (A) (A) (A) (A)
                 (A) (A) (A) (A) (A) (A) (A) (A) (A) (A) (A) (A)
                 (A) (A) (A) (A) (A) (A) (A) (A) (A) (A) (A) (A)
                 (A) (A) (A) (A) (A) (A) (A) (A) (A) (A) (A) (A)
                 (A) (A) (A) (A) (A) (A) (A) (A) (A) (A) (A) (A)
                 (A) (A) (A) (A) (A) (A) (A) (A) (A) (A) (A) (A)
                 (A) (A) (A) (A) (A) (A) (A) (A) (A) (A) (A) (A)
                 (A) (A) (A) (A) (A) (A) (A) (A) (A) (A) (A) (A)
                 (A) (A) (A) (A) (A) (A) (A) (A) (A) (A) (A) (A)
                 (A) (A) (A) (A) (A) (A) (A) (A) (A) (A) (A) (A)
                 (A) (A) (A) (A) (A) (A) (A) (A) (A) (A) (A) (A)
                 (A) (A) (A) (A) (A) (A) (A) (A) (A) (A) (A) (A)
                 (A) (A) (A) (A) (A) (A) (A) (A) (A) (A) (A) (A)
                 (A) (A) (A) (A) (A) (A) (A) (A) (A) (A) (A) (A)
                 (A) (A) (A) (A) (A) (A) (A) (A) (A) (A) (A) (A)
                 (A) (A) (A) (A) (A) (A) (A) (A) (A) (A) (A) (A)
                 (A) (A) (A) (A) (A) (A) (A) (A) (A) (A) (A) (A)
                 (A) (A) (A) (A) (A) (A) (A) (A) (A) (A) (A) (A)
                 (A) (A) (A) (A) (A) (A) (A) (A) (A) (A) (A) (A)
                 (A) (A) (A) (A) (A) (A) (A) (A) (A) (A) (A) (A)
                 (A) (A) (A) (A) (A) (A) (A) (A) (A) (A) (A) (A)
                 (A) (A) (A) (A) (A) (A) (A) (A) (A) (A) (A) (A)
                 (A) (A) (A) (A) (A) (A) (A) (A) (A) (A) (A) (A)
                 (A) (A) (A) (A) (A) (A) (A) (A) (A) (A) (A) (A)
                 (A) (A) (A) (A) (A) (A) (A) (A) (A) (A) (A) (A)
                 (A) (A) (A) (A) (A) (A) (A) (A) (A) (A) (A) (A)
                 (A) (A) (A) (A) (A) (A) (A) (A) (A) (A) (A) (A)
                 (A) (A) (A) (A) (A) (A) (A) (A) (A) (A) (A)
 Beta  Orbitals:
       Occupied  (A) (A) (A) (A) (A) (A) (A) (A) (A) (A) (A) (A)
                 (A) (A) (A) (A) (A) (A) (A) (A) (A) (A) (A) (A)
                 (A) (A) (A) (A) (A) (A) (A) (A) (A) (A) (A) (A)
                 (A) (A) (A) (A) (A) (A) (A) (A) (A) (A) (A) (A)
                 (A) (A) (A) (A) (A) (A) (A) (A) (A) (A) (A) (A)
                 (A) (A) (A) (A) (A) (A) (A) (A) (A) (A) (A) (A)
                 (A) (A) (A) (A) (A) (A) (A) (A) (A) (A) (A) (A)
                 (A) (A) (A) (A) (A) (A) (A) (A) (A) (A) (A) (A)
                 (A) (A) (A) (A) (A) (A) (A) (A) (A) (A) (A) (A)
       Virtual   (A) (A) (A) (A) (A) (A) (A) (A) (A) (A) (A) (A)
                 (A) (A) (A) (A) (A) (A) (A) (A) (A) (A) (A) (A)
                 (A) (A) (A) (A) (A) (A) (A) (A) (A) (A) (A) (A)
                 (A) (A) (A) (A) (A) (A) (A) (A) (A) (A) (A) (A)
                 (A) (A) (A) (A) (A) (A) (A) (A) (A) (A) (A) (A)
                 (A) (A) (A) (A) (A) (A) (A) (A) (A) (A) (A) (A)
                 (A) (A) (A) (A) (A) (A) (A) (A) (A) (A) (A) (A)
                 (A) (A) (A) (A) (A) (A) (A) (A) (A) (A) (A) (A)
                 (A) (A) (A) (A) (A) (A) (A) (A) (A) (A) (A) (A)
                 (A) (A) (A) (A) (A) (A) (A) (A) (A) (A) (A) (A)
                 (A) (A) (A) (A) (A) (A) (A) (A) (A) (A) (A) (A)
                 (A) (A) (A) (A) (A) (A) (A) (A) (A) (A) (A) (A)
                 (A) (A) (A) (A) (A) (A) (A) (A) (A) (A) (A) (A)
                 (A) (A) (A) (A) (A) (A) (A) (A) (A) (A) (A) (A)
                 (A) (A) (A) (A) (A) (A) (A) (A) (A) (A) (A) (A)
                 (A) (A) (A) (A) (A) (A) (A) (A) (A) (A) (A) (A)
                 (A) (A) (A) (A) (A) (A) (A) (A) (A) (A) (A) (A)
                 (A) (A) (A) (A) (A) (A) (A) (A) (A) (A) (A) (A)
                 (A) (A) (A) (A) (A) (A) (A) (A) (A) (A) (A) (A)
                 (A) (A) (A) (A) (A) (A) (A) (A) (A) (A) (A) (A)
                 (A) (A) (A) (A) (A) (A) (A) (A) (A) (A) (A) (A)
                 (A) (A) (A) (A) (A) (A) (A) (A) (A) (A) (A) (A)
                 (A) (A) (A) (A) (A) (A) (A) (A) (A) (A) (A) (A)
                 (A) (A) (A) (A) (A) (A) (A) (A) (A) (A) (A) (A)
                 (A) (A) (A) (A) (A) (A) (A) (A) (A) (A) (A) (A)
                 (A) (A) (A) (A) (A) (A) (A) (A) (A) (A) (A) (A)
                 (A) (A) (A) (A) (A) (A) (A) (A) (A) (A) (A) (A)
                 (A) (A) (A) (A) (A) (A) (A) (A) (A) (A) (A) (A)
                 (A) (A) (A) (A) (A) (A) (A) (A) (A) (A) (A) (A)
                 (A) (A) (A) (A) (A) (A) (A) (A) (A) (A) (A) (A)
                 (A) (A) (A) (A) (A) (A) (A) (A) (A) (A) (A) (A)
                 (A) (A) (A) (A) (A) (A) (A) (A) (A) (A) (A) (A)
                 (A) (A) (A) (A) (A) (A) (A) (A) (A) (A) (A) (A)
                 (A) (A) (A) (A) (A) (A) (A) (A) (A) (A) (A) (A)
                 (A) (A) (A) (A) (A) (A) (A) (A) (A) (A) (A) (A)
                 (A) (A) (A) (A) (A) (A) (A) (A) (A) (A) (A) (A)
                 (A) (A) (A) (A) (A) (A) (A) (A) (A) (A) (A) (A)
                 (A) (A) (A) (A) (A) (A) (A) (A) (A) (A) (A) (A)
                 (A) (A) (A) (A) (A) (A) (A) (A) (A) (A) (A) (A)
                 (A) (A) (A) (A) (A) (A) (A) (A) (A) (A) (A) (A)
                 (A) (A) (A) (A) (A) (A) (A) (A) (A) (A) (A) (A)
 The electronic state is 2-A.
 Alpha  occ. eigenvalues --  -19.66919 -19.66802 -19.66661 -19.65857 -19.65144
 Alpha  occ. eigenvalues --  -19.63420 -19.61714 -19.61183 -15.00804 -10.63946
 Alpha  occ. eigenvalues --  -10.63507 -10.63104 -10.62532 -10.61555 -10.61469
 Alpha  occ. eigenvalues --  -10.59975 -10.58103 -10.57877 -10.57437 -10.57254
 Alpha  occ. eigenvalues --  -10.56648 -10.56441 -10.56242 -10.55517 -10.55403
 Alpha  occ. eigenvalues --  -10.55085 -10.54835 -10.54761 -10.54698 -10.54228
 Alpha  occ. eigenvalues --   -1.38632  -1.21811  -1.20457  -1.19862  -1.19019
 Alpha  occ. eigenvalues --   -1.17692  -1.17361  -1.16983  -1.00441  -0.97310
 Alpha  occ. eigenvalues --   -0.92484  -0.91393  -0.91059  -0.87491  -0.85724
 Alpha  occ. eigenvalues --   -0.85226  -0.82722  -0.81056  -0.78665  -0.77882
 Alpha  occ. eigenvalues --   -0.74895  -0.74361  -0.71106  -0.70654  -0.69743
 Alpha  occ. eigenvalues --   -0.66743  -0.66739  -0.65192  -0.63596  -0.62819
 Alpha  occ. eigenvalues --   -0.61563  -0.60788  -0.60362  -0.59526  -0.58784
 Alpha  occ. eigenvalues --   -0.58486  -0.57823  -0.56529  -0.55515  -0.55338
 Alpha  occ. eigenvalues --   -0.54553  -0.54031  -0.53092  -0.52638  -0.52131
 Alpha  occ. eigenvalues --   -0.51279  -0.50764  -0.50527  -0.50171  -0.49690
 Alpha  occ. eigenvalues --   -0.49291  -0.48519  -0.47441  -0.47330  -0.46471
 Alpha  occ. eigenvalues --   -0.45681  -0.45456  -0.44662  -0.44395  -0.44112
 Alpha  occ. eigenvalues --   -0.43425  -0.43192  -0.42569  -0.42440  -0.40400
 Alpha  occ. eigenvalues --   -0.39840  -0.39523  -0.39018  -0.36572  -0.36319
 Alpha  occ. eigenvalues --   -0.35793  -0.35301  -0.34952  -0.33980  -0.32345
 Alpha  occ. eigenvalues --   -0.32171  -0.30726  -0.28380  -0.26804
 Alpha virt. eigenvalues --   -0.05211  -0.03650  -0.02679   0.00966   0.02290
 Alpha virt. eigenvalues --    0.03662   0.05359   0.06894   0.07469   0.08872
 Alpha virt. eigenvalues --    0.09903   0.10068   0.10378   0.11029   0.11824
 Alpha virt. eigenvalues --    0.12039   0.12101   0.12966   0.13918   0.14809
 Alpha virt. eigenvalues --    0.15568   0.16059   0.16152   0.16339   0.16713
 Alpha virt. eigenvalues --    0.17606   0.18376   0.18565   0.20082   0.20436
 Alpha virt. eigenvalues --    0.20647   0.21243   0.21995   0.22578   0.24581
 Alpha virt. eigenvalues --    0.26108   0.26545   0.26944   0.27509   0.28911
 Alpha virt. eigenvalues --    0.29948   0.30717   0.31346   0.31879   0.32123
 Alpha virt. eigenvalues --    0.32904   0.33354   0.33907   0.34388   0.34733
 Alpha virt. eigenvalues --    0.35026   0.35737   0.35992   0.37115   0.37662
 Alpha virt. eigenvalues --    0.37937   0.38985   0.39523   0.39855   0.40076
 Alpha virt. eigenvalues --    0.40718   0.41011   0.41453   0.41858   0.42047
 Alpha virt. eigenvalues --    0.42800   0.43119   0.43200   0.43728   0.44243
 Alpha virt. eigenvalues --    0.44525   0.45088   0.45489   0.47017   0.47200
 Alpha virt. eigenvalues --    0.47470   0.47846   0.48211   0.48427   0.48779
 Alpha virt. eigenvalues --    0.49402   0.49457   0.50139   0.50200   0.50837
 Alpha virt. eigenvalues --    0.51257   0.51478   0.51877   0.52958   0.53332
 Alpha virt. eigenvalues --    0.53596   0.54101   0.55388   0.56350   0.56908
 Alpha virt. eigenvalues --    0.57328   0.57497   0.58708   0.58807   0.59613
 Alpha virt. eigenvalues --    0.59965   0.60767   0.61089   0.61907   0.62250
 Alpha virt. eigenvalues --    0.62810   0.63258   0.63524   0.64134   0.64547
 Alpha virt. eigenvalues --    0.64933   0.65209   0.65655   0.66200   0.66581
 Alpha virt. eigenvalues --    0.66718   0.67241   0.67638   0.68176   0.68258
 Alpha virt. eigenvalues --    0.68471   0.69173   0.69609   0.70562   0.70836
 Alpha virt. eigenvalues --    0.71448   0.71833   0.73065   0.73375   0.73876
 Alpha virt. eigenvalues --    0.75251   0.75799   0.76536   0.77061   0.78885
 Alpha virt. eigenvalues --    0.79934   0.80070   0.80921   0.81277   0.81929
 Alpha virt. eigenvalues --    0.82396   0.83493   0.83938   0.84172   0.84529
 Alpha virt. eigenvalues --    0.85287   0.85519   0.86026   0.86686   0.87109
 Alpha virt. eigenvalues --    0.87551   0.88137   0.89388   0.89643   0.89981
 Alpha virt. eigenvalues --    0.90210   0.91151   0.91977   0.93232   0.94036
 Alpha virt. eigenvalues --    0.94819   0.94883   0.96080   0.97075   0.97433
 Alpha virt. eigenvalues --    0.97809   0.98354   1.00034   1.00589   1.01231
 Alpha virt. eigenvalues --    1.01503   1.01870   1.02842   1.03206   1.03758
 Alpha virt. eigenvalues --    1.04590   1.05424   1.06598   1.07232   1.08521
 Alpha virt. eigenvalues --    1.09206   1.10179   1.10759   1.11764   1.12631
 Alpha virt. eigenvalues --    1.13064   1.14288   1.15724   1.16023   1.17691
 Alpha virt. eigenvalues --    1.18140   1.19058   1.19876   1.20437   1.21333
 Alpha virt. eigenvalues --    1.22070   1.24130   1.25138   1.25684   1.26238
 Alpha virt. eigenvalues --    1.27600   1.28437   1.29354   1.29439   1.30692
 Alpha virt. eigenvalues --    1.31682   1.32230   1.33843   1.34715   1.36977
 Alpha virt. eigenvalues --    1.38718   1.41104   1.41476   1.42844   1.43898
 Alpha virt. eigenvalues --    1.46040   1.47359   1.48981   1.50146   1.50434
 Alpha virt. eigenvalues --    1.51630   1.52989   1.53737   1.54711   1.55128
 Alpha virt. eigenvalues --    1.55954   1.56768   1.56915   1.57524   1.58148
 Alpha virt. eigenvalues --    1.58614   1.59102   1.59822   1.60800   1.60980
 Alpha virt. eigenvalues --    1.61638   1.62298   1.63406   1.63633   1.64992
 Alpha virt. eigenvalues --    1.65962   1.66400   1.67146   1.68821   1.71070
 Alpha virt. eigenvalues --    1.71227   1.72088   1.72442   1.73891   1.74343
 Alpha virt. eigenvalues --    1.75226   1.75429   1.76374   1.77051   1.78147
 Alpha virt. eigenvalues --    1.78975   1.79674   1.80576   1.81063   1.82664
 Alpha virt. eigenvalues --    1.82889   1.84094   1.84377   1.84654   1.86666
 Alpha virt. eigenvalues --    1.87352   1.88576   1.89219   1.90065   1.91738
 Alpha virt. eigenvalues --    1.93168   1.94820   1.94857   1.95916   1.98457
 Alpha virt. eigenvalues --    1.99761   2.00567   2.03314   2.03861   2.04602
 Alpha virt. eigenvalues --    2.07026   2.07720   2.09037   2.10732   2.11668
 Alpha virt. eigenvalues --    2.12482   2.13208   2.15263   2.16869   2.17135
 Alpha virt. eigenvalues --    2.17911   2.20031   2.20978   2.21228   2.23830
 Alpha virt. eigenvalues --    2.26746   2.28422   2.28577   2.30327   2.30986
 Alpha virt. eigenvalues --    2.31638   2.33573   2.34429   2.34859   2.35301
 Alpha virt. eigenvalues --    2.36290   2.37277   2.37684   2.39718   2.40652
 Alpha virt. eigenvalues --    2.44376   2.44835   2.45082   2.45976   2.46601
 Alpha virt. eigenvalues --    2.49004   2.50351   2.51393   2.53332   2.54920
 Alpha virt. eigenvalues --    2.57791   2.57819   2.58761   2.61680   2.65336
 Alpha virt. eigenvalues --    2.66781   2.68092   2.71098   2.71108   2.72116
 Alpha virt. eigenvalues --    2.72580   2.73366   2.73664   2.75296   2.78915
 Alpha virt. eigenvalues --    2.80338   2.82489   2.83865   2.84405   2.87009
 Alpha virt. eigenvalues --    2.87800   2.88629   2.89548   2.90486   2.91864
 Alpha virt. eigenvalues --    2.92471   2.92891   2.93833   2.94568   2.96098
 Alpha virt. eigenvalues --    2.98280   2.99331   3.00538   3.01257   3.01307
 Alpha virt. eigenvalues --    3.02696   3.03156   3.03649   3.04459   3.05287
 Alpha virt. eigenvalues --    3.06438   3.06633   3.08230   3.08680   3.10405
 Alpha virt. eigenvalues --    3.10911   3.11510   3.15656   3.16518   3.17995
 Alpha virt. eigenvalues --    3.18859   3.19583   3.21646   3.21726   3.22073
 Alpha virt. eigenvalues --    3.22353   3.22645   3.24178   3.24670   3.25680
 Alpha virt. eigenvalues --    3.25851   3.26397   3.31962   3.32936   3.34511
 Alpha virt. eigenvalues --    3.35335   3.36238   3.36567   3.37002   3.37448
 Alpha virt. eigenvalues --    3.37926   3.39500   3.39722   3.40081   3.40153
 Alpha virt. eigenvalues --    3.41707   3.41957   3.45368   3.46419   3.46834
 Alpha virt. eigenvalues --    3.48223   3.49492   3.52431   3.53971   3.54593
 Alpha virt. eigenvalues --    3.54860   3.56385   3.58308   3.59322   3.61544
 Alpha virt. eigenvalues --    3.62858   3.63107   3.65402   3.68256   3.71897
 Alpha virt. eigenvalues --    3.76549   3.77286   3.78301   3.91562   3.92658
 Alpha virt. eigenvalues --    3.93486   3.93856   3.94063   3.95170   3.98375
 Alpha virt. eigenvalues --    3.99994   4.03643   4.12601   4.13117   4.13409
 Alpha virt. eigenvalues --    4.16469   4.44839   4.48706   4.50220   4.65878
 Alpha virt. eigenvalues --    4.81045   4.82186   4.93362   4.94497   4.97670
 Alpha virt. eigenvalues --    4.98554   5.00490   5.01356   5.06042   5.08687
 Alpha virt. eigenvalues --    5.09436   5.12933   5.17592   5.18239   5.23943
 Alpha virt. eigenvalues --    5.24387   5.29689   5.30966   5.57902   5.60671
 Alpha virt. eigenvalues --    5.62227   5.69351   5.70071   5.78050   5.78163
 Alpha virt. eigenvalues --    6.08658  23.32657  23.33821  23.52229  23.52535
 Alpha virt. eigenvalues --   23.62760  23.64705  23.80823  23.86393  23.88042
 Alpha virt. eigenvalues --   23.88455  23.93293  23.94502  23.97406  24.07428
 Alpha virt. eigenvalues --   24.08512  24.11442  24.14209  24.19075  24.20820
 Alpha virt. eigenvalues --   24.24703  24.24997  35.47706  49.95575  49.98673
 Alpha virt. eigenvalues --   49.98880  50.03339  50.04916  50.06870  50.08204
 Alpha virt. eigenvalues --   50.09567
  Beta  occ. eigenvalues --  -19.66919 -19.66802 -19.66661 -19.65857 -19.65144
  Beta  occ. eigenvalues --  -19.63420 -19.61714 -19.61183 -15.00804 -10.63946
  Beta  occ. eigenvalues --  -10.63507 -10.63104 -10.62532 -10.61555 -10.61469
  Beta  occ. eigenvalues --  -10.59975 -10.58103 -10.57877 -10.57437 -10.57254
  Beta  occ. eigenvalues --  -10.56648 -10.56441 -10.56242 -10.55517 -10.55403
  Beta  occ. eigenvalues --  -10.55085 -10.54835 -10.54761 -10.54698 -10.54228
  Beta  occ. eigenvalues --   -1.38632  -1.21811  -1.20457  -1.19862  -1.19019
  Beta  occ. eigenvalues --   -1.17692  -1.17361  -1.16983  -1.00441  -0.97310
  Beta  occ. eigenvalues --   -0.92484  -0.91393  -0.91059  -0.87491  -0.85724
  Beta  occ. eigenvalues --   -0.85226  -0.82722  -0.81056  -0.78665  -0.77882
  Beta  occ. eigenvalues --   -0.74895  -0.74361  -0.71106  -0.70654  -0.69743
  Beta  occ. eigenvalues --   -0.66743  -0.66739  -0.65192  -0.63596  -0.62819
  Beta  occ. eigenvalues --   -0.61563  -0.60788  -0.60362  -0.59526  -0.58784
  Beta  occ. eigenvalues --   -0.58486  -0.57823  -0.56529  -0.55515  -0.55338
  Beta  occ. eigenvalues --   -0.54553  -0.54031  -0.53092  -0.52638  -0.52131
  Beta  occ. eigenvalues --   -0.51279  -0.50764  -0.50527  -0.50171  -0.49690
  Beta  occ. eigenvalues --   -0.49291  -0.48519  -0.47441  -0.47330  -0.46471
  Beta  occ. eigenvalues --   -0.45681  -0.45456  -0.44662  -0.44395  -0.44112
  Beta  occ. eigenvalues --   -0.43425  -0.43192  -0.42569  -0.42440  -0.40400
  Beta  occ. eigenvalues --   -0.39839  -0.39523  -0.39017  -0.36571  -0.35793
  Beta  occ. eigenvalues --   -0.35301  -0.34952  -0.33981  -0.32345  -0.32171
  Beta  occ. eigenvalues --   -0.30726  -0.28380  -0.26804
  Beta virt. eigenvalues --   -0.05211  -0.03650  -0.02679   0.00967   0.02290
  Beta virt. eigenvalues --    0.03662   0.05359   0.06894   0.07469   0.08873
  Beta virt. eigenvalues --    0.09903   0.10069   0.10379   0.11033   0.11824
  Beta virt. eigenvalues --    0.12044   0.12105   0.12982   0.13940   0.14819
  Beta virt. eigenvalues --    0.15580   0.16063   0.16152   0.16339   0.16715
  Beta virt. eigenvalues --    0.17613   0.18377   0.18567   0.20082   0.20436
  Beta virt. eigenvalues --    0.20647   0.21243   0.21995   0.22578   0.24582
  Beta virt. eigenvalues --    0.26108   0.26543   0.26925   0.27505   0.27625
  Beta virt. eigenvalues --    0.28911   0.30092   0.30717   0.31360   0.31885
  Beta virt. eigenvalues --    0.32124   0.32906   0.33579   0.34381   0.34727
  Beta virt. eigenvalues --    0.35026   0.35734   0.35977   0.37107   0.37639
  Beta virt. eigenvalues --    0.37933   0.38978   0.39516   0.39852   0.40077
  Beta virt. eigenvalues --    0.40716   0.41011   0.41452   0.41855   0.42046
  Beta virt. eigenvalues --    0.42795   0.43119   0.43199   0.43709   0.44223
  Beta virt. eigenvalues --    0.44525   0.45052   0.45482   0.47016   0.47196
  Beta virt. eigenvalues --    0.47455   0.47838   0.48210   0.48427   0.48765
  Beta virt. eigenvalues --    0.49402   0.49457   0.50139   0.50200   0.50833
  Beta virt. eigenvalues --    0.51240   0.51473   0.51869   0.52952   0.53332
  Beta virt. eigenvalues --    0.53596   0.54101   0.55389   0.56350   0.56905
  Beta virt. eigenvalues --    0.57315   0.57492   0.58672   0.58790   0.59612
  Beta virt. eigenvalues --    0.59965   0.60752   0.61089   0.61906   0.62250
  Beta virt. eigenvalues --    0.62809   0.62819   0.63478   0.64132   0.64547
  Beta virt. eigenvalues --    0.64932   0.65210   0.65653   0.66193   0.66569
  Beta virt. eigenvalues --    0.66723   0.67237   0.67637   0.68162   0.68253
  Beta virt. eigenvalues --    0.68461   0.69162   0.69609   0.70557   0.70828
  Beta virt. eigenvalues --    0.71425   0.71830   0.73063   0.73376   0.73871
  Beta virt. eigenvalues --    0.75245   0.75728   0.76528   0.77061   0.78884
  Beta virt. eigenvalues --    0.79923   0.80066   0.80918   0.81271   0.81905
  Beta virt. eigenvalues --    0.82396   0.83492   0.83939   0.84172   0.84529
  Beta virt. eigenvalues --    0.85286   0.85519   0.86020   0.86676   0.87102
  Beta virt. eigenvalues --    0.87399   0.88126   0.89380   0.89628   0.89980
  Beta virt. eigenvalues --    0.90183   0.91135   0.91937   0.93225   0.94023
  Beta virt. eigenvalues --    0.94818   0.94882   0.96079   0.97043   0.97370
  Beta virt. eigenvalues --    0.97676   0.98356   0.98643   1.00092   1.00589
  Beta virt. eigenvalues --    1.01235   1.01506   1.01873   1.02844   1.03209
  Beta virt. eigenvalues --    1.03764   1.04594   1.05439   1.06602   1.07252
  Beta virt. eigenvalues --    1.08521   1.09206   1.10179   1.10760   1.11769
  Beta virt. eigenvalues --    1.12634   1.13064   1.14294   1.15724   1.16031
  Beta virt. eigenvalues --    1.17691   1.18141   1.19059   1.19876   1.20438
  Beta virt. eigenvalues --    1.21338   1.22073   1.24130   1.25139   1.25685
  Beta virt. eigenvalues --    1.26238   1.27600   1.28437   1.29356   1.29439
  Beta virt. eigenvalues --    1.30693   1.31683   1.32230   1.33843   1.34716
  Beta virt. eigenvalues --    1.36978   1.38723   1.41105   1.41476   1.42856
  Beta virt. eigenvalues --    1.43899   1.46041   1.47359   1.48981   1.50147
  Beta virt. eigenvalues --    1.50434   1.51630   1.52989   1.53740   1.54711
  Beta virt. eigenvalues --    1.55129   1.55959   1.56768   1.56919   1.57542
  Beta virt. eigenvalues --    1.58153   1.58618   1.59102   1.59822   1.60800
  Beta virt. eigenvalues --    1.60980   1.61638   1.62304   1.63407   1.63636
  Beta virt. eigenvalues --    1.64993   1.65962   1.66404   1.67147   1.68822
  Beta virt. eigenvalues --    1.71070   1.71228   1.72089   1.72442   1.73892
  Beta virt. eigenvalues --    1.74347   1.75226   1.75429   1.76374   1.77051
  Beta virt. eigenvalues --    1.78148   1.78975   1.79674   1.80576   1.81063
  Beta virt. eigenvalues --    1.82664   1.82889   1.84094   1.84378   1.84656
  Beta virt. eigenvalues --    1.86666   1.87353   1.88576   1.89219   1.90067
  Beta virt. eigenvalues --    1.91739   1.93168   1.94820   1.94858   1.95920
  Beta virt. eigenvalues --    1.98458   1.99762   2.00568   2.03315   2.03882
  Beta virt. eigenvalues --    2.04604   2.07028   2.07721   2.09039   2.10775
  Beta virt. eigenvalues --    2.12224   2.13203   2.15264   2.16818   2.17133
  Beta virt. eigenvalues --    2.17909   2.20013   2.20978   2.21225   2.23819
  Beta virt. eigenvalues --    2.26744   2.28421   2.28577   2.30322   2.30985
  Beta virt. eigenvalues --    2.31632   2.33573   2.34429   2.34859   2.35301
  Beta virt. eigenvalues --    2.36289   2.37269   2.37682   2.39718   2.40619
  Beta virt. eigenvalues --    2.44376   2.44833   2.45082   2.45976   2.46437
  Beta virt. eigenvalues --    2.49003   2.50349   2.51393   2.53329   2.54920
  Beta virt. eigenvalues --    2.57791   2.57819   2.58761   2.61680   2.65336
  Beta virt. eigenvalues --    2.66781   2.68092   2.71097   2.71108   2.72109
  Beta virt. eigenvalues --    2.72578   2.73365   2.73664   2.75288   2.78915
  Beta virt. eigenvalues --    2.80338   2.82489   2.83865   2.84405   2.87009
  Beta virt. eigenvalues --    2.87797   2.88624   2.89547   2.90486   2.91864
  Beta virt. eigenvalues --    2.92471   2.92891   2.93832   2.94558   2.96098
  Beta virt. eigenvalues --    2.98280   2.99328   3.00537   3.01252   3.01305
  Beta virt. eigenvalues --    3.02695   3.03155   3.03647   3.04458   3.05235
  Beta virt. eigenvalues --    3.05742   3.06489   3.06635   3.08251   3.08682
  Beta virt. eigenvalues --    3.10405   3.10911   3.11511   3.15660   3.16518
  Beta virt. eigenvalues --    3.17996   3.18859   3.19583   3.21647   3.21726
  Beta virt. eigenvalues --    3.22073   3.22354   3.22645   3.24181   3.24671
  Beta virt. eigenvalues --    3.25680   3.25852   3.26397   3.31962   3.32936
  Beta virt. eigenvalues --    3.34511   3.35335   3.36238   3.36567   3.37002
  Beta virt. eigenvalues --    3.37451   3.37928   3.39500   3.39722   3.40082
  Beta virt. eigenvalues --    3.40153   3.41707   3.41957   3.45368   3.46420
  Beta virt. eigenvalues --    3.46834   3.48223   3.49492   3.52431   3.53971
  Beta virt. eigenvalues --    3.54594   3.54861   3.56386   3.58310   3.59322
  Beta virt. eigenvalues --    3.61546   3.62859   3.63108   3.65402   3.68256
  Beta virt. eigenvalues --    3.71897   3.76550   3.77286   3.78302   3.91562
  Beta virt. eigenvalues --    3.92660   3.93487   3.93856   3.94063   3.95170
  Beta virt. eigenvalues --    3.98375   3.99994   4.03643   4.12601   4.13118
  Beta virt. eigenvalues --    4.13409   4.16469   4.44839   4.48707   4.50220
  Beta virt. eigenvalues --    4.65878   4.81045   4.82186   4.93362   4.94497
  Beta virt. eigenvalues --    4.97670   4.98554   5.00492   5.01357   5.06042
  Beta virt. eigenvalues --    5.08688   5.09436   5.12934   5.17592   5.18239
  Beta virt. eigenvalues --    5.23943   5.24387   5.29689   5.30966   5.57903
  Beta virt. eigenvalues --    5.60671   5.62227   5.69351   5.70071   5.78050
  Beta virt. eigenvalues --    5.78163   6.08659  23.32657  23.33821  23.52229
  Beta virt. eigenvalues --   23.52535  23.62760  23.64705  23.80823  23.86393
  Beta virt. eigenvalues --   23.88042  23.88455  23.93293  23.94502  23.97406
  Beta virt. eigenvalues --   24.07428  24.08512  24.11442  24.14209  24.19075
  Beta virt. eigenvalues --   24.20820  24.24703  24.24997  35.47706  49.95575
  Beta virt. eigenvalues --   49.98673  49.98880  50.03339  50.04916  50.06870
  Beta virt. eigenvalues --   50.08204  50.09567
          Condensed to atoms (all electrons):
               1          2          3          4          5          6
     1  C    5.266109   0.351528   0.413970  -0.044416  -0.027686   0.007864
     2  H    0.351528   0.411862  -0.047704   0.002662  -0.006958   0.000180
     3  C    0.413970  -0.047704   5.525532   0.356875   0.357983  -0.091712
     4  H   -0.044416   0.002662   0.356875   0.436550  -0.021362   0.010131
     5  C   -0.027686  -0.006958   0.357983  -0.021362   4.580360   0.622114
     6  O    0.007864   0.000180  -0.091712   0.010131   0.622114   7.878384
     7  C    0.374860  -0.026636  -0.029952  -0.012584   0.000658  -0.000233
     8  C   -0.053415  -0.009732   0.006110  -0.000211  -0.000500   0.000001
     9  C   -0.083561   0.010231  -0.020410   0.007349   0.000569   0.000008
    10  C    0.010283  -0.000071  -0.000377   0.000043   0.000004   0.000000
    11  H   -0.004742   0.002463   0.000598  -0.000025  -0.000045  -0.000000
    12  C    0.010258  -0.000243   0.000254   0.000275   0.000009  -0.000000
    13  H   -0.000001  -0.000000  -0.000006   0.000068   0.000000  -0.000000
    14  C   -0.000733   0.000076   0.000023  -0.000015  -0.000001  -0.000000
    15  H   -0.000302  -0.000014   0.000006   0.000002   0.000000   0.000000
[...]
 22,0.00004158,0.00002695,0.00002605,-0.00002937,-0.00000755,-0.0000273
 0,0.00000540,-0.00000465,-0.00000120,-0.00000282,-0.00002895,0.0000485
 0,0.00000097,0.00001301,0.00000464,0.00004463,0.00002571,0.00000691,-0
 .00000262,-0.00000193,0.00000153,-0.00005577,-0.00003428,-0.00000510,0
 .00000455,0.00000494,-0.00000509,-0.00001338,0.00000265,-0.00001954,0.
 00000981,-0.00000591,0.00000246,-0.00000045,0.00000134,0.00000010,-0.0
 0000122,0.00000051,-0.00000173,-0.00000008,-0.00000050,0.00000139,-0.1
 3826450,-0.19095540,-0.00195161,0.00730385,0.00853729,0.00085277,0.149
 88982,0.20127084,0.00027366,-0.00057782,0.00036506,0.00127136,-0.00062
 875,-0.00067230,-0.00037368,-0.00029433,-0.00044690,0.00002237,0.00003
 912,-0.00001827,0.01046669,0.00728847,-0.00168251,-0.00254845,0.002813
 03,-0.00193648,-0.00011038,0.00010037,0.00000680,0.00001475,0.00001577
 ,-0.00001905,0.00000012,-0.00005379,-0.00004402,-0.00002334,0.00003266
 ,-0.00000286,0.00002178,0.00000647,0.00000534,-0.00003867,-0.00006010,
 0.00004065,-0.00000019,0.00000004,-0.00000018,0.00007934,0.00000136,-0
 .00003391,-0.00000436,-0.00000107,0.00000584,-0.00009915,0.00001974,0.
 00003432,0.00001249,0.00000774,-0.00000135,-0.00003129,0.00004696,-0.0
 0001093,0.00002143,-0.00001038,0.00002295,0.00000146,0.00000099,-0.000
 00292,-0.00000203,0.00000272,-0.00000263,-0.00000243,-0.00000118,0.000
 00092,0.00067547,0.00045712,-0.00067367,-0.00005810,0.00012525,0.00026
 658,-0.00090823,0.00085637,-0.00516007,-0.00127417,-0.00044232,-0.0001
 1966,-0.02588066,-0.02515591,-0.00444628,0.00073370,0.00073436,0.00426
 989,-0.00000296,-0.00010583,0.00021760,-0.00001494,-0.00001403,-0.0000
 1574,0.00003505,0.00001952,-0.00005376,-0.00001773,-0.00000505,-0.0000
 0952,-0.00000382,-0.00000721,0.00000692,0.00000179,-0.00001810,0.00007
 041,-0.00000862,0.00000204,0.00003702,0.00002303,0.00000929,-0.0000034
 5,-0.00000431,-0.00000118,0.00000080,-0.00004088,-0.00002523,0.0000016
 0,0.00000158,0.00000348,-0.00000421,-0.00000875,0.00000478,-0.00001024
 ,0.00000997,-0.00000490,0.00000240,-0.00000042,0.00000124,-0.00000010,
 -0.00000093,0.00000037,-0.00000123,-0.00000047,-0.00000034,0.00000110,
 0.00909618,0.00333689,-0.04130559,0.01187095,0.01550591,0.00069061,-0.
 00317828,-0.00402869,0.05064381,-0.00096276,0.00052110,0.00027956,0.00
 012665,-0.00003438,-0.00009983,0.00080544,-0.00024862,-0.00017165,-0.0
 0071829,0.00000012,-0.00051023,-0.00038480,0.00017416,0.00000853,0.000
 25903,0.00014467,-0.00016493,-0.00262453,-0.00023896,0.00319500,-0.000
 41693,-0.00162084,-0.00007133,0.02131570,-0.01310735,0.00668228,0.0005
 3666,-0.00109559,-0.00000405,-0.00031007,-0.00026978,-0.00002372,-0.00
 114073,0.00273379,0.00020730,-0.00000786,0.00000051,-0.00000735,0.0014
 3506,0.00087005,-0.00083488,-0.00002990,-0.00004047,-0.00000825,-0.000
 47741,-0.00004442,0.00033759,0.00015157,-0.00000310,-0.00008124,-0.004
 10369,-0.00148831,0.00237780,0.00057563,-0.00051271,-0.00045370,-0.000
 08167,-0.00003030,0.00107077,-0.00006843,0.00018086,0.00018252,-0.0002
 5241,0.00006933,0.00050477,0.00002098,0.00003050,-0.00001967,-0.000002
 91,-0.00001534,-0.00000672,-0.00002724,0.00005472,0.00003990,0.0000295
 0,-0.00001905,0.00001112,-0.00005177,-0.00008385,-0.00012638,0.0000080
 4,0.00006118,0.00006554,-0.00000624,-0.00000330,-0.00000024,-0.0000028
 6,0.00001639,-0.00000830,-0.00000491,0.00001831,0.00001048,-0.00001445
 ,0.00001241,-0.00001006,0.00000700,-0.00001308,-0.00000676,0.00001137,
 0.00000129,0.00004148,0.00000965,-0.00001836,0.00000075,0.00004978,0.0
 0002012,-0.00000412,0.00000252,-0.00000699,0.00000076,-0.00005564,-0.0
 0001845,0.,0.00001503,-0.00000251,-0.00000517,-0.00004636,0.00001343,-
 0.00002752,0.00003762,-0.00002375,0.00000677,-0.00000184,0.00000545,-0
 .00000054,-0.00000192,0.00000092,-0.00000303,-0.00000383,-0.00000031,0
 .00000350,-0.00001377,-0.00006703,0.00008300,-0.00000535,0.00001507,-0
 .00000958,0.00000653,0.00001347,-0.00000924,0.15052411,-0.00114605,0.0
 0008732,0.00182747,0.00021676,-0.00014242,-0.00028632,0.00063313,-0.00
 032039,-0.00050477,0.00152886,-0.00028640,-0.00004063,-0.00146390,0.00
 065365,0.00069351,0.00070332,0.00019053,-0.00060358,-0.00141504,0.0011
 6961,0.00073812,-0.00203854,-0.00138056,-0.00084982,-0.00219894,-0.017
 29249,0.04483065,0.00047424,-0.00162542,0.00036691,-0.00024353,-0.0003
 9191,-0.00002709,0.00279345,-0.01112579,0.00236330,0.00000141,-0.00000
 303,0.00000663,0.00032852,0.00182752,-0.00244880,-0.00002914,0.0000288
 7,0.00014055,-0.00143005,-0.00035480,0.00060318,0.00012651,0.00010870,
 0.00001346,0.00197346,0.00560335,-0.00126273,0.00012447,-0.00003275,0.
 00140106,-0.00097854,-0.00025382,-0.00100255,-0.00030930,0.00007617,-0
 .00011092,0.00017509,-0.00008248,-0.00043150,-0.00010144,-0.00010374,0
 .00004590,-0.00004340,0.00000847,0.00000803,0.00015158,0.00009485,-0.0
 0003900,-0.00000545,0.00001497,0.00000448,-0.00030531,-0.00014326,-0.0
 0008635,0.00020808,0.00000689,-0.00001216,0.00005071,0.00003093,0.0000
 1562,-0.00001968,-0.00001551,0.00003182,-0.00000796,-0.00000435,-0.000
 02598,0.00002571,0.00001910,0.00002373,-0.00000263,-0.00000745,-0.0000
 0017,0.00001128,0.00001320,-0.00004157,-0.00000662,0.00000443,-0.00000
 309,-0.00006109,-0.00004431,-0.00000096,0.00000997,0.00000138,-0.00000
 200,0.00007600,0.00005731,0.00000187,-0.00000491,-0.00001167,0.0000076
 8,0.00002616,0.00000452,0.00001520,-0.00001646,0.00000297,-0.00000148,
 0.00000085,0.00000097,0.00000153,-0.00000020,-0.00000186,0.00000208,0.
 00000170,0.00000093,-0.00000349,0.00007950,-0.00006265,0.00003601,0.00
 002686,-0.00001332,-0.00000377,0.00002933,0.00001329,0.00003374,-0.056
 21617,0.23888602,0.00107134,-0.00033670,-0.00038033,-0.00025335,-0.000
 01022,0.00024572,0.00015332,0.00144271,-0.00098963,-0.00123769,0.00042
 064,0.00039675,0.00102562,-0.00102297,-0.00009960,-0.00050751,-0.00014
 234,0.00058598,0.00527338,0.00005156,-0.00231962,-0.00060744,0.0019123
 1,0.00079754,-0.00827569,0.03156153,-0.01377135,0.00000875,0.00059025,
 -0.00008596,0.00043619,0.00044617,-0.00020978,-0.00167361,0.00311855,-
 0.00011418,-0.00001124,-0.00000427,-0.00003640,-0.00078518,-0.00034737
 ,0.00065502,0.00007659,-0.00003849,-0.00006759,0.00081659,-0.00003421,
 -0.00028380,-0.00013291,-0.00005848,-0.00003796,0.00169214,-0.00261975
 ,-0.00071108,-0.00035548,-0.00006439,-0.00156214,0.00086992,-0.0000152
 8,0.00081532,0.00018432,-0.00004011,0.00019979,-0.00017180,0.00002990,
 0.00033237,0.00011912,0.00011955,-0.00007230,0.00002241,-0.00002134,-0
 .00000987,-0.00016728,-0.00001073,0.00009243,0.00004802,-0.00003512,0.
 00001639,0.00017751,-0.00001596,-0.00028766,-0.00019164,0.00006092,0.0
 0022013,-0.00004478,-0.00002703,-0.00000760,0.00001559,0.00002464,-0.0
 0004226,0.00000128,0.00002678,0.00002886,-0.00003484,-0.00000957,-0.00
 002006,0.00000559,-0.00000001,-0.00000307,-0.00000290,-0.00001014,0.00
 005273,0.00001696,-0.00002718,0.00000462,0.00009082,0.00005173,-0.0000
 0726,-0.00001019,-0.00000752,-0.00000042,-0.00010940,-0.00006122,0.000
 00622,0.00001598,0.00000677,-0.00001469,-0.00005936,0.00001194,-0.0000
 1385,0.00004826,-0.00002325,0.00000563,-0.00000198,0.00000374,-0.00000
 352,0.00000028,0.00000297,-0.00000255,-0.00000649,-0.00000228,0.000006
 70,0.00021219,0.00001050,-0.00008612,0.00001535,-0.00006516,0.00003788
 ,-0.00004586,0.00000143,-0.00001780,0.17648844,-0.28391099,0.51138745,
 -0.00251715,0.00022275,0.00083558,0.00020195,-0.00019411,-0.00020786,0
 .00227815,0.00138708,0.00093682,-0.00154431,0.00106736,-0.00080255,0.0
 0026555,0.00050524,0.00005561,0.00012233,0.00006346,0.00000718,-0.0047
 2324,0.00140809,-0.00056310,-0.00021821,-0.00165836,0.00245158,-0.0329
 5696,-0.02801622,-0.02360151,0.00038543,-0.00185803,-0.00036460,-0.000
 19342,-0.00039459,0.00037877,0.00355907,-0.00587850,-0.00013365,-0.000
 00385,-0.00000179,-0.00000998,0.00150398,0.00176019,0.00110725,-0.0001
 0411,-0.00005467,-0.00016017,-0.00086282,-0.00051677,0.00058070,0.0000
 5949,0.00002719,-0.00016894,-0.00125942,0.00227506,-0.00052306,0.00115
 782,-0.00007400,-0.00037263,0.00045444,0.00003699,0.00037168,-0.000099
 94,0.00013884,-0.00012543,-0.00007825,-0.00002061,0.00032291,0.0000999
 2,0.00010714,-0.00006740,0.00001498,-0.00003679,-0.00002131,-0.0001275
 5,0.00006377,0.00009803,0.00006198,-0.00004706,0.00002305,0.00001003,-
 0.00012090,-0.00019816,-0.00005753,0.00014030,0.00012820,-0.00003437,-
 0.00001627,-0.00000568,-0.00000097,0.00003592,-0.00003680,-0.00000332,
 0.00003521,0.00003319,-0.00003398,0.00001512,-0.00002769,0.00001430,-0
 .00001837,-0.00001062,0.00001313,-0.00000374,0.00009589,0.00002147,-0.
 00003645,0.00000403,0.00011534,0.00005180,-0.00001070,-0.00000172,-0.0
 0001327,0.00000227,-0.00013475,-0.00005921,0.00000463,0.00002889,0.000
 00214,-0.00001751,-0.00009628,0.00002395,-0.00005588,0.00007812,-0.000
 04711,0.00001322,-0.00000361,0.00001076,-0.00000142,-0.00000406,0.0000
 0236,-0.00000687,-0.00000843,-0.00000100,0.00000819,-0.00011694,-0.000
 06551,-0.00005990,-0.00002070,0.00000348,-0.00000609,-0.00001140,-0.00
 000836,-0.00000685,-0.02301624,0.02174604,-0.07703897,0.50402723,-0.00
 047255,-0.00086031,-0.00073228,0.00010317,-0.00008368,-0.00015581,0.00
 110257,-0.00241054,-0.00072898,0.00024083,0.00027068,-0.00024814,-0.00
 181281,0.00046317,0.00047497,0.00083165,0.00024316,-0.00064410,-0.0001
 4412,0.00029712,-0.00082612,0.00070763,0.00073610,0.00023930,-0.043230
 40,0.00354050,-0.01193862,-0.00119441,-0.00021366,0.00034344,-0.000006
 60,-0.00017234,-0.00003244,0.00199612,-0.00985642,-0.00120174,-0.00000
 111,0.00000123,0.00000059,0.00007900,0.00058948,0.00118094,-0.00006552
 ,-0.00001238,0.00003153,-0.00135252,-0.00053561,0.00076455,0.00005435,
 0.00011086,-0.00006669,-0.00111198,0.00288963,-0.00071515,0.00097290,-
 0.00015619,0.00070685,-0.00008291,0.00000559,-0.00004832,-0.00018140,0
 .00014411,-0.00009074,-0.00003297,-0.00004264,-0.00000205,-0.00006728,
 -0.00006655,0.00001906,-0.00004548,0.00000009,0.00000630,0.00010962,0.
 00012669,0.00000064,0.00002397,-0.00000045,0.00001782,-0.00033205,-0.0
 0018526,-0.00026209,0.00019299,0.00001969,0.00009641,0.00004147,0.0000
 2338,0.00001680,-0.00001609,-0.00000447,0.00001806,-0.00001005,0.00001
 453,-0.00001870,0.00001341,0.00002175,0.00001717,0.00000054,-0.0000106
 6,-0.00000213,0.00001526,0.00001201,-0.00002076,0.00000178,-0.00001320
 ,-0.00000124,-0.00002181,-0.00002555,-0.00000802,0.00000677,-0.0000039
 1,-0.00000078,0.00003067,0.00003712,0.00000701,0.00000408,-0.00001035,
 0.00000094,-0.00000450,0.00001384,0.00001182,0.00000963,-0.00001159,0.
 00000181,-0.00000019,0.00000352,-0.00000018,-0.00000008,-0.00000038,0.
 00000072,-0.00000208,0.00000017,-0.00000037,0.00015953,-0.00015700,0.0
 0020388,0.00003628,-0.00000493,-0.00000505,0.00003707,0.00003213,0.000
 01151,0.03588565,0.03920376,0.01834727,0.13483472,0.11683917,0.0009337
 4,-0.00065105,-0.00012812,-0.00001336,-0.00002067,0.00001073,-0.000026
 09,-0.00010881,0.00003402,-0.00082284,0.00074907,-0.00060642,0.0002183
 9,-0.00021389,-0.00028698,-0.00012787,-0.00004651,0.00024129,0.0018501
 8,0.00146172,-0.00009701,-0.00025455,-0.00008530,-0.00007755,-0.011616
 29,0.00086199,0.01499127,0.00023935,0.00015370,-0.00004338,0.00001074,
 0.00001537,-0.00020647,0.00013982,-0.00137196,0.00014867,-0.00000369,-
 0.00000162,-0.00000968,-0.00095163,0.00078929,-0.00019104,0.00004282,-
 0.00003343,0.00003138,-0.00005147,-0.00036796,0.00015405,-0.00008014,0
 .00001783,-0.00002238,0.00000675,-0.00085841,0.00127390,0.00017934,-0.
 00026064,-0.00142063,0.00071246,0.00015105,0.00079592,0.00006315,0.000
 00605,0.00011668,-0.00005746,0.00003104,0.00044186,0.00006503,0.000066
 71,-0.00004271,0.00000908,-0.00001073,-0.00000385,-0.00008957,-0.00000
 518,0.00004811,0.00003264,-0.00002119,0.00001204,0.00008236,-0.0000094
 7,-0.00017185,-0.00008890,0.00003655,0.00014529,-0.00002431,-0.0000159
 0,-0.00000206,0.00000796,0.00001186,-0.00002325,0.00000127,0.00001873,
 0.00001239,-0.00001761,-0.00000441,-0.00000917,0.00000257,0.00000081,-
 0.00000034,-0.00000245,-0.00000547,0.00002260,0.00000991,-0.00001783,0
 .00000231,0.00004803,0.00002536,-0.00000685,-0.00000612,-0.00000460,0.
 00000035,-0.00005894,-0.00003132,0.00000760,0.00000911,0.00000383,-0.0
 0001029,-0.00003371,0.00000926,0.00000038,0.00002952,-0.00001466,0.000
 00292,-0.00000098,0.00000247,-0.00000251,0.00000061,0.00000186,-0.0000
 0137,-0.00000459,-0.00000159,0.00000434,0.00002732,-0.00001499,0.00005
 044,-0.00000363,-0.00000346,0.00000515,-0.00001419,0.00000588,-0.00001
 790,-0.08663627,0.00809505,-0.07307709,0.32166370,0.03999404,0.3011909
 8,0.00239775,0.00054561,-0.00229490,-0.00042995,0.00017767,0.00044002,
 -0.00350208,0.00041590,0.00090399,0.00050193,0.00188586,0.00271701,0.0
 0012621,-0.00018544,-0.00009295,-0.00027652,-0.00026620,0.00007747,0.0
 1573039,-0.00234114,-0.00574736,0.00188965,0.00706476,-0.00065629,-0.1
 2803434,-0.01909252,0.03179145,-0.00181034,0.00328901,-0.00001572,0.00
 100930,0.00115642,-0.00027898,-0.02678370,-0.03166097,0.01163274,0.000
 00459,-0.00000004,0.00000877,-0.00454089,0.00249776,0.00487284,0.00006
 517,0.00001422,-0.00003088,0.00060611,-0.00132080,-0.00034109,-0.00059
 065,0.00012733,0.00021533,0.00479424,-0.00393510,-0.00275527,-0.003650
 10,0.00162047,-0.00050113,-0.00053007,0.00002775,-0.00043911,0.0001755
 0,-0.00025650,0.00007571,0.00052696,-0.00007308,-0.00018537,-0.0001225
 9,-0.00013070,0.00008787,-0.00001512,0.00005066,0.00002426,0.00016076,
 -0.00011954,-0.00013474,-0.00008575,0.00006103,-0.00003256,0.00002105,
 0.00019012,0.00034245,0.00006006,-0.00019025,-0.00021053,0.00003962,0.
 00001798,0.00000360,0.00000156,-0.00004799,0.00004304,0.00000807,-0.00
 005138,-0.00003979,0.00004585,-0.00002432,0.00003462,-0.00001918,0.000
 02768,0.00001589,-0.00002082,0.00000493,-0.00012259,-0.00002857,0.0000
 5167,-0.00000488,-0.00015094,-0.00006611,0.00001482,0.00000013,0.00001
 997,-0.00000293,0.00017446,0.00006976,-0.00000488,-0.00003977,0.000001
 34,0.00002050,0.00012819,-0.00003583,0.00007093,-0.00010381,0.00006474
 ,-0.00001791,0.00000454,-0.00001428,0.00000213,0.00000501,-0.00000347,
 0.00000848,0.00001141,0.00000129,-0.00001038,0.00005965,0.00008731,0.0
 0003455,0.00000220,-0.00000040,-0.00000796,0.00000902,-0.00002024,0.00
 002018,-0.14109303,0.03652140,-0.09716045,-0.44624004,-0.12730275,-0.2
 2539923,0.72950888,0.00123367,0.00091904,-0.00184774,-0.00061343,0.000
 41460,0.00064498,-0.00077003,-0.00042079,-0.00169644,0.00161473,-0.001
 86210,-0.00123346,0.00254018,-0.00146598,-0.00110275,-0.00140188,-0.00
 033671,0.00115369,-0.02158901,-0.02669034,0.01444536,0.00597248,-0.003
 22175,-0.00205981,-0.02054518,-0.14980279,0.01045258,0.00106787,0.0017
 9008,-0.00070120,-0.00090222,-0.00010030,0.00056207,-0.01227055,0.0233
 4840,0.00054979,-0.00000158,-0.00000349,-0.00000977,0.00199183,-0.0015
 1666,0.00104596,-0.00003406,0.00002255,-0.00008483,0.00319686,0.001212
 75,-0.00154355,-0.00007657,-0.00023806,-0.00001431,0.00213037,-0.00998
 726,0.00083803,-0.00123325,0.00038073,-0.00297016,0.00087411,0.0002417
 7,0.00103227,0.00043426,-0.00026193,0.00026380,-0.00011597,0.00011715,
 0.00047921,0.00012912,0.00013475,-0.00004867,0.00007395,-0.00000644,-0
 .00001117,-0.00021215,-0.00019763,0.00003201,-0.00002091,-0.00000871,-
 0.00002119,0.00057809,0.00027583,0.00027612,-0.00036904,-0.00003035,-0
 .00005911,-0.00007480,-0.00004153,-0.00002747,0.00003168,0.00001328,-0
 .00004135,0.00001525,-0.00001308,0.00003569,-0.00003226,-0.00003907,-0
 .00002765,-0.00000083,0.00001820,0.00000373,-0.00002426,-0.00001842,0.
 00003665,0.00000299,0.00000886,0.00000275,0.00006051,0.00005510,0.0000
 1047,-0.00001464,0.00000513,-0.00000106,-0.00007927,-0.00007479,-0.000
 00736,-0.00000125,0.00001748,-0.00000648,-0.00001089,-0.00001663,-0.00
 001159,0.00000189,0.00001122,-0.00000200,-0.00000044,-0.00000433,-0.00
 000171,0.00000143,0.00000137,-0.00000093,0.00000050,-0.00000163,0.0000
 0335,-0.00013323,0.00029251,-0.00013785,-0.00004969,0.00000773,0.00002
 017,-0.00007701,-0.00004258,-0.00004111,0.03437950,-0.25440934,0.23072
 027,-0.12682330,-0.15080140,-0.04832842,0.13114638,0.57232557,-0.00184
 256,0.00029462,-0.00394485,0.00018943,0.00009317,-0.00016673,0.0007072
 3,-0.00363900,0.00059626,0.00456886,-0.00462707,-0.00210452,-0.0014372
 2,0.00126512,0.00028323,0.00059691,0.00017446,-0.00090208,-0.00864769,
 0.00312023,-0.00014313,0.00261672,-0.00111982,0.00577502,0.03238837,0.
 00693678,-0.08410357,-0.00063838,-0.00110559,-0.00130945,-0.00003786,-
 0.00038611,0.00112382,0.01524774,0.00746114,-0.00229515,0.00000567,0.0
 0000203,0.00001431,0.00508325,-0.00134328,0.00559640,-0.00029319,0.000
 04046,-0.00038335,-0.00050804,0.00099791,0.00012657,0.00018832,-0.0000
 0905,-0.00017149,-0.00095088,0.00577999,-0.00811848,-0.00107843,0.0010
 4834,0.00320841,-0.00197119,-0.00016417,-0.00173468,-0.00041205,0.0000
 7035,-0.00049576,0.00009519,0.00001375,-0.00092966,-0.00018399,-0.0001
 7617,0.00011147,-0.00002689,0.00003233,0.00001580,0.00024928,0.0000047
 7,-0.00013801,-0.00007690,0.00005478,-0.00002640,-0.00022581,0.0000435
 1,0.00044241,0.00025847,-0.00010532,-0.00035119,0.00006587,0.00003866,
 0.00000968,-0.00002204,-0.00003714,0.00006168,-0.00000186,-0.00004342,
 -0.00004387,0.00005227,0.00001203,0.00002971,-0.00000905,0.00000198,0.
 00000609,0.00000298,0.00001481,-0.00007954,-0.00002584,0.00004303,-0.0
 0000650,-0.00014143,-0.00007832,0.00001180,0.00001441,0.00001134,0.000
 00094,0.00016957,0.00009312,-0.00001128,-0.00002598,-0.00001030,0.0000
 2363,0.00009557,-0.00002069,0.00002152,-0.00007901,0.00003826,-0.00000
 906,0.00000337,-0.00000646,0.00000565,-0.00000033,-0.00000469,0.000004
 20,0.00001074,0.00000381,-0.00001116,-0.00026141,0.00002829,0.00011742
 ,-0.00000696,0.00009258,-0.00003867,0.00007580,0.00000552,0.00002290,-
 0.10229304,0.23039214,-0.42155202,-0.22451715,-0.04476293,-0.24328575,
 0.28302926,-0.20056984,0.75474745\\-0.00005712,-0.00001245,0.00001792,
 -0.00000420,0.00001476,0.00000153,0.00000613,-0.00001958,-0.00001274,0
 .00000343,-0.00000105,0.00000406,0.00003017,0.00004595,0.00009673,-0.0
 0000993,0.00001071,-0.00003801,0.00002907,-0.00000638,-0.00001458,-0.0
 0002528,0.00001312,0.00001298,0.00001246,-0.00004593,-0.00001297,0.000
 01869,-0.00001866,-0.00001214,0.00000238,0.00000398,-0.00000365,-0.000
 00462,0.00002900,0.00001444,0.00001679,0.00000087,-0.00000698,0.000003
 02,0.00000738,-0.00000437,-0.00001101,0.00001791,0.00001694,0.00000708
 ,-0.00001346,-0.00001181,-0.00000003,0.00000162,0.00000297,-0.00002254
 ,0.00000497,0.00001396,0.00003276,0.00000879,0.00000699,-0.00001554,0.
 00000828,0.00001599,0.00000220,0.00000614,0.00000502,-0.00000613,0.000
 00449,0.00000607,0.00001025,-0.00001675,-0.00001473,-0.00000128,0.0000
 2149,0.00001431,0.00000605,-0.00000635,0.00002316,0.00000294,0.0000002
 0,-0.00000086,-0.00001216,0.00002867,0.00003351,0.00000192,0.00001437,
 -0.00002965,-0.00001947,-0.00000694,0.00002453,0.00000880,0.00000281,-
 0.00002408,-0.00001269,-0.00000472,-0.00000716,0.00002998,0.00000240,0
 .00001943,-0.00000030,0.00000291,-0.00000309,0.00002875,0.00001478,-0.
 00000012,-0.00000824,-0.00000479,-0.00000839,-0.00002489,-0.00002295,-
 0.00000813,-0.00000443,0.00001096,0.00000190,0.00001253,-0.00002650,-0
 .00002280,0.00000431,-0.00000431,0.00000044,-0.00001813,-0.00000013,-0
 .00000294,0.00001319,0.00000518,0.00000434,0.00000139,-0.00000799,-0.0
 0000928,-0.00000812,-0.00001079,0.00000102,-0.00000554,-0.00000460,0.0
 0000157,-0.00000547,-0.00005900,-0.00010635,-0.00001483,-0.00000586,0.
 00000096,0.00001464,-0.00000759,0.00000654,-0.00002685,0.00000191,0.00
 005480,0.00001792,-0.00000829,-0.00000196,0.00000193,0.00003140,-0.000
 04534\\\@


 AN AIRPLANE IS A COLLECTION OF SPARE PARTS
 FLYING IN CLOSE FORMATION.
 Job cpu time:       0 days  6 hours 19 minutes 20.9 seconds.
 Elapsed time:       0 days  6 hours 19 minutes 57.7 seconds.
 File lengths (MBytes):  RWF=   3698 Int=      0 D2E=      0 Chk=     43 Scr=      1
 Normal termination of Gaussian 16 at Wed Dec  4 16:24:10 2024.
