
                                 *****************
                                 * O   R   C   A *
                                 *****************

                                            #,                                       
                                            ###                                      
                                            ####                                     
                                            #####                                    
                                            ######                                   
                                           ########,                                 
                                     ,,################,,,,,                         
                               ,,#################################,,                 
                          ,,##########################################,,             
                       ,#########################################, ''#####,          
                    ,#############################################,,   '####,        
                  ,##################################################,,,,####,       
                ,###########''''           ''''###############################       
              ,#####''   ,,,,##########,,,,          '''####'''          '####       
            ,##' ,,,,###########################,,,                        '##       
           ' ,,###''''                  '''############,,,                           
         ,,##''                                '''############,,,,        ,,,,,,###''
      ,#''                                            '''#######################'''  
     '                                                          ''''####''''         
             ,#######,   #######,   ,#######,      ##                                
            ,#'     '#,  ##    ##  ,#'     '#,    #''#        ######   ,####,        
            ##       ##  ##   ,#'  ##            #'  '#       #        #'  '#        
            ##       ##  #######   ##           ,######,      #####,   #    #        
            '#,     ,#'  ##    ##  '#,     ,#' ,#      #,         ##   #,  ,#        
             '#######'   ##     ##  '#######'  #'      '#     #####' # '####'        



                  #######################################################
                  #                        -***-                        #
                  #          Department of theory and spectroscopy      #
                  #    Directorship and core code : Frank Neese         #
                  #        Max Planck Institute fuer Kohlenforschung    #
                  #                Kaiser Wilhelm Platz 1               #
                  #                 D-45470 Muelheim/Ruhr               #
                  #                      Germany                        #
                  #                                                     #
                  #                  All rights reserved                #
                  #                        -***-                        #
                  #######################################################


                         Program Version 5.0.4 -  RELEASE  -


 With contributions from (in alphabetic order):
   Daniel Aravena         : Magnetic Suceptibility
   Michael Atanasov       : Ab Initio Ligand Field Theory (pilot matlab implementation)
   Alexander A. Auer      : GIAO ZORA, VPT2 properties, NMR spectrum
   Ute Becker             : Parallelization
   Giovanni Bistoni       : ED, misc. LED, open-shell LED, HFLD
   Martin Brehm           : Molecular dynamics
   Dmytro Bykov           : SCF Hessian
   Vijay G. Chilkuri      : MRCI spin determinant printing, contributions to CSF-ICE
   Dipayan Datta          : RHF DLPNO-CCSD density
   Achintya Kumar Dutta   : EOM-CC, STEOM-CC
   Dmitry Ganyushin       : Spin-Orbit,Spin-Spin,Magnetic field MRCI
   Miquel Garcia          : C-PCM and meta-GGA Hessian, CC/C-PCM, Gaussian charge scheme
   Yang Guo               : DLPNO-NEVPT2, F12-NEVPT2, CIM, IAO-localization
   Andreas Hansen         : Spin unrestricted coupled pair/coupled cluster methods
   Benjamin Helmich-Paris : MC-RPA, TRAH-SCF, COSX integrals
   Lee Huntington         : MR-EOM, pCC
   Robert Izsak           : Overlap fitted RIJCOSX, COSX-SCS-MP3, EOM
   Marcus Kettner         : VPT2
   Christian Kollmar      : KDIIS, OOCD, Brueckner-CCSD(T), CCSD density, CASPT2, CASPT2-K
   Simone Kossmann        : Meta GGA functionals, TD-DFT gradient, OOMP2, MP2 Hessian
   Martin Krupicka        : Initial AUTO-CI
   Lucas Lang             : DCDCAS
   Marvin Lechner         : AUTO-CI (C++ implementation), FIC-MRCC
   Dagmar Lenk            : GEPOL surface, SMD
   Dimitrios Liakos       : Extrapolation schemes; Compound Job, initial MDCI parallelization
   Dimitrios Manganas     : Further ROCIS development; embedding schemes
   Dimitrios Pantazis     : SARC Basis sets
   Anastasios Papadopoulos: AUTO-CI, single reference methods and gradients
   Taras Petrenko         : DFT Hessian,TD-DFT gradient, ASA, ECA, R-Raman, ABS, FL, XAS/XES, NRVS
   Peter Pinski           : DLPNO-MP2, DLPNO-MP2 Gradient
   Christoph Reimann      : Effective Core Potentials
   Marius Retegan         : Local ZFS, SOC
   Christoph Riplinger    : Optimizer, TS searches, QM/MM, DLPNO-CCSD(T), (RO)-DLPNO pert. Triples
   Tobias Risthaus        : Range-separated hybrids, TD-DFT gradient, RPA, STAB
   Michael Roemelt        : Original ROCIS implementation
   Masaaki Saitow         : Open-shell DLPNO-CCSD energy and density
   Barbara Sandhoefer     : DKH picture change effects
   Avijit Sen             : IP-ROCIS
   Kantharuban Sivalingam : CASSCF convergence, NEVPT2, FIC-MRCI
   Bernardo de Souza      : ESD, SOC TD-DFT
   Georgi Stoychev        : AutoAux, RI-MP2 NMR, DLPNO-MP2 response
   Willem Van den Heuvel  : Paramagnetic NMR
   Boris Wezisla          : Elementary symmetry handling
   Frank Wennmohs         : Technical directorship


 We gratefully acknowledge several colleagues who have allowed us to
 interface, adapt or use parts of their codes:
   Stefan Grimme, W. Hujo, H. Kruse, P. Pracht,  : VdW corrections, initial TS optimization,
                  C. Bannwarth, S. Ehlert          DFT functionals, gCP, sTDA/sTD-DF
   Ed Valeev, F. Pavosevic, A. Kumar             : LibInt (2-el integral package), F12 methods
   Garnet Chan, S. Sharma, J. Yang, R. Olivares  : DMRG
   Ulf Ekstrom                                   : XCFun DFT Library
   Mihaly Kallay                                 : mrcc  (arbitrary order and MRCC methods)
   Jiri Pittner, Ondrej Demel                    : Mk-CCSD
   Frank Weinhold                                : gennbo (NPA and NBO analysis)
   Christopher J. Cramer and Donald G. Truhlar   : smd solvation model
   Lars Goerigk                                  : TD-DFT with DH, B97 family of functionals
   V. Asgeirsson, H. Jonsson                     : NEB implementation
   FAccTs GmbH                                   : IRC, NEB, NEB-TS, DLPNO-Multilevel, CI-OPT
                                                   MM, QMMM, 2- and 3-layer-ONIOM, Crystal-QMMM,
                                                   LR-CPCM, SF, NACMEs, symmetry and pop. for TD-DFT,
                                                   nearIR, NL-DFT gradient (VV10), updates on ESD,
                                                   ML-optimized integration grids
   S Lehtola, MJT Oliveira, MAL Marques          : LibXC Library
   Liviu Ungur et al                             : ANISO software


 Your calculation uses the libint2 library for the computation of 2-el integrals
 For citations please refer to: http://libint.valeyev.net

 Your ORCA version has been built with support for libXC version: 5.1.0
 For citations please refer to: https://tddft.org/programs/libxc/

 This ORCA versions uses:
   CBLAS   interface :  Fast vector & matrix operations
   LAPACKE interface :  Fast linear algebra routines
   SCALAPACK package :  Parallel linear algebra routines
   Shared memory     :  Shared parallel matrices
   BLAS/LAPACK       :  OpenBLAS 0.3.15  USE64BITINT DYNAMIC_ARCH NO_AFFINITY Zen SINGLE_THREADED
        Core in use  :  Zen
   Copyright (c) 2011-2014, The OpenBLAS Project


Your calculation utilizes the DFT-NL dispersion correction.
Cite in your paper:
Vydrov, O. A.; Van Voorhis, T. J. Chem. Phys. 2010, 133, 244103
Hujo, W.; Grimme, S. J. Chem. Theory Comput. 2011, 7, 3866 
   

================================================================================

----- Orbital basis set information -----
Your calculation utilizes the basis: 6-311G(d)
   H, Li - Ne  : R. Krishnan, J. S. Binkley, R. Seeger and J. A. Pople, J. Chem. Phys. 72, 650 (1980).
   Na - Ar     : A. D. McLean and G. S. Chandler J. Chem. Phys. 72, 5639, (1980).
   K  - Ca     : J.-P. Blaudeau, M. P. McGrath, L. A. Curtiss and L. Radom, J. Chem. Phys. 107, 5016 (1997).
   Ga - Kr     : L. A. Curtiss, M. P. McGrath, J.-P. Blandeau, N. E. Davis, R. C. Binning and L. Radom, J. Chem. Phys. 103, 6104 (1995).
   Pol./Diff.
   H, Li - Cl  : T. Clark, J. Chandrasekhar and P. v. R. Schleyer, J. Comp. Chem. 4, 294 (1983).
   H - Ne      : M. J. Frisch, J. A. Pople and J. S. Binkley, J. Chem. Phys. 80, 3265 (1984).

----- AuxJ basis set information -----
Your calculation utilizes the auxiliary basis: def2/J
   F. Weigend, Phys. Chem. Chem. Phys. 8, 1057 (2006).

================================================================================
                                        WARNINGS
                       Please study these warnings very carefully!
================================================================================

Using LibXC functional ID 531 : wB97M-V exchange-correlation functional
[ 1]  N. Mardirossian and M. Head-Gordon, J. Chem. Phys. 144, 214110 (2016)
Using LibXC functional ID 531 : wB97M-V exchange-correlation functional
[ 1]  N. Mardirossian and M. Head-Gordon, J. Chem. Phys. 144, 214110 (2016)

WARNING: B97M-V or wB97M-V functional requested.
  ===> : libXC variant has now been activated.
         Any manually given DFX/HFX/RangeSep scaling parameters are IGNORED!

Your calculation utilizes LibXC
 by S Lehtola, C Steigemann, MJT Oliveira & MAL Marques
Please cite in your paper:
 S Lehtola, C Steigemann, MJT Oliveira & MAL Marques, SoftwareX, 7, (2018), 1.
   


WARNING: your system is open-shell and RHF/RKS was chosen
  ===> : WILL SWITCH to UHF/UKS


WARNING: Geometry Optimization
  ===> : Switching off AutoStart
         For restart on a previous wavefunction, please use MOREAD

WARNING: Analytic gradients for DFT-NL dispersion can only be done using the self-consistent method,
  ===>   Switching to SCNL

WARNING: Self-consistent DFT-NL dispersion not compatible with AutoTRAH.
  ===>   Switching AutoTRAH off


INFO   : the flag for use of the SHARK integral package has been found!

================================================================================
                                       INPUT FILE
================================================================================
NAME = CURCUMIN-OPT-FREQ-TS2-WB97M-V-6-311G-D-298.inp
|  1> ! OptTS NumFreq wb97M-V 6-311G(d) CPCM RIJDX
|  2> %maxcore 2000
|  3> %cpcm
|  4> epsilon 7 # Dielectric constant
|  5> refrac 1.85341 # Refractive index
|  6> end
|  7> 
|  8> * xyz 0 2
|  9> C         -2.53029        0.30007       -0.18442
| 10> H         -2.02287        0.58664       -1.10152
| 11> C         -1.94279        0.58427        1.00090
| 12> H         -2.41363        0.31521        1.94136
| 13> C         -0.65529        1.25754        1.17145
| 14> O         -0.17874        1.44613        2.28310
| 15> C         -3.80823       -0.35518       -0.39391
| 16> C         -4.26130       -0.54905       -1.71071
| 17> C         -4.62356       -0.81666        0.66064
| 18> C         -5.47747       -1.16528       -1.96584
| 19> H         -3.65470       -0.20446       -2.54180
| 20> C         -5.83846       -1.43168        0.42240
| 21> H         -4.32528       -0.69159        1.69516
| 22> C         -6.28006       -1.60554       -0.91100
| 23> H         -5.81953       -1.29721       -2.98877
| 24> O         -7.48721       -2.18766       -1.09799
| 25> H         -7.68408       -2.24325       -2.04425
| 26> O         -6.62287       -1.79866        1.48091
| 27> C         -6.78493       -3.21257        1.68140
| 28> H         -5.81284       -3.69404        1.82869
| 29> H         -7.38203       -3.32086        2.58616
| 30> H         -7.30630       -3.67905        0.84380
| 31> C          2.75623        0.25586       -0.11040
| 32> H          1.84219       -0.27506       -0.36522
| 33> C          2.68181        1.57122        0.18844
| 34> H          3.56834        2.14029        0.45384
| 35> C          1.45761        2.37684        0.22950
| 36> O          1.49963        3.56829        0.49296
| 37> C          3.95155       -0.57452       -0.13198
| 38> C          3.83099       -1.92915       -0.48228
| 39> C          5.23667       -0.08744        0.18094
| 40> C          4.93970       -2.76496       -0.50902
| 41> H          2.85501       -2.33417       -0.72909
| 42> C          6.35068       -0.90755        0.15863
| 43> H          5.39059        0.94752        0.46353
| 44> C          6.20404       -2.27081       -0.18553
| 45> H          4.82763       -3.81437       -0.76879
| 46> O          7.31651       -3.04542       -0.16801
| 47> H          7.08777       -3.95347       -0.41243
| 48> O          7.56352       -0.39836        0.53727
| 49> C          8.54526       -0.28209       -0.50517
| 50> H          8.17457        0.35563       -1.31426
| 51> H          9.41610        0.18607       -0.04742
| 52> H          8.82497       -1.25921       -0.90286
| 53> C          0.12041        1.70452       -0.04999
| 54> H          0.13688        0.97134       -0.85706
| 55> H         -0.57232        2.62448       -0.56302
| 56> O         -1.27184        3.55086       -1.16510
| 57> O         -2.65472        5.01212       -0.54160
| 58> N         -1.95432        4.12489       -0.15327
| 59> *
| 60> 
| 61>                          ****END OF INPUT****
================================================================================

                       *****************************
                       * Geometry Optimization Run *
                       *****************************

Geometry optimization settings:
Update method            Update   .... Bofill
Choice of coordinates    CoordSys .... Z-matrix Internals
Initial Hessian          InHess   .... Almoef's Model

Convergence Tolerances:
Energy Change            TolE     ....  5.0000e-06 Eh
Max. Gradient            TolMAXG  ....  3.0000e-04 Eh/bohr
RMS Gradient             TolRMSG  ....  1.0000e-04 Eh/bohr
Max. Displacement        TolMAXD  ....  4.0000e-03 bohr
RMS Displacement         TolRMSD  ....  2.0000e-03 bohr
Strict Convergence                ....  False
------------------------------------------------------------------------------
                        ORCA OPTIMIZATION COORDINATE SETUP
------------------------------------------------------------------------------

The optimization will be done in new redundant internal coordinates
Making redundant internal coordinates   ...  (new redundants) done
Following TS mode number                ...     0
Evaluating the initial hessian          ...  (Almloef) done
Evaluating the coordinates              ...  done
Calculating the B-matrix                .... done
Calculating the G-matrix                .... done
Diagonalizing the G-matrix              .... done
Small eigenvalue found = 6.096e-04
Small eigenvalue found = 1.282e-03
Small eigenvalue found = 4.671e-03
Small eigenvalue found = 6.484e-03
Small eigenvalue found = 7.755e-03
Small eigenvalue found = 8.274e-03
Small eigenvalue found = 1.455e-02
Small eigenvalue found = 1.635e-02
Small eigenvalue found = 2.595e-02
Small eigenvalue found = 2.687e-02
Small eigenvalue found = 2.960e-02
The first mode is                       ....   89
The number of degrees of freedom        ....  144

    -----------------------------------------------------------------
                    Redundant Internal Coordinates


    -----------------------------------------------------------------
         Definition                    Initial Value    Approx d2E/dq
    -----------------------------------------------------------------
      1. B(H   1,C   0)                  1.0866         0.364644   
      2. B(C   2,C   0)                  1.3531         0.715472   
      3. B(H   3,C   2)                  1.0856         0.365955   
      4. B(C   4,C   2)                  1.4629         0.478028   
      5. B(O   5,C   4)                  1.2241         1.029322   
      6. B(C   6,C   0)                  1.4513         0.498752   
      7. B(C   7,C   6)                  1.4060         0.589143   
      8. B(C   8,C   6)                  1.4106         0.579251   
      9. B(C   9,C   7)                  1.3870         0.631611   
     10. B(H  10,C   7)                  1.0851         0.366657   
     11. B(C  11,C   8)                  1.3824         0.642520   
     12. B(H  12,C   8)                  1.0839         0.368257   
     13. B(C  13,C  11)                  1.4153         0.569255   
     14. B(C  13,C   9)                  1.3967         0.609689   
     15. B(H  14,C   9)                  1.0866         0.364566   
     16. B(O  15,C  13)                  1.3532         0.640697   
     17. B(H  16,O  15)                  0.9681         0.504675   
     18. B(O  17,C  11)                  1.3676         0.607523   
     19. B(C  18,O  17)                  1.4372         0.470478   
     20. B(H  19,C  18)                  1.0947         0.353877   
     21. B(H  20,C  18)                  1.0894         0.360862   
     22. B(H  21,C  18)                  1.0913         0.358343   
     23. B(H  23,C  22)                  1.0873         0.363654   
     24. B(C  24,C  22)                  1.3509         0.721224   
     25. B(H  25,C  24)                  1.0864         0.364926   
     26. B(C  26,C  24)                  1.4661         0.472461   
     27. B(O  27,C  26)                  1.2210         1.041302   
     28. B(C  28,C  22)                  1.4556         0.490987   
     29. B(C  29,C  28)                  1.4044         0.592659   
     30. B(C  30,C  28)                  1.4095         0.581597   
     31. B(C  31,C  29)                  1.3887         0.627751   
     32. B(H  32,C  29)                  1.0851         0.366609   
     33. B(C  33,C  30)                  1.3835         0.639875   
     34. B(H  34,C  30)                  1.0838         0.368353   
     35. B(C  35,C  33)                  1.4137         0.572789   
     36. B(C  35,C  31)                  1.3955         0.612327   
     37. B(H  36,C  31)                  1.0869         0.364255   
     38. B(O  37,C  35)                  1.3557         0.634749   
     39. B(H  38,O  37)                  0.9678         0.505287   
     40. B(O  39,C  33)                  1.3688         0.604913   
     41. B(C  40,O  39)                  1.4367         0.471434   
     42. B(H  41,C  40)                  1.0949         0.353724   
     43. B(H  42,C  40)                  1.0895         0.360725   
     44. B(H  43,C  40)                  1.0914         0.358250   
     45. B(C  44,C  26)                  1.5226         0.383906   
     46. B(C  44,C   4)                  1.5144         0.395604   
     47. B(H  45,C  44)                  1.0905         0.359442   
     48. B(H  46,C  44)                  1.2607         0.192335   
     49. B(O  47,H  46)                  1.3077         0.144970   
     50. B(N  49,O  48)                  1.1952         1.025133   
     51. B(N  49,O  47)                  1.3487         0.583238   
     52. A(H   1,C   0,C   6)          114.1067         0.340940   
     53. A(H   1,C   0,C   2)          118.7642         0.362379   
     54. A(C   2,C   0,C   6)          127.1269         0.428305   
     55. A(C   0,C   2,H   3)          121.2321         0.362601   
     56. A(C   0,C   2,C   4)          125.5155         0.425061   
     57. A(H   3,C   2,C   4)          113.2523         0.338734   
     58. A(C   2,C   4,O   5)          121.2927         0.450894   
     59. A(C   2,C   4,C  44)          119.5125         0.382883   
     60. A(O   5,C   4,C  44)          119.1812         0.435720   
     61. A(C   0,C   6,C   7)          118.7627         0.413708   
     62. A(C   7,C   6,C   8)          117.9561         0.424893   
     63. A(C   0,C   6,C   8)          123.2806         0.412466   
     64. A(C   9,C   7,H  10)          119.3649         0.355104   
     65. A(C   6,C   7,H  10)          119.5642         0.350945   
     66. A(C   6,C   7,C   9)          121.0691         0.431537   
     67. A(C   6,C   8,H  12)          121.1123         0.350200   
     68. A(C   6,C   8,C  11)          121.6468         0.431552   
     69. A(C  11,C   8,H  12)          117.2371         0.356401   
     70. A(C  13,C   9,H  14)          119.4597         0.352644   
     71. A(C   7,C   9,H  14)          120.2051         0.354760   
     72. A(C   7,C   9,C  13)          120.3300         0.434205   
     73. A(C  13,C  11,O  17)          121.1478         0.423135   
     74. A(C   8,C  11,O  17)          119.3444         0.432418   
     75. A(C   8,C  11,C  13)          119.4208         0.430205   
     76. A(C  11,C  13,O  15)          117.4759         0.427180   
     77. A(C   9,C  13,O  15)          122.9483         0.432473   
     78. A(C   9,C  13,C  11)          119.5718         0.426179   
     79. A(C  13,O  15,H  16)          109.9488         0.370308   
     80. A(C  11,O  17,C  18)          115.8885         0.406395   
     81. A(O  17,C  18,H  21)          111.5500         0.334617   
     82. A(H  19,C  18,H  20)          109.3432         0.290141   
     83. A(O  17,C  18,H  20)          105.9884         0.335006   
     84. A(O  17,C  18,H  19)          110.5675         0.333920   
     85. A(H  20,C  18,H  21)          109.4556         0.290713   
     86. A(H  19,C  18,H  21)          109.8455         0.289822   
     87. A(C  24,C  22,C  28)          127.1545         0.427715   
     88. A(H  23,C  22,C  28)          114.0974         0.339892   
     89. A(H  23,C  22,C  24)          118.7479         0.362706   
     90. A(H  25,C  24,C  26)          112.7508         0.337914   
     91. A(C  22,C  24,C  26)          125.9610         0.424779   
     92. A(C  22,C  24,H  25)          121.2731         0.362923   
     93. A(C  24,C  26,O  27)          120.8996         0.450883   
     94. A(O  27,C  26,C  44)          120.0485         0.434275   
     95. A(C  24,C  26,C  44)          119.0497         0.380120   
     96. A(C  29,C  28,C  30)          117.8381         0.425654   
     97. A(C  22,C  28,C  30)          123.2498         0.411615   
     98. A(C  22,C  28,C  29)          118.9121         0.412993   
     99. A(C  31,C  29,H  32)          119.2780         0.354727   
    100. A(C  28,C  29,H  32)          119.6020         0.351290   
    101. A(C  28,C  29,C  31)          121.1182         0.431523   
    102. A(C  33,C  30,H  34)          117.1228         0.356167   
    103. A(C  28,C  30,H  34)          121.1549         0.350455   
    104. A(C  28,C  30,C  33)          121.7171         0.431546   
    105. A(C  35,C  31,H  36)          119.3882         0.352850   
    106. A(C  29,C  31,H  36)          120.2246         0.354340   
    107. A(C  29,C  31,C  35)          120.3815         0.434064   
    108. A(C  35,C  33,O  39)          121.1976         0.423277   
    109. A(C  30,C  33,O  39)          119.2413         0.431763   
    110. A(C  30,C  33,C  35)          119.4750         0.430365   
    111. A(C  33,C  35,O  37)          117.5639         0.426940   
    112. A(C  31,C  35,O  37)          122.9658         0.432084   
    113. A(C  31,C  35,C  33)          119.4655         0.426981   
    114. A(C  35,O  37,H  38)          109.8093         0.369791   
    115. A(C  33,O  39,C  40)          115.7773         0.406231   
    116. A(H  41,C  40,H  42)          109.3179         0.290104   
    117. A(O  39,C  40,H  42)          106.0283         0.335098   
    118. A(O  39,C  40,H  41)          110.6087         0.334009   
    119. A(H  42,C  40,H  43)          109.4476         0.290683   
    120. A(H  41,C  40,H  43)          109.8142         0.289791   
    121. A(O  39,C  40,H  43)          111.5351         0.334715   
    122. A(H  45,C  44,H  46)          101.4048         0.264057   
    123. A(C  26,C  44,H  46)          103.5949         0.294443   
    124. A(C   4,C  44,H  46)          105.1972         0.295844   
    125. A(C  26,C  44,H  45)          114.8012         0.325678   
    126. A(C   4,C  44,H  45)          113.9673         0.327292   
    127. A(C   4,C  44,C  26)          115.6027         0.368654   
    128. L(C  44,H  46,O  47,C  26, 2) 174.9615         0.229875   
    129. L(C  44,H  46,O  47,C  26, 1) 180.2951         0.229875   
    130. A(H  46,O  47,N  49)          103.1077         0.294906   
    131. A(O  47,N  49,O  48)          111.6365         0.457830   
    132. D(H   3,C   2,C   0,C   6)      0.6432         0.036189   
    133. D(C   4,C   2,C   0,C   6)   -179.4660         0.036189   
    134. D(H   3,C   2,C   0,H   1)   -179.9315         0.036189   
    135. D(C   4,C   2,C   0,H   1)     -0.0408         0.036189   
    136. D(C  44,C   4,C   2,H   3)   -179.5699         0.015558   
    137. D(O   5,C   4,C   2,H   3)      1.7803         0.015558   
    138. D(O   5,C   4,C   2,C   0)   -178.1180         0.015558   
    139. D(C  44,C   4,C   2,C   0)      0.5317         0.015558   
    140. D(C   8,C   6,C   0,H   1)    179.4791         0.016943   
    141. D(C   8,C   6,C   0,C   2)     -1.0729         0.016943   
    142. D(C   7,C   6,C   0,C   2)    179.2149         0.016943   
    143. D(C   7,C   6,C   0,H   1)     -0.2332         0.016943   
    144. D(H  10,C   7,C   6,C   0)     -0.2574         0.023882   
    145. D(C   9,C   7,C   6,C   8)      0.5131         0.023882   
    146. D(C   9,C   7,C   6,C   0)   -179.7593         0.023882   
    147. D(H  10,C   7,C   6,C   8)   -179.9851         0.023882   
    148. D(H  12,C   8,C   6,C   7)   -179.8389         0.023049   
    149. D(H  12,C   8,C   6,C   0)      0.4467         0.023049   
    150. D(C  11,C   8,C   6,C   0)    179.7202         0.023049   
    151. D(C  11,C   8,C   6,C   7)     -0.5654         0.023049   
    152. D(C  13,C   9,C   7,H  10)   -179.4119         0.027669   
    153. D(H  14,C   9,C   7,C   6)    179.2620         0.027669   
    154. D(H  14,C   9,C   7,H  10)     -0.2408         0.027669   
    155. D(C  13,C   9,C   7,C   6)      0.0910         0.027669   
    156. D(O  17,C  11,C   8,H  12)      2.6668         0.028698   
    157. D(O  17,C  11,C   8,C   6)   -176.6336         0.028698   
    158. D(C  13,C  11,C   8,H  12)    179.3146         0.028698   
    159. D(C  13,C  11,C   8,C   6)      0.0141         0.028698   
    160. D(O  15,C  13,C   9,C   7)    178.5921         0.025671   
    161. D(C  11,C  13,C   9,H  14)   -179.8326         0.025671   
    162. D(C  11,C  13,C   9,C   7)     -0.6554         0.025671   
    163. D(O  15,C  13,C  11,O  17)     -2.1011         0.022227   
    164. D(O  15,C  13,C  11,C   8)   -178.6866         0.022227   
    165. D(C   9,C  13,C  11,O  17)    177.1872         0.022227   
    166. D(C   9,C  13,C  11,C   8)      0.6016         0.022227   
    167. D(O  15,C  13,C   9,H  14)     -0.5851         0.025671   
    168. D(H  16,O  15,C  13,C  11)    179.3749         0.030267   
    169. D(H  16,O  15,C  13,C   9)      0.1126         0.030267   
    170. D(C  18,O  17,C  11,C  13)     71.0175         0.027001   
    171. D(C  18,O  17,C  11,C   8)   -112.3944         0.027001   
    172. D(H  21,C  18,O  17,C  11)    -64.0847         0.017448   
    173. D(H  20,C  18,O  17,C  11)    176.8587         0.017448   
    174. D(H  19,C  18,O  17,C  11)     58.4652         0.017448   
    175. D(C  26,C  24,C  22,C  28)   -178.6266         0.036826   
    176. D(C  26,C  24,C  22,H  23)      1.1904         0.036826   
    177. D(H  25,C  24,C  22,C  28)     -0.1453         0.036826   
    178. D(H  25,C  24,C  22,H  23)    179.6718         0.036826   
    179. D(C  44,C  26,C  24,H  25)   -176.9725         0.015199   
    180. D(C  44,C  26,C  24,C  22)      1.6200         0.015199   
    181. D(O  27,C  26,C  24,H  25)      2.4870         0.015199   
    182. D(O  27,C  26,C  24,C  22)   -178.9205         0.015199   
    183. D(C  30,C  28,C  22,C  24)      0.5281         0.016415   
    184. D(C  30,C  28,C  22,H  23)   -179.2962         0.016415   
    185. D(C  29,C  28,C  22,C  24)   -179.3780         0.016415   
    186. D(C  29,C  28,C  22,H  23)      0.7977         0.016415   
    187. D(H  32,C  29,C  28,C  30)   -179.9676         0.024183   
    188. D(H  32,C  29,C  28,C  22)     -0.0564         0.024183   
    189. D(C  31,C  29,C  28,C  30)      0.5218         0.024183   
    190. D(C  31,C  29,C  28,C  22)   -179.5670         0.024183   
    191. D(H  34,C  30,C  28,C  29)   -179.6647         0.023245   
    192. D(H  34,C  30,C  28,C  22)      0.4283         0.023245   
    193. D(C  33,C  30,C  28,C  29)     -0.5169         0.023245   
    194. D(C  33,C  30,C  28,C  22)    179.5760         0.023245   
    195. D(H  36,C  31,C  29,H  32)     -0.3667         0.027311   
    196. D(H  36,C  31,C  29,C  28)    179.1455         0.027311   
    197. D(C  35,C  31,C  29,H  32)   -179.4965         0.027311   
    198. D(C  35,C  31,C  29,C  28)      0.0157         0.027311   
    199. D(O  39,C  33,C  30,H  34)      2.4892         0.028447   
    200. D(O  39,C  33,C  30,C  28)   -176.6914         0.028447   
    201. D(C  35,C  33,C  30,H  34)    179.1558         0.028447   
    202. D(C  35,C  33,C  30,C  28)     -0.0248         0.028447   
    203. D(O  37,C  35,C  33,C  30)   -178.6538         0.022515   
    204. D(C  31,C  35,C  33,O  39)    177.1730         0.022515   
    205. D(C  31,C  35,C  33,C  30)      0.5735         0.022515   
    206. D(O  37,C  35,C  31,H  36)     -0.5242         0.025907   
    207. D(O  37,C  35,C  31,C  29)    178.6128         0.025907   
    208. D(C  33,C  35,C  31,H  36)   -179.7078         0.025907   
    209. D(O  37,C  35,C  33,O  39)     -2.0543         0.022515   
    210. D(C  33,C  35,C  31,C  29)     -0.5708         0.025907   
    211. D(H  38,O  37,C  35,C  33)    179.5064         0.029664   
    212. D(H  38,O  37,C  35,C  31)      0.3083         0.029664   
    213. D(C  40,O  39,C  33,C  35)     70.8264         0.026754   
    214. D(C  40,O  39,C  33,C  30)   -112.5663         0.026754   
    215. D(H  43,C  40,O  39,C  33)    -64.0613         0.017520   
    216. D(H  42,C  40,O  39,C  33)    176.8755         0.017520   
    217. D(H  41,C  40,O  39,C  33)     58.4671         0.017520   
    218. D(H  46,C  44,C  26,O  27)     30.7501         0.010984   
    219. D(H  46,C  44,C  26,C  24)   -149.7857         0.010984   
    220. D(H  45,C  44,C  26,O  27)    140.3749         0.010984   
    221. D(H  45,C  44,C  26,C  24)    -40.1609         0.010984   
    222. D(C   4,C  44,C  26,O  27)    -83.7656         0.010984   
    223. D(C   4,C  44,C  26,C  24)     95.6986         0.010984   
    224. D(H  46,C  44,C   4,O   5)   -114.0397         0.011627   
    225. D(H  46,C  44,C   4,C   2)     67.2818         0.011627   
    226. D(H  45,C  44,C   4,O   5)    135.7786         0.011627   
    227. D(H  45,C  44,C   4,C   2)    -42.8998         0.011627   
    228. D(C  26,C  44,C   4,O   5)     -0.4454         0.011627   
    229. D(C  26,C  44,C   4,C   2)   -179.1238         0.011627   
    230. D(N  49,O  47,C  44,H  45)    147.7220         0.001504   
    231. D(N  49,O  47,C  44,C  26)    -93.5433         0.001504   
    232. D(N  49,O  47,C  44,C   4)     28.9461         0.001504   
    233. D(O  48,N  49,O  47,H  46)    179.8684         0.025732   
    -----------------------------------------------------------------

Number of atoms                         .... 50
Number of degrees of freedom            .... 233

         *************************************************************
         *                GEOMETRY OPTIMIZATION CYCLE   1            *
         *************************************************************
---------------------------------
CARTESIAN COORDINATES (ANGSTROEM)
---------------------------------
  C     -2.530290    0.300070   -0.184420
  H     -2.022870    0.586640   -1.101520
  C     -1.942790    0.584270    1.000900
  H     -2.413630    0.315210    1.941360
  C     -0.655290    1.257540    1.171450
  O     -0.178740    1.446130    2.283100
  C     -3.808230   -0.355180   -0.393910
  C     -4.261300   -0.549050   -1.710710
  C     -4.623560   -0.816660    0.660640
  C     -5.477470   -1.165280   -1.965840
  H     -3.654700   -0.204460   -2.541800
  C     -5.838460   -1.431680    0.422400
  H     -4.325280   -0.691590    1.695160
  C     -6.280060   -1.605540   -0.911000
  H     -5.819530   -1.297210   -2.988770
  O     -7.487210   -2.187660   -1.097990
  H     -7.684080   -2.243250   -2.044250
  O     -6.622870   -1.798660    1.480910
  C     -6.784930   -3.212570    1.681400
  H     -5.812840   -3.694040    1.828690
  H     -7.382030   -3.320860    2.586160
  H     -7.306300   -3.679050    0.843800
  C      2.756230    0.255860   -0.110400
  H      1.842190   -0.275060   -0.365220
  C      2.681810    1.571220    0.188440
  H      3.568340    2.140290    0.453840
  C      1.457610    2.376840    0.229500
  O      1.499630    3.568290    0.492960
  C      3.951550   -0.574520   -0.131980
  C      3.830990   -1.929150   -0.482280
  C      5.236670   -0.087440    0.180940
  C      4.939700   -2.764960   -0.509020
  H      2.855010   -2.334170   -0.729090
  C      6.350680   -0.907550    0.158630
  H      5.390590    0.947520    0.463530
  C      6.204040   -2.270810   -0.185530
  H      4.827630   -3.814370   -0.768790
  O      7.316510   -3.045420   -0.168010
  H      7.087770   -3.953470   -0.412430
  O      7.563520   -0.398360    0.537270
  C      8.545260   -0.282090   -0.505170
  H      8.174570    0.355630   -1.314260
  H      9.416100    0.186070   -0.047420
  H      8.824970   -1.259210   -0.902860
  C      0.120410    1.704520   -0.049990
  H      0.136880    0.971340   -0.857060
  H     -0.572320    2.624480   -0.563020
  O     -1.271840    3.550860   -1.165100
  O     -2.654720    5.012120   -0.541600
  N     -1.954320    4.124890   -0.153270

----------------------------
CARTESIAN COORDINATES (A.U.)
----------------------------
  NO LB      ZA    FRAG     MASS         X           Y           Z
   0 C     6.0000    0    12.011   -4.781555    0.567050   -0.348503
   1 H     1.0000    0     1.008   -3.822670    1.108589   -2.081571
   2 C     6.0000    0    12.011   -3.671341    1.104110    1.891427
   3 H     1.0000    0     1.008   -4.561100    0.595661    3.668639
   4 C     6.0000    0    12.011   -1.238319    2.376406    2.213720
   5 O     8.0000    0    15.999   -0.337770    2.732790    4.314434
   6 C     6.0000    0    12.011   -7.196512   -0.671193   -0.744382
   7 C     6.0000    0    12.011   -8.052690   -1.037554   -3.232773
   8 C     6.0000    0    12.011   -8.737262   -1.543264    1.248429
   9 C     6.0000    0    12.011  -10.350918   -2.202060   -3.714899
  10 H     1.0000    0     1.008   -6.906382   -0.386373   -4.803306
  11 C     6.0000    0    12.011  -11.033090   -2.705483    0.798220
  12 H     1.0000    0     1.008   -8.173595   -1.306916    3.203388
  13 C     6.0000    0    12.011  -11.867594   -3.034031   -1.721541
  14 H     1.0000    0     1.008  -10.997318   -2.451372   -5.647957
  15 O     8.0000    0    15.999  -14.148776   -4.134078   -2.074900
  16 H     1.0000    0     1.008  -14.520807   -4.239128   -3.863073
  17 O     8.0000    0    15.999  -12.515411   -3.398975    2.798514
  18 C     6.0000    0    12.011  -12.821660   -6.070877    3.177386
  19 H     1.0000    0     1.008  -10.984676   -6.980724    3.455723
  20 H     1.0000    0     1.008  -13.950015   -6.275516    4.887134
  21 H     1.0000    0     1.008  -13.806906   -6.952397    1.594551
  22 C     6.0000    0    12.011    5.208520    0.483505   -0.208626
  23 H     1.0000    0     1.008    3.481235   -0.519788   -0.690166
  24 C     6.0000    0    12.011    5.067886    2.969175    0.356100
  25 H     1.0000    0     1.008    6.743185    4.044562    0.857633
  26 C     6.0000    0    12.011    2.754484    4.491577    0.433692
  27 O     8.0000    0    15.999    2.833890    6.743091    0.931559
  28 C     6.0000    0    12.011    7.467347   -1.085685   -0.249406
  29 C     6.0000    0    12.011    7.239522   -3.645565   -0.911377
  30 C     6.0000    0    12.011    9.895872   -0.165238    0.341927
  31 C     6.0000    0    12.011    9.334680   -5.225017   -0.961908
  32 H     1.0000    0     1.008    5.395187   -4.410942   -1.377780
  33 C     6.0000    0    12.011   12.001046   -1.715021    0.299767
  34 H     1.0000    0     1.008   10.186739    1.790553    0.875945
  35 C     6.0000    0    12.011   11.723937   -4.291209   -0.350601
  36 H     1.0000    0     1.008    9.122899   -7.208115   -1.452803
  37 O     8.0000    0    15.999   13.826200   -5.755010   -0.317493
  38 H     1.0000    0     1.008   13.393944   -7.470976   -0.779380
  39 O     8.0000    0    15.999   14.292981   -0.752791    1.015293
  40 C     6.0000    0    12.011   16.148201   -0.533073   -0.954633
  41 H     1.0000    0     1.008   15.447699    0.672043   -2.483591
  42 H     1.0000    0     1.008   17.793850    0.351621   -0.089611
  43 H     1.0000    0     1.008   16.676776   -2.379562   -1.706158
  44 C     6.0000    0    12.011    0.227542    3.221076   -0.094467
  45 H     1.0000    0     1.008    0.258666    1.835567   -1.619609
  46 H     1.0000    0     1.008   -1.081528    4.959548   -1.063954
  47 O     8.0000    0    15.999   -2.403429    6.710153   -2.201720
  48 O     8.0000    0    15.999   -5.016694    9.471534   -1.023476
  49 N     7.0000    0    14.007   -3.693130    7.794912   -0.289638

--------------------------------
INTERNAL COORDINATES (ANGSTROEM)
--------------------------------
 C      0   0   0     0.000000000000     0.00000000     0.00000000
 H      1   0   0     1.086586320225     0.00000000     0.00000000
 C      1   2   0     1.353111005202   118.76423585     0.00000000
 H      3   1   2     1.085609782933   121.23213690   180.06846438
 C      3   1   2     1.462886203845   125.51546555   359.95922653
 O      5   3   1     1.224104494355   121.29273058   181.88200969
 C      1   2   3     1.451333616437   114.10665486   179.49798143
 C      7   1   2     1.405994396077   118.76269118   359.76682511
 C      7   1   2     1.410603594849   123.28056184   179.47906701
 C      8   7   1     1.387047295048   121.06914172   180.24071698
 H      8   7   1     1.085088206645   119.56415133   359.74257055
 C      9   7   1     1.382385585862   121.64680235   179.72016059
 H      9   7   1     1.083902714131   121.11233561     0.44667437
 C     10   8   7     1.396662808734   120.33001936     0.09097946
 H     10   8   7     1.086644538660   120.20514776   179.26202432
 O     14  10   8     1.353159294762   122.94828193   178.59211853
 H     16  14  10     0.968119844131   109.94878609     0.11264266
 O     12   9   7     1.367631817632   119.34437161   183.36636965
 C     18  12   9     1.437219945520   115.88854931   247.60562958
 H     19  18  12     1.094745026524   110.56750386    58.46517880
 H     19  18  12     1.089424523177   105.98844696   176.85872919
 H     19  18  12     1.091331309594   111.54997040   295.91534447
 C      5   3   1     3.779546395442   129.26411037   301.41928674
 H     23   5   3     1.087326262168    56.64078682     5.33516135
 C     23   5   3     1.350931386711    67.49299357   158.98537609
 H     25  23   5     1.086376208226   121.27313814   154.65787672
 C     25  23   5     1.466074741614   125.96095978   336.17652427
 O     27  25  23     1.220954525975   120.89956924   181.07950450
 C     23   5   3     1.455605215434   153.82369063   288.70532998
 C     29  23   5     1.404374323498   118.91205303    63.69332690
 C     29  23   5     1.409503198719   123.24976517   243.59943653
 C     30  29  23     1.388715682852   121.11823241   180.43300333
 H     30  29  23     1.085123650512   119.60199547   359.94362249
 C     31  29  23     1.383508738064   121.71709098   179.57600506
 H     31  29  23     1.083831479567   121.15488606     0.42827964
 C     32  30  29     1.395487598727   120.38149035     0.00000000
 H     32  30  29     1.086876941470   120.22463291   179.14547481
 O     36  32  30     1.355698013350   122.96583297   178.61280020
 H     38  36  32     0.967790228562   109.80934023     0.30828418
 O     34  31  29     1.368803700791   119.24130432   183.30863463
 C     40  34  31     1.436667426407   115.77731013   247.43372069
 H     41  40  34     1.094862777977   110.60870387    58.46713868
 H     41  40  34     1.089527949940   106.02826835   176.87553022
 H     41  40  34     1.091402086584   111.53509362   295.93867270
 C      5   3   1     1.514403276542   119.51249275     0.53173835
 H     45   5   3     1.090498123887   113.96733346   317.10021094
 H     45   5   3     1.260714494007   105.19716811    67.28183494
 O     47  45   5     1.307672918279   176.59751556   218.59761059
 O     48  47  45     2.106273992623   134.94239251   170.20960375
 N     49  48  47     1.195214383197    36.52866887   359.81890068

---------------------------
INTERNAL COORDINATES (A.U.)
---------------------------
 C      0   0   0     0.000000000000     0.00000000     0.00000000
 H      1   0   0     2.053350566090     0.00000000     0.00000000
 C      1   2   0     2.557009228628   118.76423585     0.00000000
 H      3   1   2     2.051505178049   121.23213690   180.06846438
 C      3   1   2     2.764454290359   125.51546555   359.95922653
 O      5   3   1     2.313222253633   121.29273058   181.88200969
 C      1   2   3     2.742623064019   114.10665486   179.49798143
 C      7   1   2     2.656944354414   118.76269118   359.76682511
 C      7   1   2     2.665654477789   123.28056184   179.47906701
 C      8   7   1     2.621139522437   121.06914172   180.24071698
 H      8   7   1     2.050519541707   119.56415133   359.74257055
 C      9   7   1     2.612330168760   121.64680235   179.72016059
 H      9   7   1     2.048279285521   121.11233561     0.44667437
 C     10   8   7     2.639310209940   120.33001936     0.09097946
 H     10   8   7     2.053460582989   120.20514776   179.26202432
 O     14  10   8     2.557100482670   122.94828193   178.59211853
 H     16  14  10     1.829481370222   109.94878609     0.11264266
 O     12   9   7     2.584449587362   119.34437161   183.36636965
 C     18  12   9     2.715952091242   115.88854931   247.60562958
 H     19  18  12     2.068768286604   110.56750386    58.46517880
 H     19  18  12     2.058713992383   105.98844696   176.85872919
 H     19  18  12     2.062317296506   111.54997040   295.91534447
 C      5   3   1     7.142307597835   129.26411037   301.41928674
 H     23   5   3     2.054748853718    56.64078682     5.33516135
 C     23   5   3     2.552890346602    67.49299357   158.98537609
 H     25  23   5     2.052953511955   121.27313814   154.65787672
 C     25  23   5     2.770479753511   125.96095978   336.17652427
 O     27  25  23     2.307269676065   120.89956924   181.07950450
 C     23   5   3     2.750695216279   153.82369063   288.70532998
 C     29  23   5     2.653882860922   118.91205303    63.69332690
 C     29  23   5     2.663575030466   123.24976517   243.59943653
 C     30  29  23     2.624292318472   121.11823241   180.43300333
 H     30  29  23     2.050586520908   119.60199547   359.94362249
 C     31  29  23     2.614452618828   121.71709098   179.57600506
 H     31  29  23     2.048144671704   121.15488606     0.42827964
 C     32  30  29     2.637089384877   120.38149035     0.00000000
 H     32  30  29     2.053899760653   120.22463291   179.14547481
 O     36  32  30     2.561897965532   122.96583297   178.61280020
 H     38  36  32     1.828858487067   109.80934023     0.30828418
 O     34  31  29     2.586664125593   119.24130432   183.30863463
 C     40  34  31     2.714907981435   115.77731013   247.43372069
 H     41  40  34     2.068990804601   110.60870387    58.46713868
 H     41  40  34     2.058909440639   106.02826835   176.87553022
 H     41  40  34     2.062451045634   111.53509362   295.93867270
 C      5   3   1     2.861807448977   119.51249275     0.53173835
 H     45   5   3     2.060742803700   113.96733346   317.10021094
 H     45   5   3     2.382405126739   105.19716811    67.28183494
 O     47  45   5     2.471143688293   176.59751556   218.59761059
 O     48  47  45     3.980281009058   134.94239251   170.20960375
 N     49  48  47     2.258627855565    36.52866887   359.81890068

---------------------
BASIS SET INFORMATION
---------------------
There are 4 groups of distinct atoms

 Group   1 Type C   : 11s5p1d contracted to 4s3p1d pattern {6311/311/1}
 Group   2 Type H   : 5s contracted to 3s pattern {311}
 Group   3 Type O   : 11s5p1d contracted to 4s3p1d pattern {6311/311/1}
 Group   4 Type N   : 11s5p1d contracted to 4s3p1d pattern {6311/311/1}

Atom   0C    basis set group =>   1
Atom   1H    basis set group =>   2
Atom   2C    basis set group =>   1
Atom   3H    basis set group =>   2
Atom   4C    basis set group =>   1
Atom   5O    basis set group =>   3
Atom   6C    basis set group =>   1
Atom   7C    basis set group =>   1
Atom   8C    basis set group =>   1
Atom   9C    basis set group =>   1
Atom  10H    basis set group =>   2
Atom  11C    basis set group =>   1
Atom  12H    basis set group =>   2
Atom  13C    basis set group =>   1
Atom  14H    basis set group =>   2
Atom  15O    basis set group =>   3
Atom  16H    basis set group =>   2
Atom  17O    basis set group =>   3
Atom  18C    basis set group =>   1
Atom  19H    basis set group =>   2
Atom  20H    basis set group =>   2
Atom  21H    basis set group =>   2
Atom  22C    basis set group =>   1
Atom  23H    basis set group =>   2
Atom  24C    basis set group =>   1
Atom  25H    basis set group =>   2
Atom  26C    basis set group =>   1
Atom  27O    basis set group =>   3
Atom  28C    basis set group =>   1
Atom  29C    basis set group =>   1
Atom  30C    basis set group =>   1
Atom  31C    basis set group =>   1
Atom  32H    basis set group =>   2
Atom  33C    basis set group =>   1
Atom  34H    basis set group =>   2
Atom  35C    basis set group =>   1
Atom  36H    basis set group =>   2
Atom  37O    basis set group =>   3
Atom  38H    basis set group =>   2
Atom  39O    basis set group =>   3
Atom  40C    basis set group =>   1
Atom  41H    basis set group =>   2
Atom  42H    basis set group =>   2
Atom  43H    basis set group =>   2
Atom  44C    basis set group =>   1
Atom  45H    basis set group =>   2
Atom  46H    basis set group =>   2
Atom  47O    basis set group =>   3
Atom  48O    basis set group =>   3
Atom  49N    basis set group =>   4
---------------------------------
AUXILIARY/J BASIS SET INFORMATION
---------------------------------
There are 4 groups of distinct atoms

 Group   1 Type C   : 12s5p4d2f1g contracted to 6s4p3d1f1g pattern {711111/2111/211/2/1}
 Group   2 Type H   : 5s2p1d contracted to 3s1p1d pattern {311/2/1}
 Group   3 Type O   : 12s5p4d2f1g contracted to 6s4p3d1f1g pattern {711111/2111/211/2/1}
 Group   4 Type N   : 12s5p4d2f1g contracted to 6s4p3d1f1g pattern {711111/2111/211/2/1}

Atom   0C    basis set group =>   1
Atom   1H    basis set group =>   2
Atom   2C    basis set group =>   1
Atom   3H    basis set group =>   2
Atom   4C    basis set group =>   1
Atom   5O    basis set group =>   3
Atom   6C    basis set group =>   1
Atom   7C    basis set group =>   1
Atom   8C    basis set group =>   1
Atom   9C    basis set group =>   1
Atom  10H    basis set group =>   2
Atom  11C    basis set group =>   1
Atom  12H    basis set group =>   2
Atom  13C    basis set group =>   1
Atom  14H    basis set group =>   2
Atom  15O    basis set group =>   3
Atom  16H    basis set group =>   2
Atom  17O    basis set group =>   3
Atom  18C    basis set group =>   1
Atom  19H    basis set group =>   2
Atom  20H    basis set group =>   2
Atom  21H    basis set group =>   2
Atom  22C    basis set group =>   1
Atom  23H    basis set group =>   2
Atom  24C    basis set group =>   1
Atom  25H    basis set group =>   2
Atom  26C    basis set group =>   1
Atom  27O    basis set group =>   3
Atom  28C    basis set group =>   1
Atom  29C    basis set group =>   1
Atom  30C    basis set group =>   1
Atom  31C    basis set group =>   1
Atom  32H    basis set group =>   2
Atom  33C    basis set group =>   1
Atom  34H    basis set group =>   2
Atom  35C    basis set group =>   1
Atom  36H    basis set group =>   2
Atom  37O    basis set group =>   3
Atom  38H    basis set group =>   2
Atom  39O    basis set group =>   3
Atom  40C    basis set group =>   1
Atom  41H    basis set group =>   2
Atom  42H    basis set group =>   2
Atom  43H    basis set group =>   2
Atom  44C    basis set group =>   1
Atom  45H    basis set group =>   2
Atom  46H    basis set group =>   2
Atom  47O    basis set group =>   3
Atom  48O    basis set group =>   3
Atom  49N    basis set group =>   4
------------------------------------------------------------------------------
                           ORCA GTO INTEGRAL CALCULATION
                           -- RI-GTO INTEGRALS CHOSEN --
------------------------------------------------------------------------------
------------------------------------------------------------------------------
                   ___                                                        
                  /   \      - P O W E R E D   B Y -                         
                 /     \                                                     
                 |  |  |   _    _      __       _____    __    __             
                 |  |  |  | |  | |    /  \     |  _  \  |  |  /  |          
                  \  \/   | |  | |   /    \    | | | |  |  | /  /          
                 / \  \   | |__| |  /  /\  \   | |_| |  |  |/  /          
                |  |  |   |  __  | /  /__\  \  |    /   |      \           
                |  |  |   | |  | | |   __   |  |    \   |  |\   \          
                \     /   | |  | | |  |  |  |  | |\  \  |  | \   \       
                 \___/    |_|  |_| |__|  |__|  |_| \__\ |__|  \__/        
                                                                              
                      - O R C A' S   B I G   F R I E N D -                    
                                      &                                       
                       - I N T E G R A L  F E E D E R -                       
                                                                              
 v1 FN, 2020, v2 2021                                                         
------------------------------------------------------------------------------


Reading SHARK input file CURCUMIN-OPT-FREQ-TS2-WB97M-V-6-311G-D-298.SHARKINP.tmp ... ok
----------------------
SHARK INTEGRAL PACKAGE
----------------------

Number of atoms                             ...     50
Number of basis functions                   ...    600
Number of shells                            ...    300
Maximum angular momentum                    ...      2
Integral batch strategy                     ... SHARK/LIBINT Hybrid
RI-J (if used) integral strategy            ... SPLIT-RIJ (Revised 2003 algorithm where possible)
Printlevel                                  ...      1
Contraction scheme used                     ... SEGMENTED contraction
Coulomb Range Separation                    ... NOT USED
Exchange Range Separation                   ... Long Range
   Mu parameter                             ...  0.300000
   Scaling (regular/separated)              ...  0.150000  0.850000
Finite Nucleus Model                        ... NOT USED
Auxiliary Coulomb fitting basis             ... AVAILABLE
   # of basis functions in Aux-J            ...   1690
   # of shells in Aux-J                     ...    550
   Maximum angular momentum in Aux-J        ...      4
Auxiliary J/K fitting basis                 ... NOT available
Auxiliary Correlation fitting basis         ... NOT available
Auxiliary 'external' fitting basis          ... NOT available
Integral threshold                          ...     2.500000e-11
Primitive cut-off                           ...     2.500000e-12
Primitive pair pre-selection threshold      ...     2.500000e-12

Calculating pre-screening integrals         ... done (  0.1 sec) Dimension = 300
Organizing shell pair data                  ... done (  0.2 sec)
Shell pair information
Total number of shell pairs                 ...     45150
Shell pairs after pre-screening             ...     20708
Total number of primitive shell pairs       ...    187045
Primitive shell pairs kept                  ...     50616
          la=0 lb=0:   7209 shell pairs
          la=1 lb=0:   7703 shell pairs
          la=1 lb=1:   2119 shell pairs
          la=2 lb=0:   2267 shell pairs
          la=2 lb=1:   1216 shell pairs
          la=2 lb=2:    194 shell pairs

Calculating one electron integrals          ... done (  0.1 sec)
Calculating RI/J V-Matrix + Cholesky decomp.... done (  0.5 sec)
Calculating Nuclear repulsion               ... done (  0.0 sec) ENN=   2589.482521009483 Eh

SHARK setup successfully completed in   1.6 seconds

Maximum memory used throughout the entire GTOINT-calculation: 112.8 MB
-------------------------------------------------------------------------------
                                 ORCA SCF
-------------------------------------------------------------------------------

------------
SCF SETTINGS
------------
Hamiltonian:
 Density Functional     Method          .... DFT(GTOs)
  Functional kind                       .... Exchange-Correlation
  Functional name                       .... wB97M-V exchange-correlation functional
  Functional family                     .... Hybrid MGGA
  Functional refs                              
    [ 0] N. Mardirossian and M. Head-Gordon, J. Chem. Phys. 144, 214110 (2016)
  Fraction of HF Exchange (short range) .... 0.1500
  Fraction of HF Exchange (long range)  .... 1.0000
  Range separation parameter mu         .... 0.3000
  Functional external parameters         .... 0
   Density functional embedding theory  .... OFF
 Long-range corrected/Screened/Range-Separated Hybrid DFT is turned on
   Amount of maximum screened exact exchange              ....  0.850000
   Range separation parameter mu (erf(mu*r12)/r12)        ....  0.300000
   NL short-range parameter             ....  6.000000
   NL long-range parameter              ....  0.010000
 RI-approximation to the Coulomb term is turned on
   Number of AuxJ basis functions       .... 1690
   RIJ-ON(X) (HFX calculated with O(N)) .... on


General Settings:
 Integral files         IntName         .... CURCUMIN-OPT-FREQ-TS2-WB97M-V-6-311G-D-298
 Hartree-Fock type      HFTyp           .... UHF
 Total Charge           Charge          ....    0
 Multiplicity           Mult            ....    2
 Number of Electrons    NEL             ....  217
 Basis Dimension        Dim             ....  600
 Nuclear Repulsion      ENuc            ....   2589.4825210095 Eh

Convergence Acceleration:
 DIIS                   CNVDIIS         .... on
   Start iteration      DIISMaxIt       ....    12
   Startup error        DIISStart       ....  0.200000
   # of expansion vecs  DIISMaxEq       ....     5
   Bias factor          DIISBfac        ....   1.050
   Max. coefficient     DIISMaxC        ....  10.000
 Trust-Rad. Augm. Hess. CNVTRAH         .... off
 SOSCF                  CNVSOSCF        .... off
 Level Shifting         CNVShift        .... on
   Level shift para.    LevelShift      ....    0.2500
   Turn off err/grad.   ShiftErr        ....    0.0010
 Zerner damping         CNVZerner       .... off
 Static damping         CNVDamp         .... on
   Fraction old density DampFac         ....    0.7000
   Max. Damping (<1)    DampMax         ....    0.9800
   Min. Damping (>=0)   DampMin         ....    0.0000
   Turn off err/grad.   DampErr         ....    0.1000
 Fernandez-Rico         CNVRico         .... off

SCF Procedure:
 Maximum # iterations   MaxIter         ....   125
 SCF integral mode      SCFMode         .... Direct
   Integral package                     .... SHARK and LIBINT hybrid scheme
 Reset frequency        DirectResetFreq ....    20
 Integral Threshold     Thresh          ....  2.500e-11 Eh
 Primitive CutOff       TCut            ....  2.500e-12 Eh

Convergence Tolerance:
 Convergence Check Mode ConvCheckMode   .... Total+1el-Energy
 Convergence forced     ConvForced      .... 0
 Energy Change          TolE            ....  1.000e-08 Eh
 1-El. energy change                    ....  1.000e-05 Eh
 DIIS Error             TolErr          ....  5.000e-07


Diagonalization of the overlap matrix:
Smallest eigenvalue                        ... 1.748e-04
Time for diagonalization                   ...    0.037 sec
Threshold for overlap eigenvalues          ... 1.000e-08
Number of eigenvalues below threshold      ... 0
Time for construction of square roots      ...    0.054 sec
Total time needed                          ...    0.091 sec

Time for model grid setup =    1.300 sec

------------------------------
INITIAL GUESS: MODEL POTENTIAL
------------------------------
Loading Hartree-Fock densities                     ... done
Calculating cut-offs                               ... done
Initializing the effective Hamiltonian             ... done
Setting up the integral package (SHARK)            ... done
Starting the Coulomb interaction                   ... done (   1.5 sec)
Reading the grid                                   ... done
Mapping shells                                     ... done
Starting the XC term evaluation                    ... done (   0.7 sec)
  promolecular density results
     # of electrons  =    216.994643692
     EX              =   -184.981821950
     EC              =     -7.289223797
     EX+EC           =   -192.271045746
Transforming the Hamiltonian                       ... done (   0.0 sec)
Diagonalizing the Hamiltonian                      ... done (   0.0 sec)
Back transforming the eigenvectors                 ... done (   0.0 sec)
Now organizing SCF variables                       ... done
                      ------------------
                      INITIAL GUESS DONE (   3.7 sec)
                      ------------------
-------------------
DFT GRID GENERATION
-------------------

General Integration Accuracy     IntAcc      ... 4.388
Radial Grid Type                 RadialGrid  ... OptM3 with GC (2021)
Angular Grid (max. ang.)         AngularGrid ... 4 (Lebedev-302)
Angular grid pruning method      GridPruning ... 4 (adaptive)
Weight generation scheme         WeightScheme... Becke
Basis function cutoff            BFCut       ... 1.0000e-11
Integration weight cutoff        WCut        ... 1.0000e-14
Angular grids for H and He will be reduced by one unit
Partially contracted basis set               ... off
Rotationally invariant grid construction     ... off

Total number of grid points                  ...   244080
Total number of batches                      ...     3837
Average number of points per batch           ...       63
Average number of grid points per atom       ...     4882

------------------
NL GRID GENERATION
------------------

General Integration Accuracy     IntAcc      ... 4.004
Radial Grid Type                 RadialGrid  ... OptM3 with GC (2021)
Angular Grid (max. ang.)         AngularGrid ... 2 (Lebedev-110)
Angular grid pruning method      GridPruning ... 4 (adaptive)
Weight generation scheme         WeightScheme... Becke
Basis function cutoff            BFCut       ... 1.0000e-10
Integration weight cutoff        WCut        ... 1.0000e-14
Angular grids for H and He will be reduced by one unit
Partially contracted basis set               ... off
Rotationally invariant grid construction     ... off

Total number of grid points                  ...    78582
Total number of batches                      ...     1255
Average number of points per batch           ...       62
Average number of grid points per atom       ...     1572
Time for grid setup =    5.511 sec


--------------------
CPCM SOLVATION MODEL
--------------------
CPCM parameters:
  Epsilon                                         ...       7.0000
  Refrac                                          ...       1.8534
  Rsolv                                           ...       1.3000
  Surface type                                    ... GAUSSIAN VDW
  Epsilon function type                           ...         CPCM
Radii:
 Radius for C  used is    3.8550 Bohr (=   2.0400 Ang.)
 Radius for H  used is    2.4944 Bohr (=   1.3200 Ang.)
 Radius for O  used is    3.4469 Bohr (=   1.8240 Ang.)
 Radius for N  used is    3.5149 Bohr (=   1.8600 Ang.)
Calculating surface                               ...        done! (  0.0s)
GEPOL surface points                              ...         2742
GEPOL Volume                                      ...    3263.7808
GEPOL Surface-area                                ...    1708.3460
Calculating surface distance matrix               ...        done! (  0.0s)
Performing Cholesky decomposition & store         ...        done! (  0.7s)
Overall time for CPCM initialization              ...                 0.8s
--------------
SCF ITERATIONS
--------------
ITER       Energy         Delta-E        Max-DP      RMS-DP      [F,P]     Damp
               ***  Starting incremental Fock matrix formation  ***
  0  -1467.6901138087   0.000000000000 0.06845446  0.00049424  0.1568439 0.7000
  1  -1467.9822794516  -0.292165642914 0.04542975  0.00037065  0.0768470 0.7000
                               ***Turning on DIIS***
  2  -1468.1264747680  -0.144195316424 0.06023698  0.00070681  0.0307020 0.0000
  3  -1468.3763212470  -0.249846478997 0.04266505  0.00024753  0.0378336 0.0000
  4  -1468.4079833789  -0.031662131917 0.00595244  0.00006559  0.0076019 0.0000
  5  -1468.4106324060  -0.002649027028 0.00281247  0.00003780  0.0044014 0.0000
  6  -1468.4118462823  -0.001213876337 0.00292772  0.00003365  0.0035920 0.0000
  7  -1468.4128892011  -0.001042918844 0.00327573  0.00003429  0.0035784 0.0000
  8  -1468.4139556798  -0.001066478683 0.00285598  0.00003031  0.0038075 0.0000
  9  -1468.4149189783  -0.000963298443 0.00178789  0.00001759  0.0037817 0.0000
 10  -1468.4154764766  -0.000557498328 0.00048396  0.00000591  0.0036229 0.0000
 11  -1468.4155703651  -0.000093888504 0.00033874  0.00000381  0.0031575 0.0000
 12  -1468.4156557955  -0.000085430407 0.00075779  0.00000749  0.0030242 0.0000
 13  -1468.4159009788  -0.000245183327 0.00128543  0.00001197  0.0030145 0.0000
 14  -1468.4163062909  -0.000405312031 0.00111401  0.00001008  0.0031357 0.0000
 15  -1468.4166469049  -0.000340614092 0.00385464  0.00003393  0.0034444 0.0000
 16  -1468.4178106439  -0.001163738902 0.00300803  0.00002470  0.0046774 0.0000
 17  -1468.4186884139  -0.000877770085 0.00063825  0.00000597  0.0042398 0.0000
 18  -1468.4185999631   0.000088450838 0.00030407  0.00000326  0.0037157 0.0000
 19  -1468.4185018502   0.000098112909 0.00077033  0.00000630  0.0039038 0.0000
               *** Restarting incremental Fock matrix formation ***
                                   *** Resetting DIIS ***
 20  -1468.4187339834  -0.000232133236 0.00395401  0.00003314  0.0038446 0.0000
 21  -1468.4198837354  -0.001149751974 0.00351205  0.00002670  0.0055862 0.0000
 22  -1468.4209019901  -0.001018254730 0.00269074  0.00001948  0.0044377 0.0000
 23  -1468.4216399889  -0.000737998751 0.00129479  0.00001297  0.0042276 0.0000
 24  -1468.4211272505   0.000512738404 0.00042585  0.00000324  0.0048023 0.0000
 25  -1468.4210059412   0.000121309310 0.00351630  0.00002877  0.0048102 0.0000
 26  -1468.4221914262  -0.001185485067 0.00255827  0.00001847  0.0041350 0.0000
 27  -1468.4229352304  -0.000743804216 0.00450778  0.00003473  0.0044077 0.0000
 28  -1468.4243584085  -0.001423178071 0.00562546  0.00004067  0.0048128 0.0000
 29  -1468.4260367586  -0.001678350058 0.00547414  0.00003727  0.0048626 0.0000
 30  -1468.4275876119  -0.001550853363 0.00411864  0.00002553  0.0049230 0.0000
 31  -1468.4286350556  -0.001047443644 0.00205966  0.00001519  0.0048402 0.0000
 32  -1468.4280416271   0.000593428499 0.00155436  0.00001094  0.0045881 0.0000
 33  -1468.4285055465  -0.000463919416 0.00427256  0.00002873  0.0045197 0.0000
 34  -1468.4297219487  -0.001216402200 0.00483463  0.00003062  0.0045547 0.0000
 35  -1468.4309860554  -0.001264106671 0.01125425  0.00007103  0.0046475 0.0000
 36  -1468.4337486715  -0.002762616107 0.00585469  0.00003428  0.0044728 0.0000
 37  -1468.4350168050  -0.001268133537 0.01951149  0.00011972  0.0040922 0.0000
 38  -1468.4385464820  -0.003529676975 0.00487062  0.00002464  0.0040765 0.0000
 39  -1468.4388614053  -0.000314923330 0.01918281  0.00011725  0.0029750 0.0000
               *** Restarting incremental Fock matrix formation ***
                                   *** Resetting DIIS ***
 40  -1468.4410641502  -0.002202744927 0.00540471  0.00003114  0.0039555 0.0000
 41  -1468.4415581138  -0.000493963593 0.00380958  0.00001537  0.0032036 0.0000
 42  -1468.4418262180  -0.000268104119 0.00268980  0.00001303  0.0016775 0.0000
 43  -1468.4420056667  -0.000179448700 0.00314094  0.00001667  0.0017323 0.0000
 44  -1468.4422177435  -0.000212076842 0.00438880  0.00002517  0.0013409 0.0000
 45  -1468.4424796928  -0.000261949283 0.00252057  0.00001690  0.0011769 0.0000
 46  -1468.4426236895  -0.000143996701 0.00634040  0.00003812  0.0007981 0.0000
 47  -1468.4428308586  -0.000207169107 0.00317288  0.00002054  0.0004106 0.0000
 48  -1468.4428742023  -0.000043343698 0.00095303  0.00000626  0.0002551 0.0000
 49  -1468.4428789479  -0.000004745639 0.00028225  0.00000188  0.0000639 0.0000
 50  -1468.4428794604  -0.000000512448 0.00007579  0.00000065  0.0000601 0.0000
 51  -1468.4428795932  -0.000000132863 0.00006687  0.00000056  0.0000344 0.0000
 52  -1468.4428796988  -0.000000105520 0.00004118  0.00000036  0.0000181 0.0000
 53  -1468.4428797374  -0.000000038669 0.00002492  0.00000027  0.0000120 0.0000
 54  -1468.4428797790  -0.000000041535 0.00002031  0.00000018  0.0000078 0.0000
 55  -1468.4428797893  -0.000000010293 0.00001411  0.00000013  0.0000061 0.0000
 56  -1468.4428798001  -0.000000010809 0.00001499  0.00000012  0.0000046 0.0000
 57  -1468.4428797962   0.000000003862 0.00000895  0.00000008  0.0000040 0.0000
                 **** Energy Check signals convergence ****

               *****************************************************
               *                     SUCCESS                       *
               *           SCF CONVERGED AFTER  58 CYCLES          *
               *****************************************************


----------------
TOTAL SCF ENERGY
----------------

Total Energy       :        -1468.44287980 Eh          -39958.36220 eV

Components:
Nuclear Repulsion  :         2589.48252101 Eh           70463.40169 eV
Electronic Energy  :        -4057.92540081 Eh         -110421.76389 eV
One Electron Energy:        -7149.32221470 Eh         -194542.94783 eV
Two Electron Energy:         3091.39681389 Eh           84121.18394 eV
CPCM Dielectric    :           -0.04789491 Eh              -1.30329 eV

Virial components:
Potential Energy   :        -2933.39912984 Eh          -79821.84839 eV
Kinetic Energy     :         1464.95625004 Eh           39863.48618 eV
Virial Ratio       :            2.00238002


DFT components:
N(Alpha)           :      109.000026844594 electrons
N(Beta)            :      108.000024972525 electrons
N(Total)           :      217.000051817118 electrons
NL Energy, E(C,NL) :        0.823496490965 Eh       
E(XC)              :     -139.413837092022 Eh       
DFET-embed. en.    :        0.000000000000 Eh       
CPCM Solvation Model Properties:
Surface-charge          :           -0.02733943
Charge-correction       :            0.00015552 Eh               0.00423 eV
Free-energy (cav+disp)  :  This term is not implemented in the current solvation scheme

---------------
SCF CONVERGENCE
---------------

  Last Energy change         ...   -4.7796e-09  Tolerance :   1.0000e-08
  Last MAX-Density change    ...    7.3171e-06  Tolerance :   1.0000e-07
  Last RMS-Density change    ...    5.9112e-08  Tolerance :   5.0000e-09
  Last DIIS Error            ...    2.3848e-06  Tolerance :   5.0000e-07

             **** THE GBW FILE WAS UPDATED (CURCUMIN-OPT-FREQ-TS2-WB97M-V-6-311G-D-298.gbw) ****
             **** DENSITY CURCUMIN-OPT-FREQ-TS2-WB97M-V-6-311G-D-298.scfp WAS UPDATED ****
             **** ENERGY FILE WAS UPDATED (CURCUMIN-OPT-FREQ-TS2-WB97M-V-6-311G-D-298.en.tmp) ****
----------------------
UHF SPIN CONTAMINATION
----------------------

Warning: in a DFT calculation there is little theoretical justification to 
         calculate <S**2> as in Hartree-Fock theory. We will do it anyways
         but you should keep in mind that the values have only limited relevance

Expectation value of <S**2>     :     0.762264
Ideal value S*(S+1) for S=0.5   :     0.750000
Deviation                       :     0.012264

             **** THE GBW FILE WAS UPDATED (CURCUMIN-OPT-FREQ-TS2-WB97M-V-6-311G-D-298.gbw) ****
             **** DENSITY CURCUMIN-OPT-FREQ-TS2-WB97M-V-6-311G-D-298.scfp WAS UPDATED ****
----------------
ORBITAL ENERGIES
----------------
                 SPIN UP ORBITALS
  NO   OCC          E(Eh)            E(eV) 
   0   1.0000     -19.429837      -528.7127 
   1   1.0000     -19.395203      -527.7703 
   2   1.0000     -19.370946      -527.1102 
   3   1.0000     -19.369704      -527.0764 
   4   1.0000     -19.350555      -526.5554 
   5   1.0000     -19.349811      -526.5351 
   6   1.0000     -19.335209      -526.1378 
   7   1.0000     -19.328877      -525.9655 
   8   1.0000     -14.687067      -399.6554 
   9   1.0000     -10.458015      -284.5771 
  10   1.0000     -10.454051      -284.4692 
  11   1.0000     -10.428149      -283.7644 
  12   1.0000     -10.426641      -283.7233 
  13   1.0000     -10.411607      -283.3142 
  14   1.0000     -10.410719      -283.2901 
  15   1.0000     -10.398377      -282.9542 
  16   1.0000     -10.384660      -282.5810 
  17   1.0000     -10.383676      -282.5542 
  18   1.0000     -10.382931      -282.5339 
  19   1.0000     -10.382447      -282.5207 
  20   1.0000     -10.368101      -282.1304 
  21   1.0000     -10.367259      -282.1075 
  22   1.0000     -10.363697      -282.0105 
  23   1.0000     -10.362589      -281.9804 
  24   1.0000     -10.360782      -281.9312 
  25   1.0000     -10.359570      -281.8982 
  26   1.0000     -10.358810      -281.8776 
  27   1.0000     -10.357631      -281.8455 
  28   1.0000     -10.357014      -281.8287 
  29   1.0000     -10.356857      -281.8244 
  30   1.0000      -1.359039       -36.9813 
  31   1.0000      -1.213018       -33.0079 
  32   1.0000      -1.211254       -32.9599 
  33   1.0000      -1.193233       -32.4695 
  34   1.0000      -1.186831       -32.2953 
  35   1.0000      -1.183412       -32.2023 
  36   1.0000      -1.182331       -32.1729 
  37   1.0000      -1.180956       -32.1354 
  38   1.0000      -1.001064       -27.2403 
  39   1.0000      -0.999892       -27.2084 
  40   1.0000      -0.952794       -25.9268 
  41   1.0000      -0.941050       -25.6073 
  42   1.0000      -0.910771       -24.7833 
  43   1.0000      -0.889833       -24.2136 
  44   1.0000      -0.888601       -24.1801 
  45   1.0000      -0.875580       -23.8257 
  46   1.0000      -0.859683       -23.3932 
  47   1.0000      -0.813123       -22.1262 
  48   1.0000      -0.812123       -22.0990 
  49   1.0000      -0.792915       -21.5763 
  50   1.0000      -0.791539       -21.5389 
  51   1.0000      -0.781687       -21.2708 
  52   1.0000      -0.751668       -20.4539 
  53   1.0000      -0.742393       -20.2015 
  54   1.0000      -0.707761       -19.2592 
  55   1.0000      -0.706160       -19.2156 
  56   1.0000      -0.690186       -18.7809 
  57   1.0000      -0.685341       -18.6491 
  58   1.0000      -0.670931       -18.2570 
  59   1.0000      -0.668415       -18.1885 
  60   1.0000      -0.640544       -17.4301 
  61   1.0000      -0.635524       -17.2935 
  62   1.0000      -0.631494       -17.1838 
  63   1.0000      -0.630414       -17.1545 
  64   1.0000      -0.622211       -16.9312 
  65   1.0000      -0.620214       -16.8769 
  66   1.0000      -0.618562       -16.8319 
  67   1.0000      -0.595835       -16.2135 
  68   1.0000      -0.587766       -15.9939 
  69   1.0000      -0.587416       -15.9844 
  70   1.0000      -0.580868       -15.8062 
  71   1.0000      -0.577720       -15.7206 
  72   1.0000      -0.576860       -15.6972 
  73   1.0000      -0.561653       -15.2833 
  74   1.0000      -0.553155       -15.0521 
  75   1.0000      -0.549546       -14.9539 
  76   1.0000      -0.548641       -14.9293 
  77   1.0000      -0.547373       -14.8948 
  78   1.0000      -0.538204       -14.6453 
  79   1.0000      -0.535736       -14.5781 
  80   1.0000      -0.534280       -14.5385 
  81   1.0000      -0.527816       -14.3626 
  82   1.0000      -0.522660       -14.2223 
  83   1.0000      -0.519752       -14.1432 
  84   1.0000      -0.512881       -13.9562 
  85   1.0000      -0.506437       -13.7808 
  86   1.0000      -0.486910       -13.2495 
  87   1.0000      -0.484989       -13.1972 
  88   1.0000      -0.483295       -13.1511 
  89   1.0000      -0.481725       -13.1084 
  90   1.0000      -0.479413       -13.0455 
  91   1.0000      -0.477205       -12.9854 
  92   1.0000      -0.470693       -12.8082 
  93   1.0000      -0.468403       -12.7459 
  94   1.0000      -0.459004       -12.4901 
  95   1.0000      -0.446059       -12.1379 
  96   1.0000      -0.445259       -12.1161 
  97   1.0000      -0.409295       -11.1375 
  98   1.0000      -0.398058       -10.8317 
  99   1.0000      -0.394905       -10.7459 
 100   1.0000      -0.390003       -10.6125 
 101   1.0000      -0.389133       -10.5888 
 102   1.0000      -0.386910       -10.5284 
 103   1.0000      -0.377835       -10.2814 
 104   1.0000      -0.371107       -10.0983 
 105   1.0000      -0.347607        -9.4589 
 106   1.0000      -0.346380        -9.4255 
 107   1.0000      -0.306112        -8.3297 
 108   1.0000      -0.304710        -8.2916 
 109   0.0000      -0.009135        -0.2486 
 110   0.0000      -0.004989        -0.1357 
 111   0.0000       0.021878         0.5953 
 112   0.0000       0.062927         1.7123 
 113   0.0000       0.063395         1.7251 
 114   0.0000       0.085655         2.3308 
 115   0.0000       0.091467         2.4890 
 116   0.0000       0.109392         2.9767 
 117   0.0000       0.109771         2.9870 
 118   0.0000       0.113879         3.0988 
 119   0.0000       0.127892         3.4801 
 120   0.0000       0.130459         3.5500 
 121   0.0000       0.132639         3.6093 
 122   0.0000       0.140490         3.8229 
 123   0.0000       0.145437         3.9575 
 124   0.0000       0.152106         4.1390 
 125   0.0000       0.155471         4.2306 
 126   0.0000       0.162269         4.4156 
 127   0.0000       0.171638         4.6705 
 128   0.0000       0.185401         5.0450 
 129   0.0000       0.187957         5.1146 
 130   0.0000       0.189325         5.1518 
 131   0.0000       0.190943         5.1958 
 132   0.0000       0.195536         5.3208 
 133   0.0000       0.210623         5.7313 
 134   0.0000       0.216379         5.8880 
 135   0.0000       0.221047         6.0150 
 136   0.0000       0.226478         6.1628 
 137   0.0000       0.231239         6.2923 
 138   0.0000       0.237501         6.4627 
 139   0.0000       0.241187         6.5630 
 140   0.0000       0.254572         6.9273 
 141   0.0000       0.261026         7.1029 
 142   0.0000       0.265724         7.2307 
 143   0.0000       0.280021         7.6198 
 144   0.0000       0.290045         7.8925 
 145   0.0000       0.301063         8.1923 
 146   0.0000       0.305331         8.3085 
 147   0.0000       0.311727         8.4825 
 148   0.0000       0.323813         8.8114 
 149   0.0000       0.327696         8.9171 
 150   0.0000       0.337766         9.1911 
 151   0.0000       0.344237         9.3672 
 152   0.0000       0.349645         9.5143 
 153   0.0000       0.353934         9.6310 
 154   0.0000       0.361070         9.8252 
 155   0.0000       0.367707        10.0058 
 156   0.0000       0.370446        10.0803 
 157   0.0000       0.379583        10.3290 
 158   0.0000       0.384237        10.4556 
 159   0.0000       0.390017        10.6129 
 160   0.0000       0.395563        10.7638 
 161   0.0000       0.402399        10.9498 
 162   0.0000       0.405014        11.0210 
 163   0.0000       0.412253        11.2180 
 164   0.0000       0.430037        11.7019 
 165   0.0000       0.431581        11.7439 
 166   0.0000       0.438361        11.9284 
 167   0.0000       0.441214        12.0060 
 168   0.0000       0.441965        12.0265 
 169   0.0000       0.444154        12.0861 
 170   0.0000       0.452481        12.3126 
 171   0.0000       0.455607        12.3977 
 172   0.0000       0.459987        12.5169 
 173   0.0000       0.466037        12.6815 
 174   0.0000       0.468993        12.7620 
 175   0.0000       0.473481        12.8841 
 176   0.0000       0.477583        12.9957 
 177   0.0000       0.480244        13.0681 
 178   0.0000       0.482595        13.1321 
 179   0.0000       0.490707        13.3528 
 180   0.0000       0.493657        13.4331 
 181   0.0000       0.501246        13.6396 
 182   0.0000       0.504875        13.7383 
 183   0.0000       0.510406        13.8889 
 184   0.0000       0.512234        13.9386 
 185   0.0000       0.515406        14.0249 
 186   0.0000       0.523205        14.2371 
 187   0.0000       0.525842        14.3089 
 188   0.0000       0.531524        14.4635 
 189   0.0000       0.534340        14.5401 
 190   0.0000       0.536572        14.6009 
 191   0.0000       0.540430        14.7059 
 192   0.0000       0.544610        14.8196 
 193   0.0000       0.549128        14.9425 
 194   0.0000       0.556274        15.1370 
 195   0.0000       0.561863        15.2891 
 196   0.0000       0.567114        15.4320 
 197   0.0000       0.575280        15.6542 
 198   0.0000       0.578415        15.7395 
 199   0.0000       0.582329        15.8460 
 200   0.0000       0.585468        15.9314 
 201   0.0000       0.592620        16.1260 
 202   0.0000       0.600909        16.3516 
 203   0.0000       0.604168        16.4403 
 204   0.0000       0.607066        16.5191 
 205   0.0000       0.617748        16.8098 
 206   0.0000       0.620943        16.8967 
 207   0.0000       0.625821        17.0295 
 208   0.0000       0.637662        17.3517 
 209   0.0000       0.639377        17.3983 
 210   0.0000       0.641433        17.4543 
 211   0.0000       0.649687        17.6789 
 212   0.0000       0.655828        17.8460 
[...]
 52:    577.69   0.020349  102.84  0.010993  (-0.093739  0.043474 -0.017761)
 53:    594.57   0.006299   31.84  0.003306  ( 0.040013  0.035249  0.021514)
 54:    595.46   0.002171   10.97  0.001138  (-0.026944 -0.017086 -0.010938)
 55:    613.79   0.002891   14.61  0.001470  (-0.033878 -0.016576 -0.006893)
 56:    629.23   0.002344   11.85  0.001163  ( 0.017731 -0.019711  0.021443)
 57:    646.75   0.002808   14.19  0.001355  ( 0.025120 -0.021634 -0.015990)
 58:    684.63   0.004807   24.29  0.002191  ( 0.024515 -0.033767  0.021210)
 59:    714.50   0.005070   25.62  0.002214  ( 0.030084 -0.031972  0.016941)
 60:    723.37   0.005292   26.74  0.002283  ( 0.007235 -0.011983 -0.045685)
 61:    751.31   0.000008    0.04  0.000004  (-0.000842 -0.001183 -0.001184)
 62:    753.31   0.001591    8.04  0.000659  (-0.020648  0.012352  0.008952)
 63:    769.50   0.001883    9.52  0.000764  ( 0.016672  0.011713  0.018671)
 64:    770.74   0.005194   26.25  0.002103  ( 0.039889 -0.006827 -0.021569)
 65:    803.11   0.158162  799.29  0.061457  ( 0.131687 -0.193612 -0.081426)
 66:    820.59   0.001349    6.82  0.000513  ( 0.003097 -0.014246 -0.017339)
 67:    822.27   0.007347   37.13  0.002788  ( 0.052603 -0.003137  0.003346)
 68:    826.69   0.015713   79.41  0.005931  (-0.011188  0.035914 -0.067204)
 69:    831.31   0.012334   62.33  0.004630  ( 0.037463 -0.056802 -0.000491)
 70:    861.88   0.003753   18.97  0.001359  ( 0.019062 -0.031289  0.004063)
 71:    877.98   0.003501   17.69  0.001244  (-0.022194  0.021801 -0.016628)
 72:    902.80   0.004108   20.76  0.001420  (-0.026535  0.019177 -0.018659)
 73:    917.85   0.002464   12.45  0.000838  ( 0.014891 -0.011724 -0.021877)
 74:    922.60   0.002284   11.54  0.000773  ( 0.017814 -0.020338 -0.006452)
 75:    930.54   0.007399   37.39  0.002481  (-0.043459  0.024228 -0.002360)
 76:    954.34   0.000417    2.11  0.000136  ( 0.002330 -0.004722  0.010429)
 77:    955.92   0.000837    4.23  0.000273  ( 0.012619 -0.010498 -0.001984)
 78:    967.65   0.006368   32.18  0.002054  ( 0.001665 -0.029760 -0.034136)
 79:    975.62   0.005624   28.42  0.001799  (-0.005361 -0.031831 -0.027514)
 80:    988.55   0.001412    7.14  0.000446  ( 0.000497  0.014753 -0.015097)
 81:   1010.52   0.012414   62.74  0.003834  ( 0.027050 -0.033294 -0.044649)
 82:   1013.53   0.011477   58.00  0.003534  (-0.022938  0.037131 -0.040359)
 83:   1059.65   0.025407  128.39  0.007482  ( 0.032153  0.077938 -0.019339)
 84:   1059.83   0.023493  118.72  0.006917  (-0.065557  0.013477  0.049377)
 85:   1110.41   0.036726  185.60  0.010321  ( 0.097523 -0.028325 -0.002897)
 86:   1146.06   0.042060  212.55  0.011453  ( 0.041668 -0.087576  0.045241)
 87:   1146.33   0.026238  132.59  0.007143  (-0.058274 -0.030458 -0.053095)
 88:   1168.81   0.089823  453.93  0.023982  (-0.152621 -0.002840 -0.026095)
 89:   1177.35   0.002306   11.65  0.000611  ( 0.019407 -0.015287  0.000911)
 90:   1178.05   0.002362   11.94  0.000626  (-0.022181 -0.011448 -0.001591)
 91:   1190.26   0.007489   37.85  0.001963  ( 0.040347 -0.002670  0.018121)
 92:   1190.48   0.006226   31.46  0.001632  ( 0.015056 -0.031149  0.020857)
 93:   1206.08   0.006047   30.56  0.001565  (-0.037419  0.011713 -0.005229)
 94:   1206.98   0.025108  126.89  0.006492  ( 0.076770  0.017380 -0.017202)
 95:   1222.22   0.028431  143.68  0.007259  (-0.019213 -0.079894 -0.022515)
 96:   1223.53   0.015589   78.78  0.003976  (-0.053440  0.022954 -0.024357)
 97:   1249.30   0.052803  266.85  0.013190  (-0.014813  0.113879  0.001388)
 98:   1273.19   0.013660   69.03  0.003348  (-0.045108 -0.031002  0.018768)
 99:   1285.23   0.008937   45.16  0.002170  (-0.010372 -0.034373 -0.029677)
100:   1292.44   0.077637  392.35  0.018746  (-0.133336 -0.020912  0.023015)
101:   1294.13   0.029592  149.55  0.007136  ( 0.009614  0.083725 -0.005789)
102:   1305.95   0.020073  101.44  0.004797  (-0.013883 -0.045441  0.050388)
103:   1311.95   0.007333   37.06  0.001744  ( 0.000780  0.036197 -0.020821)
104:   1314.91   0.024402  123.32  0.005791  (-0.010563  0.073306 -0.017492)
105:   1327.83   0.183082  925.22  0.043028  (-0.206875 -0.015051  0.001906)
106:   1336.08   0.011761   59.43  0.002747  ( 0.000390  0.051103  0.011630)
107:   1362.38   0.007611   38.46  0.001743  ( 0.039458 -0.013401 -0.002625)
108:   1366.70   0.008498   42.95  0.001940  (-0.039612 -0.014693 -0.012468)
109:   1377.31   0.041050  207.45  0.009301  (-0.093607 -0.020469  0.010934)
110:   1387.32   0.019583   98.96  0.004405  ( 0.015659  0.064393 -0.003654)
111:   1387.64   0.055258  279.25  0.012427  ( 0.110667 -0.013384 -0.000845)
112:   1467.99   0.000568    2.87  0.000121  ( 0.009279  0.005812 -0.000973)
113:   1469.37   0.000858    4.33  0.000182  ( 0.006864  0.008035 -0.008396)
114:   1484.79   0.002817   14.24  0.000592  ( 0.004581 -0.023752  0.002639)
115:   1485.62   0.002788   14.09  0.000586  ( 0.016710  0.000359  0.017503)
116:   1496.31   0.007216   36.47  0.001505  ( 0.038629  0.001074 -0.003404)
117:   1497.25   0.008886   44.91  0.001852  ( 0.029343  0.026055 -0.017670)
118:   1500.96   0.000483    2.44  0.000101  ( 0.004919 -0.003472 -0.008016)
119:   1501.01   0.000975    4.93  0.000203  (-0.012265 -0.002273 -0.006863)
120:   1564.12   0.079693  402.74  0.015900  ( 0.110464  0.060590 -0.005158)
121:   1565.75   0.064500  325.96  0.012855  ( 0.099704 -0.053923  0.002592)
122:   1664.30   0.002140   10.81  0.000401  ( 0.007238 -0.002026  0.018567)
123:   1664.84   0.003380   17.08  0.000633  ( 0.004974  0.024064 -0.005447)
124:   1676.94   0.096880  489.59  0.018029  ( 0.114491  0.030096  0.063361)
125:   1679.27   0.064086  323.86  0.011909  (-0.044677  0.099557  0.001287)
126:   1708.89   0.050652  255.97  0.009250  (-0.014725  0.093185  0.018691)
127:   1713.07   0.065642  331.73  0.011958  ( 0.106958 -0.005721  0.022027)
128:   1716.13   0.077666  392.49  0.014123  (-0.081110  0.086523 -0.007604)
129:   1734.75   0.092036  465.11  0.016556  (-0.092308  0.022902 -0.086667)
130:   1755.78   0.132988  672.07  0.023637  ( 0.038804  0.135349  0.061738)
131:   3044.19   0.013684   69.15  0.001403  ( 0.021453  0.008741 -0.029429)
132:   3044.35   0.013258   67.00  0.001359  ( 0.004431 -0.035519  0.008820)
133:   3118.61   0.010046   50.77  0.001005  ( 0.018966 -0.024794  0.005548)
134:   3119.26   0.010031   50.69  0.001004  (-0.028910 -0.006993 -0.010901)
135:   3140.93   0.000102    0.52  0.000010  ( 0.002624 -0.001392 -0.001155)
136:   3163.25   0.006003   30.34  0.000592  ( 0.023706  0.004050  0.003717)
137:   3163.43   0.005707   28.84  0.000563  ( 0.017868  0.012518  0.009329)
138:   3163.94   0.008032   40.59  0.000792  (-0.013959 -0.003378  0.024207)
139:   3171.29   0.002060   10.41  0.000203  ( 0.010082  0.007418 -0.006782)
140:   3181.22   0.003538   17.88  0.000347  (-0.014227  0.011987 -0.000999)
141:   3183.35   0.003533   17.85  0.000346  (-0.016557 -0.007486 -0.004015)
142:   3189.00   0.001338    6.76  0.000131  (-0.011316 -0.001310 -0.001091)
143:   3194.93   0.000754    3.81  0.000074  (-0.006131 -0.004724  0.003705)
144:   3197.33   0.003051   15.42  0.000298  (-0.008672 -0.014882 -0.001047)
145:   3199.27   0.002780   14.05  0.000271  (-0.000945  0.002993 -0.016165)
146:   3207.00   0.001077    5.44  0.000105  (-0.008166 -0.006158 -0.000412)
147:   3207.20   0.000998    5.05  0.000097  (-0.003104 -0.003812  0.008543)
148:   3808.04   0.040236  203.33  0.003297  (-0.040927 -0.011075 -0.038724)
149:   3808.55   0.040675  205.55  0.003333  (-0.016767  0.055225  0.001385)

* The epsilon (eps) is given for a Dirac delta lineshape.
** The dipole moment derivative (T) already includes vibrational overlap.

The first frequency considered to be a vibration is 7
The total number of vibrations considered is 143


--------------------------
THERMOCHEMISTRY AT 298.15K
--------------------------

Temperature         ... 298.15 K
Pressure            ... 1.00 atm
Total Mass          ... 414.39 AMU

Throughout the following assumptions are being made:
  (1) The electronic state is orbitally nondegenerate
      but the spin degeneracy is treated
  (2) There are no thermally accessible electronically excited states
  (3) Hindered rotations indicated by low frequency modes are not
      treated as such but are treated as vibrations and this may
      cause some error
  (4) All equations used are the standard statistical mechanics
      equations for an ideal gas
  (5) All vibrations are strictly harmonic

freq.      13.09  E(vib)   ...       0.57 
freq.      21.05  E(vib)   ...       0.56 
freq.      23.42  E(vib)   ...       0.56 
freq.      26.12  E(vib)   ...       0.56 
freq.      29.85  E(vib)   ...       0.55 
freq.      52.37  E(vib)   ...       0.52 
freq.      53.89  E(vib)   ...       0.52 
freq.      58.77  E(vib)   ...       0.51 
freq.      63.67  E(vib)   ...       0.51 
freq.      73.80  E(vib)   ...       0.49 
freq.      86.11  E(vib)   ...       0.48 
freq.      91.34  E(vib)   ...       0.47 
freq.     106.58  E(vib)   ...       0.45 
freq.     113.62  E(vib)   ...       0.44 
freq.     132.75  E(vib)   ...       0.42 
freq.     137.25  E(vib)   ...       0.42 
freq.     142.88  E(vib)   ...       0.41 
freq.     156.51  E(vib)   ...       0.40 
freq.     160.21  E(vib)   ...       0.39 
freq.     168.55  E(vib)   ...       0.38 
freq.     172.13  E(vib)   ...       0.38 
freq.     176.55  E(vib)   ...       0.38 
freq.     200.11  E(vib)   ...       0.35 
freq.     207.77  E(vib)   ...       0.34 
freq.     216.47  E(vib)   ...       0.34 
freq.     255.18  E(vib)   ...       0.30 
freq.     301.06  E(vib)   ...       0.26 
freq.     301.94  E(vib)   ...       0.26 
freq.     316.36  E(vib)   ...       0.25 
freq.     317.83  E(vib)   ...       0.25 
freq.     335.98  E(vib)   ...       0.24 
freq.     338.12  E(vib)   ...       0.24 
freq.     395.12  E(vib)   ...       0.20 
freq.     396.73  E(vib)   ...       0.20 
freq.     403.53  E(vib)   ...       0.19 
freq.     405.99  E(vib)   ...       0.19 
freq.     410.28  E(vib)   ...       0.19 
freq.     424.63  E(vib)   ...       0.18 
freq.     468.49  E(vib)   ...       0.16 
freq.     474.89  E(vib)   ...       0.15 
freq.     500.98  E(vib)   ...       0.14 
freq.     503.38  E(vib)   ...       0.14 
freq.     539.12  E(vib)   ...       0.12 
freq.     559.83  E(vib)   ...       0.12 
freq.     567.69  E(vib)   ...       0.11 
freq.     577.69  E(vib)   ...       0.11 
freq.     594.57  E(vib)   ...       0.10 
freq.     595.46  E(vib)   ...       0.10 
freq.     613.79  E(vib)   ...       0.10 
freq.     629.23  E(vib)   ...       0.09 
freq.     646.75  E(vib)   ...       0.09 
freq.     684.63  E(vib)   ...       0.07 
freq.     714.50  E(vib)   ...       0.07 
freq.     723.37  E(vib)   ...       0.07 
freq.     751.31  E(vib)   ...       0.06 
freq.     753.31  E(vib)   ...       0.06 
freq.     769.50  E(vib)   ...       0.06 
freq.     770.74  E(vib)   ...       0.05 
freq.     803.11  E(vib)   ...       0.05 
freq.     820.59  E(vib)   ...       0.05 
freq.     822.27  E(vib)   ...       0.05 
freq.     826.69  E(vib)   ...       0.04 
freq.     831.31  E(vib)   ...       0.04 
freq.     861.88  E(vib)   ...       0.04 
freq.     877.98  E(vib)   ...       0.04 
freq.     902.80  E(vib)   ...       0.03 
freq.     917.85  E(vib)   ...       0.03 
freq.     922.60  E(vib)   ...       0.03 
freq.     930.54  E(vib)   ...       0.03 
freq.     954.34  E(vib)   ...       0.03 
freq.     955.92  E(vib)   ...       0.03 
freq.     967.65  E(vib)   ...       0.03 
freq.     975.62  E(vib)   ...       0.03 
freq.     988.55  E(vib)   ...       0.02 
freq.    1010.52  E(vib)   ...       0.02 
freq.    1013.53  E(vib)   ...       0.02 
freq.    1059.65  E(vib)   ...       0.02 
freq.    1059.83  E(vib)   ...       0.02 
freq.    1110.41  E(vib)   ...       0.02 
freq.    1146.06  E(vib)   ...       0.01 
freq.    1146.33  E(vib)   ...       0.01 
freq.    1168.81  E(vib)   ...       0.01 
freq.    1177.35  E(vib)   ...       0.01 
freq.    1178.05  E(vib)   ...       0.01 
freq.    1190.26  E(vib)   ...       0.01 
freq.    1190.48  E(vib)   ...       0.01 
freq.    1206.08  E(vib)   ...       0.01 
freq.    1206.98  E(vib)   ...       0.01 
freq.    1222.22  E(vib)   ...       0.01 
freq.    1223.53  E(vib)   ...       0.01 
freq.    1249.30  E(vib)   ...       0.01 
freq.    1273.19  E(vib)   ...       0.01 
freq.    1285.23  E(vib)   ...       0.01 
freq.    1292.44  E(vib)   ...       0.01 
freq.    1294.13  E(vib)   ...       0.01 
freq.    1305.95  E(vib)   ...       0.01 
freq.    1311.95  E(vib)   ...       0.01 
freq.    1314.91  E(vib)   ...       0.01 
freq.    1327.83  E(vib)   ...       0.01 
freq.    1336.08  E(vib)   ...       0.01 
freq.    1362.38  E(vib)   ...       0.01 
freq.    1366.70  E(vib)   ...       0.01 
freq.    1377.31  E(vib)   ...       0.01 
freq.    1387.32  E(vib)   ...       0.00 
freq.    1387.64  E(vib)   ...       0.00 
freq.    1467.99  E(vib)   ...       0.00 
freq.    1469.37  E(vib)   ...       0.00 
freq.    1484.79  E(vib)   ...       0.00 
freq.    1485.62  E(vib)   ...       0.00 
freq.    1496.31  E(vib)   ...       0.00 
freq.    1497.25  E(vib)   ...       0.00 
freq.    1500.96  E(vib)   ...       0.00 
freq.    1501.01  E(vib)   ...       0.00 
freq.    1564.12  E(vib)   ...       0.00 
freq.    1565.75  E(vib)   ...       0.00 
freq.    1664.30  E(vib)   ...       0.00 
freq.    1664.84  E(vib)   ...       0.00 
freq.    1676.94  E(vib)   ...       0.00 
freq.    1679.27  E(vib)   ...       0.00 
freq.    1708.89  E(vib)   ...       0.00 
freq.    1713.07  E(vib)   ...       0.00 
freq.    1716.13  E(vib)   ...       0.00 
freq.    1734.75  E(vib)   ...       0.00 
freq.    1755.78  E(vib)   ...       0.00 
freq.    3044.19  E(vib)   ...       0.00 
freq.    3044.35  E(vib)   ...       0.00 
freq.    3118.61  E(vib)   ...       0.00 
freq.    3119.26  E(vib)   ...       0.00 
freq.    3140.93  E(vib)   ...       0.00 
freq.    3163.25  E(vib)   ...       0.00 
freq.    3163.43  E(vib)   ...       0.00 
freq.    3163.94  E(vib)   ...       0.00 
freq.    3171.29  E(vib)   ...       0.00 
freq.    3181.22  E(vib)   ...       0.00 
freq.    3183.35  E(vib)   ...       0.00 
freq.    3189.00  E(vib)   ...       0.00 
freq.    3194.93  E(vib)   ...       0.00 
freq.    3197.33  E(vib)   ...       0.00 
freq.    3199.27  E(vib)   ...       0.00 
freq.    3207.00  E(vib)   ...       0.00 
freq.    3207.20  E(vib)   ...       0.00 
freq.    3808.04  E(vib)   ...       0.00 
freq.    3808.55  E(vib)   ...       0.00 

------------
INNER ENERGY
------------

The inner energy is: U= E(el) + E(ZPE) + E(vib) + E(rot) + E(trans)
    E(el)   - is the total energy from the electronic structure calculation
              = E(kin-el) + E(nuc-el) + E(el-el) + E(nuc-nuc)
    E(ZPE)  - the the zero temperature vibrational energy from the frequency calculation
    E(vib)  - the the finite temperature correction to E(ZPE) due to population
              of excited vibrational states
    E(rot)  - is the rotational thermal energy
    E(trans)- is the translational thermal energy

Summary of contributions to the inner energy U:
Electronic energy                ...  -1468.44615133 Eh
Zero point energy                ...      0.37344013 Eh     234.34 kcal/mol
Thermal vibrational correction   ...      0.02746159 Eh      17.23 kcal/mol
Thermal rotational correction    ...      0.00141627 Eh       0.89 kcal/mol
Thermal translational correction ...      0.00141627 Eh       0.89 kcal/mol
-----------------------------------------------------------------------
Total thermal energy                  -1468.04241706 Eh


Summary of corrections to the electronic energy:
(perhaps to be used in another calculation)
Total thermal correction                  0.03029413 Eh      19.01 kcal/mol
Non-thermal (ZPE) correction              0.37344013 Eh     234.34 kcal/mol
-----------------------------------------------------------------------
Total correction                          0.40373426 Eh     253.35 kcal/mol


--------
ENTHALPY
--------

The enthalpy is H = U + kB*T
                kB is Boltzmann's constant
Total free energy                 ...  -1468.04241706 Eh 
Thermal Enthalpy correction       ...      0.00094421 Eh       0.59 kcal/mol
-----------------------------------------------------------------------
Total Enthalpy                    ...  -1468.04147285 Eh


Note: Only C1 symmetry has been detected, increase convergence thresholds 
      if your molecule has a higher symmetry. Symmetry factor of 1.0 is   
      used for the rotational entropy correction. 
 

Note: Rotational entropy computed according to Herzberg 
Infrared and Raman Spectra, Chapter V,1, Van Nostrand Reinhold, 1945 
Point Group:  C1, Symmetry Number:   1  
Rotational constants in cm-1:     0.007165     0.001706     0.001458 

Vibrational entropy computed according to the QRRHO of S. Grimme
Chem.Eur.J. 2012 18 9955


-------
ENTROPY
-------

The entropy contributions are T*S = T*(S(el)+S(vib)+S(rot)+S(trans))
     S(el)   - electronic entropy
     S(vib)  - vibrational entropy
     S(rot)  - rotational entropy
     S(trans)- translational entropy
The entropies will be listed as multiplied by the temperature to get
units of energy

Electronic entropy                ...      0.00065446 Eh      0.41 kcal/mol
Vibrational entropy               ...      0.05065552 Eh     31.79 kcal/mol
Rotational entropy                ...      0.01793436 Eh     11.25 kcal/mol
Translational entropy             ...      0.02088467 Eh     13.11 kcal/mol
-----------------------------------------------------------------------
Final entropy term                ...      0.09012900 Eh     56.56 kcal/mol

In case the symmetry of your molecule has not been determined correctly
or in case you have a reason to use a different symmetry number we print 
out the resulting rotational entropy values for sn=1,12 :
 --------------------------------------------------------
|  sn= 1 | S(rot)=       0.01793436 Eh     11.25 kcal/mol|
|  sn= 2 | S(rot)=       0.01727990 Eh     10.84 kcal/mol|
|  sn= 3 | S(rot)=       0.01689707 Eh     10.60 kcal/mol|
|  sn= 4 | S(rot)=       0.01662544 Eh     10.43 kcal/mol|
|  sn= 5 | S(rot)=       0.01641476 Eh     10.30 kcal/mol|
|  sn= 6 | S(rot)=       0.01624261 Eh     10.19 kcal/mol|
|  sn= 7 | S(rot)=       0.01609707 Eh     10.10 kcal/mol|
|  sn= 8 | S(rot)=       0.01597099 Eh     10.02 kcal/mol|
|  sn= 9 | S(rot)=       0.01585978 Eh      9.95 kcal/mol|
|  sn=10 | S(rot)=       0.01576030 Eh      9.89 kcal/mol|
|  sn=11 | S(rot)=       0.01567031 Eh      9.83 kcal/mol|
|  sn=12 | S(rot)=       0.01558816 Eh      9.78 kcal/mol|
 --------------------------------------------------------


-------------------
GIBBS FREE ENERGY
-------------------

The Gibbs free energy is G = H - T*S

Total enthalpy                    ...  -1468.04147285 Eh 
Total entropy correction          ...     -0.09012900 Eh    -56.56 kcal/mol
-----------------------------------------------------------------------
Final Gibbs free energy         ...  -1468.13160186 Eh

For completeness - the Gibbs free energy minus the electronic energy
G-E(el)                           ...      0.31454947 Eh    197.38 kcal/mol



Timings for individual modules:

Sum of individual times         ...   305783.832 sec (=5096.397 min)
GTO integral calculation        ...      105.644 sec (=   1.761 min)   0.0 %
SCF iterations                  ...    62758.801 sec (=1045.980 min)  20.5 %
SCF Gradient evaluation         ...    13307.448 sec (= 221.791 min)   4.4 %
Geometry relaxation             ...        7.512 sec (=   0.125 min)   0.0 %
Numerical frequency calculation ...   229604.426 sec (=3826.740 min)  75.1 %
                             ****ORCA TERMINATED NORMALLY****
TOTAL RUN TIME: 3 days 12 hours 49 minutes 35 seconds 619 msec
