
                                 *****************
                                 * O   R   C   A *
                                 *****************

                                            #,                                       
                                            ###                                      
                                            ####                                     
                                            #####                                    
                                            ######                                   
                                           ########,                                 
                                     ,,################,,,,,                         
                               ,,#################################,,                 
                          ,,##########################################,,             
                       ,#########################################, ''#####,          
                    ,#############################################,,   '####,        
                  ,##################################################,,,,####,       
                ,###########''''           ''''###############################       
              ,#####''   ,,,,##########,,,,          '''####'''          '####       
            ,##' ,,,,###########################,,,                        '##       
           ' ,,###''''                  '''############,,,                           
         ,,##''                                '''############,,,,        ,,,,,,###''
      ,#''                                            '''#######################'''  
     '                                                          ''''####''''         
             ,#######,   #######,   ,#######,      ##                                
            ,#'     '#,  ##    ##  ,#'     '#,    #''#        ,####,   ,####,        
            ##       ##  ##   ,#'  ##            #'  '#       #'       #'  '#        
            ##       ##  #######   ##           ,######,      #####,   #    #        
            '#,     ,#'  ##    ##  '#,     ,#' ,#      #,     #,   #   #,  ,#        
             '#######'   ##     ##  '#######'  #'      '#     '####' # '####'        



                #########################################################
                #                        -***-                          #
                #          Department of theory and spectroscopy        #
                #                                                       #
                #                      Frank Neese                      #
                #                                                       #
                #     Directorship, Architecture, Infrastructure        #
                #                    SHARK, DRIVERS                     #
                #        Core code/Algorithms in most modules           #
                #                                                       #
                #        Max Planck Institute fuer Kohlenforschung      #
                #                Kaiser Wilhelm Platz 1                 #
                #                 D-45470 Muelheim/Ruhr                 #
                #                      Germany                          #
                #                                                       #
                #                  All rights reserved                  #
                #                        -***-                          #
                #########################################################


                         Program Version 6.0.1  -  RELEASE   -


 With contributions from (in alphabetic order):
[Max-Planck-Institut fuer Kohlenforschung]                               
  Daniel Aravena         : Magnetic Suceptibility                        
  Michael Atanasov       : Ab Initio Ligand Field Theory (pilot matlab implementation)
  Alexander A. Auer      : GIAO ZORA, VPT2 properties, NMR spectrum      
  Ute Becker             : All parallelization in ORCA, NUMFREQ, NUMCALC 
  Giovanni Bistoni       : ED, misc. LED, open-shell LED, HFLD           
  Martin Brehm           : Molecular dynamics                            
  Dmytro Bykov           : pre 5.0 version of the SCF Hessian            
  Marcos Casanova-Páez   : Triplet and SCS-CIS(D). UHF-(DLPNO)-IP/EA/STEOM-CCSD. UHF-CVS-IP/STEOM-CCSD   
  Vijay G. Chilkuri      : MRCI spin determinant printing, contributions to CSF-ICE 
  Pauline Colinet        : FMM embedding                                 
  Dipayan Datta          : RHF DLPNO-CCSD density                        
  Achintya Kumar Dutta   : EOM-CC, STEOM-CC                              
  Nicolas Foglia         : Exact transition moments, OPA infrastructure, MCD improvements    
  Dmitry Ganyushin       : Spin-Orbit,Spin-Spin,Magnetic field MRCI      
  Miquel Garcia-Rates    : C-PCM and meta-GGA Hessian, CCSD/C-PCM, Gaussian charge scheme 
  Tiago L. C. Gouveia    : GS-ROHF, GS-ROCIS                             
  Yang Guo               : DLPNO-NEVPT2, F12-NEVPT2, CIM, IAO-localization        
  Andreas Hansen         : Spin unrestricted coupled pair/coupled cluster methods 
  Ingolf Harden          : AUTO-CI MPn and infrastructure                
  Benjamin Helmich-Paris : MC-RPA, TRAH-(SCF,CASSCF), AVAS, COSX integrals, SCF dyn. polar. 
  Lee Huntington         : MR-EOM, pCC                                   
  Robert Izsak           : Overlap fitted RIJCOSX, COSX-SCS-MP3, EOM     
  Riya Kayal             : Wick's Theorem for AUTO-CI, AUTO-CI UHF-CCSDT 
  Emily Kempfer          : AUTO-CI, RHF CISDT and CCSDT                  
  Christian Kollmar      : KDIIS, OOCD, Brueckner-CCSD(T), CCSD density, CASPT2, CASPT2-K, improved NEVPT2 
  Axel Koslowski         : Symmetry handling                             
  Simone Kossmann        : meta-GGA functionals, TD-DFT gradient, OOMP2, (MP2 Hessian; deprecated post 5.0) 
  Lucas Lang             : DCDCAS                                        
  Marvin Lechner         : AUTO-CI (C++ implementation), FIC-MRCC        
  Spencer Leger          : CASSCF response                               
  Dagmar Lenk            : GEPOL surface, SMD, ORCA-2-JSON               
  Dimitrios Liakos       : Extrapolation schemes; Compound Job, initial MDCI parallelization 
  Dimitrios Manganas     : Further ROCIS development; embedding schemes. LFT, Crystal Embedding 
  Dimitrios Pantazis     : SARC Basis sets                               
  Anastasios Papadopoulos: AUTO-CI, single reference methods and gradients 
  Taras Petrenko         : pre 6.0 DFT Hessian and TD-DFT gradient, (ASA, deprecated), ECA, 1-Electron XAS/XES, NRVS 
  Peter Pinski           : DLPNO-MP2, DLPNO-MP2 Gradient                 
  Christoph Reimann      : Effective Core Potentials                     
  Marius Retegan         : Local ZFS, SOC                                
  Christoph Riplinger    : Optimizer, TS searches, QM/MM, DLPNO-CCSD(T), (RO)-DLPNO pert. Triples 
  Michael Roemelt        : Original ROCIS implementation                 
  Masaaki Saitow         : Open-shell DLPNO-CCSD energy and density      
  Barbara Sandhoefer     : DKH picture change effects                    
  Kantharuban Sivalingam : CASSCF convergence/infrastructure, NEVPT2 and variants, FIC-MRCI 
  Bernardo de Souza      : ESD, SOC TD-DFT                               
  Georgi L. Stoychev     : AutoAux, RI-MP2 NMR, DLPNO-MP2 response, X2C  
  Van Anh Tran           : RI-MP2 g-tensors                              
  Willem Van den Heuvel  : Paramagnetic NMR                              
  Zikuan Wang            : NOTCH, Electric field optimization            
  Frank Wennmohs         : Technical directorship and infrastructure     
  Hang Xu                : AUTO-CI-Response properties                   
                                                                         
[FACCTs GmbH]                                                            
  Markus Bursch, Miquel Garcia-Rates, Christoph Riplinger, Bernardo de Souza, Georgi L. Stoychev 
                                                                 
  APM, Basis sets (HGBS, AHGBS, def-TZVP (Ac-Lr), def2-XVPD (La-Lu)), CI-OPT, improved COSX, DLPNO-Multilevel,           
  DOCKER, DRACO, updates on ESD, GOAT, IRC, LR-CPCM, MBIS, meta-GGA TD-DFT gradient, ML-optimized integration grids, 
  MM, NACMEs, nearIR, NEB, NEB-TS, NL-DFT gradient (VV10), 2- and 3-layer-ONIOM, interface openCOSMO-RS, QMMM,   
  Crystal-QMMM, SF, symmetry and pop. for TD-DFT, r2SCAN hybrids, SOLVATOR                                   
                                                                         
[Other institutions]                                                     
  V. Asgeirsson          : NEB                                           
  Christoph Bannwarth    : sTDA-DFT, sTD-DFT, PBEh-3c, B97-3c, D3        
  Sebastian Ehlert       : rSCAN, r2SCAN, r2SCAN-3c, D4, dhf basis sets  
  Marvin Friede          : D4 for Fr, Ra, Ac-Lr                          
  Lars Goerigk           : TD-DFT with DH, B97 family of functionals     
  Stefan Grimme          : VdW corrections, initial TS optimization, DFT functionals, gCP, sTDA/sTD-DF 
  Waldemar Hujo          : DFT-NL                                        
  H. Jonsson             : NEB                                           
  Holger Kruse           : gCP                                           
  Marcel Mueller         : wB97X-3c, vDZP basis set                      
  Hagen Neugebauer       : wr2SCAN                                       
  Tobias Risthaus        : range-separated hybrid DFT                    
  Lukas Wittmann         : regularized MP2, r2SCAN double-hybrids, wr2SCAN        
                                                                         
We gratefully acknowledge several colleagues who have allowed us to      
interface, adapt or use parts of their codes:                            
  Ed Valeev, F. Pavosevic, A. Kumar             : LibInt (2-el integral package), F12 methods 
  Garnet Chan, S. Sharma, J. Yang, R. Olivares  : DMRG                   
  Ulf Ekstrom                                   : XCFun DFT Library      
  Mihaly Kallay                                 : mrcc  (arbitrary order and MRCC methods)
  Frank Weinhold                                : gennbo (NPA and NBO analysis)           
  Simon Mueller                                 : openCOSMO-RS                            
  Christopher J. Cramer and Donald G. Truhlar   : smd solvation model                     
  S Lehtola, MJT Oliveira, MAL Marques          : LibXC Library                           
  Liviu Ungur et al                             : ANISO software                          


 Your calculation uses the libint2 library for the computation of 2-el integrals
 For citations please refer to: http://libint.valeyev.net

 Your ORCA version has been built with support for libXC version: 6.2.2
 For citations please refer to: https://libxc.gitlab.io

 This ORCA versions uses:
   CBLAS   interface :  Fast vector & matrix operations
   LAPACKE interface :  Fast linear algebra routines
   SCALAPACK package :  Parallel linear algebra routines
   Shared memory     :  Shared parallel matrices
   BLAS/LAPACK       :  OpenBLAS 0.3.27  USE64BITINT DYNAMIC_ARCH NO_AFFINITY Zen SINGLE_THREADED
        Core in use  :  Zen
   Copyright (c) 2011-2014, The OpenBLAS Project


NOTE: MaxCore=2000 MB was set to SCF,MP2,MDCI,CIPSI,MRCI and CIS
      => If you want to overwrite this, your respective input block should be placed after the MaxCore statement
Your calculation utilizes the DFT-NL dispersion correction.
Cite in your paper:
Vydrov, O. A.; Van Voorhis, T. J. Chem. Phys. 2010, 133, 244103
Hujo, W.; Grimme, S. J. Chem. Theory Comput. 2011, 7, 3866 
   

Warning: RI is on but no J-basis has been assigned. Assigning Def2/J (nothing to worry about!)
================================================================================

----- Orbital basis set information -----
Your calculation utilizes the basis: 6-311G(d)
   H, Li - Ne  : R. Krishnan, J. S. Binkley, R. Seeger and J. A. Pople, J. Chem. Phys. 72, 650 (1980).
   Na - Ar     : A. D. McLean and G. S. Chandler J. Chem. Phys. 72, 5639, (1980).
   K  - Ca     : J.-P. Blaudeau, M. P. McGrath, L. A. Curtiss and L. Radom, J. Chem. Phys. 107, 5016 (1997).
   Ga - Kr     : L. A. Curtiss, M. P. McGrath, J.-P. Blandeau, N. E. Davis, R. C. Binning and L. Radom, J. Chem. Phys. 103, 6104 (1995).
   Pol./Diff.
   H, Li - Cl  : T. Clark, J. Chandrasekhar and P. v. R. Schleyer, J. Comp. Chem. 4, 294 (1983).
   H - Ne      : M. J. Frisch, J. A. Pople and J. S. Binkley, J. Chem. Phys. 80, 3265 (1984).

----- AuxJ basis set information -----
Your calculation utilizes the auxiliary basis: def2/J
   F. Weigend, Phys. Chem. Chem. Phys. 8, 1057 (2006).

================================================================================
                                        WARNINGS
                       Please study these warnings very carefully!
================================================================================


WARNING: B97M-V or wB97M-V functional requested.
  ===> : libXC variant has now been activated.
         Any manually given DFX/HFX/RangeSep scaling parameters are IGNORED!


WARNING: your system is open-shell and RHF/RKS was chosen
  ===> : WILL SWITCH to UHF/UKS


WARNING: Geometry Optimization
  ===> : Switching off AutoStart
         For restart on a previous wavefunction, please use MOREAD

WARNING: Analytic gradients for DFT-NL dispersion can only be done using the self-consistent method,
  ===>   Switching to SCNL

WARNING: Self-consistent DFT-NL dispersion not compatible with AutoTRAH.
  ===>   Switching AutoTRAH off


================================================================================
                                       INPUT FILE
================================================================================
NAME = CURCUMIN-OPT-FREQ-Prod-WB97M-V-6-311G-D-363.inp
|  1> ! Opt NumFreq wb97M-V 6-311G(d) CPCM RIJDX
|  2> %maxcore 2000
|  3> %cpcm
|  4> epsilon 7 # Dielectric constant
|  5> refrac 1.85341 # Refractive index
|  6> end
|  7> %FREQ TEMP 363.15 END
|  8> 
|  9> * xyz 0 2
| 10>   C   -2.73780852521436      0.17329844620604     -0.26232766538822
| 11>   H   -2.46577081027783      1.00695062768864     -0.90572777885410
| 12>   C   -1.77354257348339     -0.47854993983852      0.40308512916808
| 13>   H   -1.99931885650873     -1.26504056951097      1.11767105421939
| 14>   C   -0.34510066004763     -0.10347374443668      0.36175879704543
| 15>   O   0.41465298389767     -0.45413399599246      1.26462546366907
| 16>   C   -4.17931809890801     -0.07833527129058     -0.18569771083377
| 17>   C   -5.05342845111864      0.86464855589979     -0.72961729912944
| 18>   C   -4.72215019949468     -1.22339581241298      0.41509671840491
| 19>   C   -6.42995390401196      0.68540634918876     -0.66308426112211
| 20>   H   -4.65264580363140      1.76224074290755     -1.19025493016703
| 21>   C   -6.08803608216050     -1.41193020553381      0.48392101219181
| 22>   H   -4.08924881389535     -1.99423186041702      0.84282723785436
| 23>   C   -6.95798068828445     -0.44927367934852     -0.05705946649818
| 24>   H   -7.10291754776093      1.43092028228711     -1.07736896238582
| 25>   O   -8.28890635173829     -0.68742981982088      0.05220613920802
| 26>   H   -8.78510723923426      0.03070692248250     -0.35798881228951
| 27>   O   -6.59268958412137     -2.52348687904708      1.11241435340773
| 28>   C   -7.10948920033911     -3.50416710636805      0.20579925099152
| 29>   H   -6.32129251485237     -3.85235504058390     -0.46837704491113
| 30>   H   -7.45942273961753     -4.33404870229873      0.81701985450656
| 31>   H   -7.94137240025948     -3.10094824297120     -0.37499302620828
| 32>   C   2.96357161992215     -0.22932500412977     -0.36001551396605
| 33>   H   2.15561704718015     -0.94747111246505     -0.46844015624587
| 34>   C   2.67220452794134      1.07993378381803     -0.45065704785545
| 35>   H   3.42671769454811      1.85648905541688     -0.37380662754375
| 36>   C   1.33320061826074      1.57080461700844     -0.72909265096629
| 37>   O   1.13825176335273      2.76713698121122     -0.97455778645291
| 38>   C   4.27768576591755     -0.81704274619441     -0.12039641685580
| 39>   C   4.38670807255293     -2.20682239604339     -0.03086732038734
| 40>   C   5.44114289597002     -0.04506552197146      0.03031632578294
| 41>   C   5.61136028552634     -2.81439604593952      0.21334410907919
| 42>   H   3.50011488961443     -2.82248610532204     -0.14547487838224
| 43>   C   6.66157885144322     -0.63774059435874      0.27702722908267
| 44>   H   5.41684362703130      1.03787718521404     -0.02917857235168
| 45>   C   6.75466256241106     -2.03855604555215      0.37436185820032
| 46>   H   5.68559945063381     -3.89523838079067      0.29049328998448
| 47>   O   7.97748126924044     -2.55783284174011      0.63395320566231
| 48>   H   7.92290119022290     -3.51960806964729      0.68615343785637
| 49>   O   7.77399078656338      0.14204140699667      0.46854050195151
| 50>   C   8.67594252884778      0.13187939662573     -0.64451292381168
| 51>   H   8.17663477567739      0.50780733065701     -1.54234962746389
| 52>   H   9.49794331611925      0.79408327465126     -0.37950591133230
| 53>   H   9.06001939995178     -0.87342378897141     -0.82821556660470
| 54>   C   0.13472544900821      0.69567999858072     -0.76383576370511
| 55>   H   -0.49445038341145      0.82029345006050     -1.63711473072331
| 56>   H   -0.53572243670684      3.25815142916150     -1.07628682749307
| 57>   O   -1.52202051425809      3.33025468273683     -1.05461393054500
| 58>   O   -3.00069938599487      3.54812074298298      0.42992172198782
| 59>   N   -1.83381560650315      3.50990426121527      0.26710652021954
| 60> *
| 61> 
| 62>                          ****END OF INPUT****
================================================================================

                       *****************************
                       * Geometry Optimization Run *
                       *****************************

Geometry optimization settings:
Update method            Update   .... BFGS
Choice of coordinates    CoordSys .... (2022) Redundant Internals
Initial Hessian          InHess   .... Almloef's Model
Max. no of cycles        MaxIter  .... 150

Convergence Tolerances:
Energy Change            TolE     ....  5.0000e-06 Eh
Max. Gradient            TolMAXG  ....  3.0000e-04 Eh/bohr
RMS Gradient             TolRMSG  ....  1.0000e-04 Eh/bohr
Max. Displacement        TolMAXD  ....  4.0000e-03 bohr
RMS Displacement         TolRMSD  ....  2.0000e-03 bohr
Strict Convergence                .... False

------------------------------------------------------------------------------
                        ORCA OPTIMIZATION COORDINATE SETUP
------------------------------------------------------------------------------

The optimization will be done in redundant internal coordinates (2022)
Making redundant internal coordinates   ...  (2022 redundants) done
Evaluating the initial hessian          ...  (Almloef) done
Evaluating the coordinates              ...  done
Calculating the B-matrix                .... done
Calculating the G-matrix                .... done
Diagonalizing the G-matrix              .... done
Small eigenvalue found = 6.079e-04
Small eigenvalue found = 1.771e-03
Small eigenvalue found = 4.214e-03
Small eigenvalue found = 5.758e-03
Small eigenvalue found = 6.404e-03
Small eigenvalue found = 8.422e-03
Small eigenvalue found = 1.510e-02
Small eigenvalue found = 1.902e-02
Small eigenvalue found = 2.514e-02
Small eigenvalue found = 2.884e-02
The first mode is                       ....   85
The number of degrees of freedom        ....  144

    -----------------------------------------------------------------
                    Redundant Internal Coordinates


    -----------------------------------------------------------------
         Definition                    Initial Value    Approx d2E/dq
    -----------------------------------------------------------------
      1. B(H   1,C   0)                  1.0876         0.363246   
      2. B(C   2,C   0)                  1.3407         0.748835   
      3. B(H   3,C   2)                  1.0864         0.364949   
      4. B(C   4,C   2)                  1.4774         0.453137   
      5. B(O   5,C   4)                  1.2310         1.003582   
      6. B(C   6,C   0)                  1.4653         0.473786   
      7. B(C   7,C   6)                  1.3961         0.610918   
      8. B(C   8,C   6)                  1.4024         0.596928   
      9. B(C   9,C   7)                  1.3897         0.625394   
     10. B(H  10,C   7)                  1.0856         0.365994   
     11. B(C  11,C   8)                  1.3806         0.646861   
     12. B(H  12,C   8)                  1.0852         0.366477   
     13. B(C  13,C  11)                  1.4058         0.589643   
     14. B(C  13,C   9)                  1.3905         0.623578   
     15. B(H  14,C   9)                  1.0864         0.364871   
     16. B(O  15,C  13)                  1.3565         0.632943   
     17. B(H  16,O  15)                  0.9645         0.511494   
     18. B(O  17,C  11)                  1.3730         0.595573   
     19. B(C  18,O  17)                  1.4320         0.479499   
     20. B(H  19,C  18)                  1.0941         0.354748   
     21. B(H  20,C  18)                  1.0885         0.362142   
     22. B(H  21,C  18)                  1.0918         0.357782   
     23. B(H  23,C  22)                  1.0864         0.364884   
     24. B(C  24,C  22)                  1.3443         0.738881   
     25. B(H  25,C  24)                  1.0855         0.366150   
     26. B(C  26,C  24)                  1.4531         0.495581   
     27. B(O  27,C  26)                  1.2367         0.982717   
     28. B(C  28,C  22)                  1.4594         0.484264   
     29. B(C  29,C  28)                  1.3969         0.609111   
     30. B(C  30,C  28)                  1.4044         0.592637   
     31. B(C  31,C  29)                  1.3887         0.627729   
     32. B(H  32,C  29)                  1.0855         0.366156   
     33. B(C  33,C  30)                  1.3790         0.650602   
     34. B(H  34,C  30)                  1.0848         0.366980   
     35. B(C  35,C  33)                  1.4073         0.586378   
     36. B(C  35,C  31)                  1.3910         0.622412   
     37. B(H  36,C  31)                  1.0861         0.365253   
     38. B(O  37,C  35)                  1.3536         0.639583   
     39. B(H  38,O  37)                  0.9647         0.510988   
     40. B(O  39,C  33)                  1.3719         0.598001   
     41. B(C  40,O  39)                  1.4327         0.478429   
     42. B(H  41,C  40)                  1.0940         0.354904   
     43. B(H  42,C  40)                  1.0883         0.362337   
     44. B(H  43,C  40)                  1.0917         0.357806   
     45. B(C  44,C  26)                  1.4844         0.441730   
     46. B(C  44,C   4)                  1.4615         0.480553   
     47. B(H  45,C  44)                  1.0835         0.368781   
     48. B(H  46,O  27)                  1.7475         0.028815   
     49. B(O  47,H  46)                  0.9892         0.467124   
     50. B(O  48,H  10)                  2.9229         0.000384   
     51. B(N  49,H  46)                  1.8850         0.017387   
     52. B(N  49,O  48)                  1.1788         1.088821   
     53. B(N  49,O  47)                  1.3698         0.539749   
     54. A(H   1,C   0,C   2)          119.1024         0.364974   
     55. A(C   2,C   0,C   6)          126.7333         0.427861   
     56. A(H   1,C   0,C   6)          114.1181         0.337812   
     57. A(C   0,C   2,C   4)          123.9215         0.424461   
     58. A(C   0,C   2,H   3)          121.9369         0.365266   
     59. A(H   3,C   2,C   4)          113.7739         0.335576   
     60. A(O   5,C   4,C  44)          121.1996         0.449255   
     61. A(C   2,C   4,C  44)          118.5416         0.392417   
     62. A(C   2,C   4,O   5)          120.2573         0.444497   
     63. A(C   0,C   6,C   8)          122.9152         0.410911   
     64. A(C   0,C   6,C   7)          118.6571         0.412604   
     65. A(C   7,C   6,C   8)          118.4272         0.429976   
     66. A(C   9,C   7,H  10)          119.5137         0.354400   
     67. A(C   6,C   7,H  10)          119.5140         0.352997   
     68. A(C   6,C   7,C   9)          120.9562         0.433590   
     69. A(C   6,C   8,H  12)          121.5381         0.351695   
     70. A(C   6,C   8,C  11)          121.0520         0.434417   
     71. A(C  11,C   8,H  12)          117.4099         0.356515   
     72. A(C   7,C   9,C  13)          120.1476         0.435194   
     73. A(C  13,C   9,H  14)          119.4016         0.354041   
     74. A(C   7,C   9,H  14)          120.4498         0.354216   
     75. A(C   8,C  11,C  13)          119.9711         0.433458   
     76. A(C  13,C  11,O  17)          120.2040         0.424296   
     77. A(C   8,C  11,O  17)          119.8028         0.431398   
     78. A(C  11,C  13,O  15)          117.1266         0.428946   
     79. A(C   9,C  13,O  15)          123.4322         0.433279   
     80. A(C   9,C  13,C  11)          119.4405         0.430612   
     81. A(C  13,O  15,H  16)          109.8650         0.370387   
     82. A(C  11,O  17,C  18)          113.4060         0.406332   
     83. A(O  17,C  18,H  21)          111.0295         0.335587   
     84. A(H  19,C  18,H  20)          109.5722         0.290414   
     85. A(O  17,C  18,H  20)          106.4175         0.336264   
     86. A(O  17,C  18,H  19)          110.3691         0.335112   
     87. A(H  20,C  18,H  21)          109.5940         0.290803   
     88. A(H  19,C  18,H  21)          109.7957         0.289863   
     89. A(C  24,C  22,C  28)          126.7588         0.428514   
     90. A(H  23,C  22,C  28)          114.8253         0.339301   
     91. A(H  23,C  22,C  24)          118.4155         0.364419   
     92. A(H  25,C  24,C  26)          114.3575         0.340811   
     93. A(C  22,C  24,C  26)          122.7954         0.430293   
     94. A(C  22,C  24,H  25)          122.7730         0.364635   
     95. A(C  24,C  26,O  27)          120.6690         0.450054   
     96. A(O  27,C  26,C  44)          116.0009         0.440775   
     97. A(C  24,C  26,C  44)          123.3213         0.392781   
     98. A(C  26,O  27,H  46)          115.7452         0.251107   
     99. A(C  29,C  28,C  30)          118.3819         0.429192   
    100. A(C  22,C  28,C  30)          122.8364         0.411981   
    101. A(C  22,C  28,C  29)          118.7811         0.413992   
    102. A(C  31,C  29,H  32)          119.3871         0.354651   
    103. A(C  28,C  29,H  32)          119.5892         0.352847   
    104. A(C  28,C  29,C  31)          121.0217         0.433650   
    105. A(C  33,C  30,H  34)          117.3014         0.356948   
    106. A(C  28,C  30,H  34)          121.6200         0.351348   
    107. A(C  28,C  30,C  33)          121.0739         0.434304   
    108. A(C  35,C  31,H  36)          119.3816         0.353992   
    109. A(C  29,C  31,H  36)          120.5401         0.354502   
    110. A(C  29,C  31,C  35)          120.0755         0.435339   
    111. A(C  35,C  33,O  39)          120.1646         0.424183   
    112. A(C  30,C  33,O  39)          119.8876         0.432161   
    113. A(C  30,C  33,C  35)          119.9162         0.433475   
    114. A(C  33,C  35,O  37)          117.0568         0.429322   
    115. A(C  31,C  35,O  37)          123.4161         0.433947   
    116. A(C  31,C  35,C  33)          119.5254         0.430038   
    117. A(C  35,O  37,H  38)          109.9810         0.370989   
    118. A(C  33,O  39,C  40)          113.4526         0.406464   
    119. A(H  41,C  40,H  42)          109.6023         0.290459   
    120. A(O  39,C  40,H  42)          106.3804         0.336169   
    121. A(O  39,C  40,H  41)          110.3557         0.335013   
    122. A(H  42,C  40,H  43)          109.6060         0.290830   
    123. A(H  41,C  40,H  43)          109.8101         0.289886   
    124. A(O  39,C  40,H  43)          111.0230         0.335466   
    125. A(C  26,C  44,H  45)          114.8280         0.334737   
    126. A(C   4,C  44,H  45)          119.5371         0.339467   
    127. A(C   4,C  44,C  26)          124.7110         0.390671   
    128. A(O  27,H  46,O  47)          167.0005         0.207074   
    129. A(H  46,O  47,N  49)          104.9310         0.352674   
    130. A(O  47,N  49,O  48)          111.2743         0.456395   
    131. D(H   3,C   2,C   0,H   1)    175.0485         0.039978   
    132. D(C   4,C   2,C   0,H   1)      2.4490         0.039978   
    133. D(C   4,C   2,C   0,C   6)   -174.9234         0.039978   
    134. D(H   3,C   2,C   0,C   6)     -2.3239         0.039978   
    135. D(C  44,C   4,C   2,C   0)    -21.4169         0.013993   
    136. D(O   5,C   4,C   2,C   0)    158.1384         0.013993   
    137. D(O   5,C   4,C   2,H   3)    -15.0017         0.013993   
    138. D(C  44,C   4,C   2,H   3)    165.4430         0.013993   
    139. D(C   8,C   6,C   0,C   2)    -12.7430         0.015284   
    140. D(C   8,C   6,C   0,H   1)    169.7724         0.015284   
    141. D(C   7,C   6,C   0,C   2)    167.0025         0.015284   
    142. D(C   7,C   6,C   0,H   1)    -10.4822         0.015284   
    143. D(H  10,C   7,C   6,C   0)     -0.3556         0.025781   
    144. D(C   9,C   7,C   6,C   0)   -178.8895         0.025781   
    145. D(C   9,C   7,C   6,C   8)      0.8675         0.025781   
    146. D(H  10,C   7,C   6,C   8)    179.4014         0.025781   
    147. D(H  12,C   8,C   6,C   7)    179.2459         0.024551   
    148. D(H  12,C   8,C   6,C   0)     -1.0081         0.024551   
    149. D(C  11,C   8,C   6,C   0)    179.0056         0.024551   
    150. D(C  11,C   8,C   6,C   7)     -0.7404         0.024551   
    151. D(H  14,C   9,C   7,H  10)      0.6478         0.027093   
    152. D(H  14,C   9,C   7,C   6)    179.1816         0.027093   
    153. D(C  13,C   9,C   7,H  10)   -178.9806         0.027093   
    154. D(C  13,C   9,C   7,C   6)     -0.4468         0.027093   
    155. D(O  17,C  11,C   8,H  12)      1.9101         0.029114   
    156. D(O  17,C  11,C   8,C   6)   -178.1031         0.029114   
    157. D(C  13,C  11,C   8,H  12)   -179.7952         0.029114   
    158. D(C  13,C  11,C   8,C   6)      0.1915         0.029114   
    159. D(O  15,C  13,C   9,C   7)    179.5726         0.026926   
    160. D(C  11,C  13,C   9,H  14)   -179.7525         0.026926   
    161. D(C  11,C  13,C   9,C   7)     -0.1203         0.026926   
    162. D(O  15,C  13,C  11,O  17)     -1.1781         0.023925   
    163. D(O  15,C  13,C  11,C   8)   -179.4659         0.023925   
    164. D(C   9,C  13,C  11,O  17)    178.5339         0.023925   
    165. D(C   9,C  13,C  11,C   8)      0.2461         0.023925   
    166. D(O  15,C  13,C   9,H  14)     -0.0597         0.026926   
    167. D(H  16,O  15,C  13,C  11)   -179.4984         0.029483   
    168. D(H  16,O  15,C  13,C   9)      0.8021         0.029483   
    169. D(C  18,O  17,C  11,C  13)     75.5544         0.025881   
    170. D(C  18,O  17,C  11,C   8)   -106.1549         0.025881   
    171. D(H  21,C  18,O  17,C  11)    -61.7838         0.018137   
    172. D(H  20,C  18,O  17,C  11)    179.0179         0.018137   
    173. D(H  19,C  18,O  17,C  11)     60.2066         0.018137   
    174. D(C  26,C  24,C  22,C  28)    178.2560         0.038824   
    175. D(C  26,C  24,C  22,H  23)     -2.0130         0.038824   
    176. D(H  25,C  24,C  22,C  28)      1.5647         0.038824   
    177. D(H  25,C  24,C  22,H  23)   -178.7043         0.038824   
    178. D(C  44,C  26,C  24,H  25)   -174.7991         0.016726   
    179. D(C  44,C  26,C  24,C  22)      8.2545         0.016726   
    180. D(O  27,C  26,C  24,H  25)      6.3263         0.016726   
    181. D(O  27,C  26,C  24,C  22)   -170.6201         0.016726   
    182. D(H  46,O  27,C  26,C  44)      9.0182         0.078691   
    183. D(H  46,O  27,C  26,C  24)   -172.0281         0.078691   
    184. D(C  30,C  28,C  22,C  24)     -0.9723         0.015967   
    185. D(C  30,C  28,C  22,H  23)    179.2884         0.015967   
    186. D(C  29,C  28,C  22,C  24)    178.7554         0.015967   
    187. D(C  29,C  28,C  22,H  23)     -0.9839         0.015967   
    188. D(H  32,C  29,C  28,C  30)   -179.9299         0.025620   
    189. D(H  32,C  29,C  28,C  22)      0.3301         0.025620   
    190. D(C  31,C  29,C  28,C  30)      0.5850         0.025620   
    191. D(C  31,C  29,C  28,C  22)   -179.1550         0.025620   
    192. D(C  33,C  30,C  28,C  29)     -0.7787         0.024181   
    193. D(C  33,C  30,C  28,C  22)    178.9500         0.024181   
    194. D(H  34,C  30,C  28,C  29)   -179.9795         0.024181   
    195. D(H  34,C  30,C  28,C  22)     -0.2507         0.024181   
    196. D(H  36,C  31,C  29,H  32)     -0.0502         0.027309   
    197. D(H  36,C  31,C  29,C  28)    179.4359         0.027309   
    198. D(C  35,C  31,C  29,H  32)   -179.4303         0.027309   
    199. D(C  35,C  31,C  29,C  28)      0.0558         0.027309   
    200. D(O  39,C  33,C  30,H  34)      1.6062         0.029476   
    201. D(O  39,C  33,C  30,C  28)   -177.6279         0.029476   
    202. D(C  35,C  33,C  30,H  34)    179.5640         0.029476   
    203. D(C  35,C  33,C  30,C  28)      0.3299         0.029476   
    204. D(O  37,C  35,C  33,O  39)     -1.2664         0.023648   
    205. D(O  37,C  35,C  33,C  30)   -179.2185         0.023648   
    206. D(C  31,C  35,C  33,O  39)    178.2778         0.023648   
    207. D(C  31,C  35,C  33,C  30)      0.3257         0.023648   
    208. D(O  37,C  35,C  31,H  36)     -0.3904         0.026819   
    209. D(O  37,C  35,C  31,C  29)    178.9969         0.026819   
    210. D(C  33,C  35,C  31,H  36)   -179.9041         0.026819   
    211. D(C  33,C  35,C  31,C  29)     -0.5167         0.026819   
    212. D(H  38,O  37,C  35,C  33)    179.5251         0.030154   
    213. D(H  38,O  37,C  35,C  31)      0.0003         0.030154   
    214. D(C  40,O  39,C  33,C  35)     75.7714         0.026107   
    215. D(C  40,O  39,C  33,C  30)   -106.2759         0.026107   
    216. D(H  43,C  40,O  39,C  33)    -61.8201         0.018054   
    217. D(H  42,C  40,O  39,C  33)    178.9932         0.018054   
    218. D(H  41,C  40,O  39,C  33)     60.1750         0.018054   
    219. D(H  45,C  44,C  26,O  27)     47.9041         0.013311   
    220. D(H  45,C  44,C  26,C  24)   -131.0189         0.013311   
    221. D(C   4,C  44,C  26,O  27)   -120.9926         0.013311   
    222. D(C   4,C  44,C  26,C  24)     60.0844         0.013311   
    223. D(H  45,C  44,C   4,O   5)    167.6218         0.015723   
    224. D(H  45,C  44,C   4,C   2)    -12.8273         0.015723   
    225. D(C  26,C  44,C   4,O   5)    -23.9670         0.015723   
    226. D(C  26,C  44,C   4,C   2)    155.5839         0.015723   
    227. D(O  47,H  46,O  27,C  26)      9.3924         0.001951   
    228. D(N  49,O  47,H  46,O  27)     76.0684         0.262550   
    229. D(O  48,N  49,O  47,H  46)   -176.7199         0.024585   
    -----------------------------------------------------------------

Number of atoms                         .... 50
Number of degrees of freedom            .... 229


         *************************************************************
         *                GEOMETRY OPTIMIZATION CYCLE   1            *
         *************************************************************
---------------------------------
CARTESIAN COORDINATES (ANGSTROEM)
---------------------------------
  C     -2.737809    0.173298   -0.262328
  H     -2.465771    1.006951   -0.905728
  C     -1.773543   -0.478550    0.403085
  H     -1.999319   -1.265041    1.117671
  C     -0.345101   -0.103474    0.361759
  O      0.414653   -0.454134    1.264625
  C     -4.179318   -0.078335   -0.185698
  C     -5.053428    0.864649   -0.729617
  C     -4.722150   -1.223396    0.415097
  C     -6.429954    0.685406   -0.663084
  H     -4.652646    1.762241   -1.190255
  C     -6.088036   -1.411930    0.483921
  H     -4.089249   -1.994232    0.842827
  C     -6.957981   -0.449274   -0.057059
  H     -7.102918    1.430920   -1.077369
  O     -8.288906   -0.687430    0.052206
  H     -8.785107    0.030707   -0.357989
  O     -6.592690   -2.523487    1.112414
  C     -7.109489   -3.504167    0.205799
  H     -6.321293   -3.852355   -0.468377
  H     -7.459423   -4.334049    0.817020
  H     -7.941372   -3.100948   -0.374993
  C      2.963572   -0.229325   -0.360016
  H      2.155617   -0.947471   -0.468440
  C      2.672205    1.079934   -0.450657
  H      3.426718    1.856489   -0.373807
  C      1.333201    1.570805   -0.729093
  O      1.138252    2.767137   -0.974558
  C      4.277686   -0.817043   -0.120396
  C      4.386708   -2.206822   -0.030867
  C      5.441143   -0.045066    0.030316
  C      5.611360   -2.814396    0.213344
  H      3.500115   -2.822486   -0.145475
  C      6.661579   -0.637741    0.277027
  H      5.416844    1.037877   -0.029179
  C      6.754663   -2.038556    0.374362
  H      5.685599   -3.895238    0.290493
  O      7.977481   -2.557833    0.633953
  H      7.922901   -3.519608    0.686153
  O      7.773991    0.142041    0.468541
  C      8.675943    0.131879   -0.644513
  H      8.176635    0.507807   -1.542350
  H      9.497943    0.794083   -0.379506
  H      9.060019   -0.873424   -0.828216
  C      0.134725    0.695680   -0.763836
  H     -0.494450    0.820293   -1.637115
  H     -0.535722    3.258151   -1.076287
  O     -1.522021    3.330255   -1.054614
  O     -3.000699    3.548121    0.429922
  N     -1.833816    3.509904    0.267107

----------------------------
CARTESIAN COORDINATES (A.U.)
----------------------------
  NO LB      ZA    FRAG     MASS         X           Y           Z
   0 C     6.0000    0    12.011   -5.173708    0.327487   -0.495727
   1 H     1.0000    0     1.008   -4.659632    1.902861   -1.711577
   2 C     6.0000    0    12.011   -3.351510   -0.904328    0.761721
   3 H     1.0000    0     1.008   -3.778165   -2.390580    2.112092
   4 C     6.0000    0    12.011   -0.652146   -0.195537    0.683625
   5 O     8.0000    0    15.999    0.783581   -0.858189    2.389796
   6 C     6.0000    0    12.011   -7.897767   -0.148032   -0.350918
   7 C     6.0000    0    12.011   -9.549596    1.633949   -1.378777
   8 C     6.0000    0    12.011   -8.923571   -2.311883    0.784419
   9 C     6.0000    0    12.011  -12.150852    1.295230   -1.253048
  10 H     1.0000    0     1.008   -8.792226    3.330152   -2.249256
  11 C     6.0000    0    12.011  -11.504721   -2.668161    0.914478
  12 H     1.0000    0     1.008   -7.727560   -3.768552    1.592713
  13 C     6.0000    0    12.011  -13.148678   -0.849004   -0.107827
  14 H     1.0000    0     1.008  -13.422569    2.704047   -2.035932
  15 O     8.0000    0    15.999  -15.663763   -1.299054    0.098655
  16 H     1.0000    0     1.008  -16.601447    0.058028   -0.676501
  17 O     8.0000    0    15.999  -12.458378   -4.768699    2.102158
  18 C     6.0000    0    12.011  -13.434988   -6.621916    0.388904
  19 H     1.0000    0     1.008  -11.945512   -7.279896   -0.885104
  20 H     1.0000    0     1.008  -14.096266   -8.190165    1.543944
  21 H     1.0000    0     1.008  -15.007019   -5.859943   -0.708634
  22 C     6.0000    0    12.011    5.600339   -0.433361   -0.680331
  23 H     1.0000    0     1.008    4.073526   -1.790461   -0.885224
  24 C     6.0000    0    12.011    5.049735    2.040779   -0.851618
  25 H     1.0000    0     1.008    6.475558    3.508256   -0.706392
  26 C     6.0000    0    12.011    2.519384    2.968391   -1.377785
  27 O     8.0000    0    15.999    2.150984    5.229131   -1.841647
  28 C     6.0000    0    12.011    8.083655   -1.543987   -0.227516
  29 C     6.0000    0    12.011    8.289677   -4.170290   -0.058331
  30 C     6.0000    0    12.011   10.282270   -0.085161    0.057290
  31 C     6.0000    0    12.011   10.603934   -5.318438    0.403162
  32 H     1.0000    0     1.008    6.614259   -5.333726   -0.274908
  33 C     6.0000    0    12.011   12.588560   -1.205155    0.523506
  34 H     1.0000    0     1.008   10.236351    1.961304   -0.055140
  35 C     6.0000    0    12.011   12.764462   -3.852313    0.707441
  36 H     1.0000    0     1.008   10.744226   -7.360934    0.548953
  37 O     8.0000    0    15.999   15.075255   -4.833604    1.197998
  38 H     1.0000    0     1.008   14.972113   -6.651095    1.296642
  39 O     8.0000    0    15.999   14.690714    0.268419    0.885413
  40 C     6.0000    0    12.011   16.395155    0.249216   -1.217953
  41 H     1.0000    0     1.008   15.451600    0.959617   -2.914618
  42 H     1.0000    0     1.008   17.948512    1.500600   -0.717162
  43 H     1.0000    0     1.008   17.120955   -1.650532   -1.565101
  44 C     6.0000    0    12.011    0.254594    1.314645   -1.443440
  45 H     1.0000    0     1.008   -0.934376    1.550130   -3.093698
  46 H     1.0000    0     1.008   -1.012369    6.157014   -2.033887
  47 O     8.0000    0    15.999   -2.876202    6.293269   -1.992932
  48 O     8.0000    0    15.999   -5.670500    6.704976    0.812434
  49 N     7.0000    0    14.007   -3.465409    6.632758    0.504758

--------------------------------
INTERNAL COORDINATES (ANGSTROEM)
--------------------------------
 C      0   0   0     0.000000000000     0.00000000     0.00000000
 H      1   0   0     1.087632375413     0.00000000     0.00000000
 C      1   2   0     1.340704788988   119.10240534     0.00000000
 H      3   1   2     1.086358819553   121.93687253   175.04854499
 C      3   1   2     1.477442492331   123.92148985     2.44898224
 O      5   3   1     1.230998143463   120.25726285   158.13839801
 C      1   2   3     1.465312775064   114.11806307   177.69296505
 C      7   1   2     1.396114581514   118.65711999   349.51780928
 C      7   1   2     1.402420863531   122.91517366   169.77236003
 C      8   7   1     1.389739808841   120.95620910   181.11051778
 H      8   7   1     1.085580716406   119.51397698   359.64435092
 C      9   7   1     1.380552876666   121.05199789   179.00564822
 H      9   7   1     1.085221532253   121.53810307   358.99187458
 C     10   8   7     1.390531230778   120.14757035   359.55324644
 H     10   8   7     1.086417463019   120.44980008   179.18160859
 O     14  10   8     1.356473531432   123.43224151   179.57255340
 H     16  14  10     0.964466484452   109.86498597     0.80214410
 O     12   9   7     1.373039429669   119.80280819   181.89685928
 C     18  12   9     1.432049753155   113.40598557   253.84505433
 H     19  18  12     1.094076108186   110.36906187    60.20659962
 H     19  18  12     1.088461102354   106.41754742   179.01789337
 H     19  18  12     1.091757655968   111.02953670   298.21621413
 C      6   5   3     3.031003728488    96.01346504   157.58078062
 H     23   6   5     1.086407072687    51.61498248   290.95917194
 C     23   6   5     1.344347144072    85.76259863    62.82857276
 H     25  23   6     1.085464967437   122.77302548   139.71516171
 C     25  23   6     1.453069864149   122.79536666   316.40649785
 O     27  25  23     1.236717152145   120.66900434   189.37987537
 C     23   6   5     1.459357887820   129.74508043   198.78752982
 C     29  23   6     1.396921185176   118.78114065    58.67631514
 C     29  23   6     1.404384441306   122.83638228   238.94856402
 C     30  29  23     1.388725316638   121.02167770   180.84502849
 H     30  29  23     1.085460348104   119.58924188     0.33012254
 C     31  29  23     1.378982934140   121.07394590   178.95003608
 H     31  29  23     1.084847917646   121.62004653   359.74928598
 C     32  30  29     1.391040803881   120.07548769     0.05577107
 H     32  30  29     1.086132405629   120.54008250   179.43593875
 O     36  32  30     1.353632759839   123.41611816   178.99693100
 H     38  36  32     0.964735942257   109.98101051     0.00000000
 O     34  31  29     1.371932074383   119.88756816   182.37208575
 C     40  34  31     1.432657719229   113.45259219   253.72410705
 H     41  40  34     1.093956484686   110.35568593    60.17496822
 H     41  40  34     1.088314286872   106.38035306   178.99321603
 H     41  40  34     1.091739986837   111.02299280   298.17990322
 C      5   3   1     1.461452330766   118.54159072   338.58310906
 H     45   5   3     1.083515987250   119.53709912   347.17269719
 H     28  27  25     1.747464909047   115.74524642   187.97188128
 O     47  28  27     0.989167574994   167.00046288     9.39235557
 O     48  47  28     2.106609344318   136.29163137    73.59373530
 N     49  48  47     1.178807466996    37.29662566     4.58911116

---------------------------
INTERNAL COORDINATES (A.U.)
---------------------------
 C      0   0   0     0.000000000000     0.00000000     0.00000000
 H      1   0   0     2.055327323917     0.00000000     0.00000000
 C      1   2   0     2.533564877624   119.10240534     0.00000000
 H      3   1   2     2.052920652125   121.93687253   175.04854499
 C      3   1   2     2.791961689123   123.92148985     2.44898224
 O      5   3   1     2.326249362511   120.25726285   158.13839801
 C      1   2   3     2.769039845408   114.11806307   177.69296505
 C      7   1   2     2.638274210636   118.65711999   349.51780928
 C      7   1   2     2.650191356571   122.91517366   169.77236003
 C      8   7   1     2.626227636117   120.95620910   181.11051778
 H      8   7   1     2.051450250273   119.51397698   359.64435092
 C      9   7   1     2.608866850296   121.05199789   179.00564822
 H      9   7   1     2.050771490592   121.53810307   358.99187458
 C     10   8   7     2.627723206835   120.14757035   359.55324644
 H     10   8   7     2.053031472216   120.44980008   179.18160859
 O     14  10   8     2.563363482319   123.43224151   179.57255340
 H     16  14  10     1.822577520961   109.86498597     0.80214410
 O     12   9   7     2.594668493150   119.80280819   181.89685928
 C     18  12   9     2.706181843612   113.40598557   253.84505433
 H     19  18  12     2.067504214137   110.36906187    60.20659962
 H     19  18  12     2.056893390875   106.41754742   179.01789337
 H     19  18  12     2.063122974390   111.02953670   298.21621413
 C      6   5   3     5.727766957736    96.01346504   157.58078062
 H     23   6   5     2.053011837334    51.61498248   290.95917194
 C     23   6   5     2.540447931215    85.76259863    62.82857276
 H     25  23   6     2.051231516422   122.77302548   139.71516171
 C     25  23   6     2.745904096695   122.79536666   316.40649785
 O     27  25  23     2.337056722676   120.66900434   189.37987537
 C     23   6   5     2.757786739358   129.74508043   198.78752982
 C     29  23   6     2.639798470655   118.78114065    58.67631514
 C     29  23   6     2.653901980808   122.83638228   238.94856402
 C     30  29  23     2.624310523689   121.02167770   180.84502849
 H     30  29  23     2.051222787147   119.58924188     0.33012254
 C     31  29  23     2.605900088875   121.07394590   178.95003608
 H     31  29  23     2.050065461306   121.62004653   359.74928598
 C     32  30  29     2.628686160445   120.07548769     0.05577107
 H     32  30  29     2.052492791815   120.54008250   179.43593875
 O     36  32  30     2.557995201999   123.41611816   178.99693100
 H     38  36  32     1.823086722416   109.98101051     0.00000000
 O     34  31  29     2.592575894926   119.88756816   182.37208575
 C     40  34  31     2.707330732992   113.45259219   253.72410705
 H     41  40  34     2.067278158483   110.35568593    60.17496822
 H     41  40  34     2.056615949822   106.38035306   178.99321603
 H     41  40  34     2.063089584572   111.02299280   298.17990322
 C      5   3   1     2.761744662929   118.54159072   338.58310906
 H     45   5   3     2.047548477628   119.53709912   347.17269719
 H     28  27  25     3.302230106737   115.74524642   187.97188128
 O     47  28  27     1.869255817294   167.00046288     9.39235557
 O     48  47  28     3.980914731921   136.29163137    73.59373530
 N     49  48  47     2.227623277245    37.29662566     4.58911116

---------------------
BASIS SET INFORMATION
---------------------
There are 4 groups of distinct atoms

 Group   1 Type C   : 11s5p1d contracted to 4s3p1d pattern {6311/311/1}
 Group   2 Type H   : 5s contracted to 3s pattern {311}
 Group   3 Type O   : 11s5p1d contracted to 4s3p1d pattern {6311/311/1}
 Group   4 Type N   : 11s5p1d contracted to 4s3p1d pattern {6311/311/1}

Atom   0C    basis set group =>   1
Atom   1H    basis set group =>   2
Atom   2C    basis set group =>   1
Atom   3H    basis set group =>   2
Atom   4C    basis set group =>   1
Atom   5O    basis set group =>   3
Atom   6C    basis set group =>   1
Atom   7C    basis set group =>   1
Atom   8C    basis set group =>   1
Atom   9C    basis set group =>   1
Atom  10H    basis set group =>   2
Atom  11C    basis set group =>   1
Atom  12H    basis set group =>   2
Atom  13C    basis set group =>   1
Atom  14H    basis set group =>   2
Atom  15O    basis set group =>   3
Atom  16H    basis set group =>   2
Atom  17O    basis set group =>   3
Atom  18C    basis set group =>   1
Atom  19H    basis set group =>   2
Atom  20H    basis set group =>   2
Atom  21H    basis set group =>   2
Atom  22C    basis set group =>   1
Atom  23H    basis set group =>   2
Atom  24C    basis set group =>   1
Atom  25H    basis set group =>   2
Atom  26C    basis set group =>   1
Atom  27O    basis set group =>   3
Atom  28C    basis set group =>   1
Atom  29C    basis set group =>   1
Atom  30C    basis set group =>   1
Atom  31C    basis set group =>   1
Atom  32H    basis set group =>   2
Atom  33C    basis set group =>   1
Atom  34H    basis set group =>   2
Atom  35C    basis set group =>   1
Atom  36H    basis set group =>   2
Atom  37O    basis set group =>   3
Atom  38H    basis set group =>   2
Atom  39O    basis set group =>   3
Atom  40C    basis set group =>   1
Atom  41H    basis set group =>   2
Atom  42H    basis set group =>   2
Atom  43H    basis set group =>   2
Atom  44C    basis set group =>   1
Atom  45H    basis set group =>   2
Atom  46H    basis set group =>   2
Atom  47O    basis set group =>   3
Atom  48O    basis set group =>   3
Atom  49N    basis set group =>   4
---------------------------------
AUXILIARY/J BASIS SET INFORMATION
---------------------------------
There are 4 groups of distinct atoms

 Group   1 Type C   : 12s5p4d2f1g contracted to 6s4p3d1f1g pattern {711111/2111/211/2/1}
 Group   2 Type H   : 5s2p1d contracted to 3s1p1d pattern {311/2/1}
 Group   3 Type O   : 12s5p4d2f1g contracted to 6s4p3d1f1g pattern {711111/2111/211/2/1}
 Group   4 Type N   : 12s5p4d2f1g contracted to 6s4p3d1f1g pattern {711111/2111/211/2/1}

Atom   0C    basis set group =>   1
Atom   1H    basis set group =>   2
Atom   2C    basis set group =>   1
Atom   3H    basis set group =>   2
Atom   4C    basis set group =>   1
Atom   5O    basis set group =>   3
Atom   6C    basis set group =>   1
Atom   7C    basis set group =>   1
Atom   8C    basis set group =>   1
Atom   9C    basis set group =>   1
Atom  10H    basis set group =>   2
Atom  11C    basis set group =>   1
Atom  12H    basis set group =>   2
Atom  13C    basis set group =>   1
Atom  14H    basis set group =>   2
Atom  15O    basis set group =>   3
Atom  16H    basis set group =>   2
Atom  17O    basis set group =>   3
Atom  18C    basis set group =>   1
Atom  19H    basis set group =>   2
Atom  20H    basis set group =>   2
Atom  21H    basis set group =>   2
Atom  22C    basis set group =>   1
Atom  23H    basis set group =>   2
Atom  24C    basis set group =>   1
Atom  25H    basis set group =>   2
Atom  26C    basis set group =>   1
Atom  27O    basis set group =>   3
Atom  28C    basis set group =>   1
Atom  29C    basis set group =>   1
Atom  30C    basis set group =>   1
Atom  31C    basis set group =>   1
Atom  32H    basis set group =>   2
Atom  33C    basis set group =>   1
Atom  34H    basis set group =>   2
Atom  35C    basis set group =>   1
Atom  36H    basis set group =>   2
Atom  37O    basis set group =>   3
Atom  38H    basis set group =>   2
Atom  39O    basis set group =>   3
Atom  40C    basis set group =>   1
Atom  41H    basis set group =>   2
Atom  42H    basis set group =>   2
Atom  43H    basis set group =>   2
Atom  44C    basis set group =>   1
Atom  45H    basis set group =>   2
Atom  46H    basis set group =>   2
Atom  47O    basis set group =>   3
Atom  48O    basis set group =>   3
Atom  49N    basis set group =>   4
------------------------------------------------------------------------------
                             ORCA STARTUP CALCULATIONS
                           -- RI-GTO INTEGRALS CHOSEN --
------------------------------------------------------------------------------
------------------------------------------------------------------------------
                   ___                                                        
                  /   \      - P O W E R E D   B Y -                         
                 /     \                                                     
                 |  |  |   _    _      __       _____    __    __             
                 |  |  |  | |  | |    /  \     |  _  \  |  |  /  |          
                  \  \/   | |  | |   /    \    | | | |  |  | /  /          
                 / \  \   | |__| |  /  /\  \   | |_| |  |  |/  /          
                |  |  |   |  __  | /  /__\  \  |    /   |      \           
                |  |  |   | |  | | |   __   |  |    \   |  |\   \          
                \     /   | |  | | |  |  |  |  | |\  \  |  | \   \       
                 \___/    |_|  |_| |__|  |__|  |_| \__\ |__|  \__/        
                                                                              
                      - O R C A' S   B I G   F R I E N D -                    
                                      &                                       
                       - I N T E G R A L  F E E D E R -                       
                                                                              
 v1 FN, 2020, v2 2021, v3 2022-2024                                           
------------------------------------------------------------------------------


----------------------
SHARK INTEGRAL PACKAGE
----------------------

Number of atoms                             ...     50
Number of basis functions                   ...    600
Number of shells                            ...    300
Maximum angular momentum                    ...      2
Integral batch strategy                     ... SHARK/LIBINT Hybrid
RI-J (if used) integral strategy            ... SPLIT-RIJ (Revised 2003 algorithm where possible)
Printlevel                                  ...      1
Contraction scheme used                     ... SEGMENTED contraction
Prescreening option                         ... SCHWARTZ
   Thresh                                   ... 2.500e-11
   Tcut                                     ... 2.500e-12
   Tpresel                                  ... 2.500e-12 
Coulomb Range Separation                    ... NOT USED
Exchange Range Separation                   ... Long Range
   Mu parameter                             ... 3.000e-01
   Scaling (regular/separated)              ... 1.500e-01 8.500e-01
Multipole approximations                    ... NOT USED
Finite Nucleus Model                        ... NOT USED
CABS basis                                  ... NOT available
Auxiliary Coulomb fitting basis             ... AVAILABLE
   # of basis functions in Aux-J            ...   1690
   # of shells in Aux-J                     ...    550
   Maximum angular momentum in Aux-J        ...      4
Auxiliary J/K fitting basis                 ... NOT available
Auxiliary Correlation fitting basis         ... NOT available
Auxiliary 'external' fitting basis          ... NOT available

Checking pre-screening integrals            ... done (  0.0 sec) Dimension = 300
Check shell pair data                       ... done (  0.0 sec)
Shell pair information
Shell pair cut-off parameter TPreSel        ...   2.5e-12
Total number of shell pairs                 ...     45150
Shell pairs after pre-screening             ...     20821
Total number of primitive shell pairs       ...    187045
Primitive shell pairs kept                  ...     51043
          la=0 lb=0:   7181 shell pairs
          la=1 lb=0:   7756 shell pairs
          la=1 lb=1:   2142 shell pairs
          la=2 lb=0:   2285 shell pairs
          la=2 lb=1:   1257 shell pairs
          la=2 lb=2:    200 shell pairs

Calculating one electron integrals          ... done (  0.1 sec)
Calculating RI/J V-Matrix + Cholesky decomp.... done (  0.5 sec)
Calculating Nuclear repulsion               ... done (  0.0 sec) ENN=   2607.655691855659 Eh

Diagonalization of the overlap matrix:
Smallest eigenvalue                        ... 1.708e-04
Time for diagonalization                   ...    0.043 sec
Threshold for overlap eigenvalues          ... 1.000e-07
Number of eigenvalues below threshold      ... 0
Time for construction of square roots      ...    0.047 sec
Total time needed                          ...    0.099 sec

-------------------
DFT GRID GENERATION
-------------------

General Integration Accuracy     IntAcc      ... 4.388
Radial Grid Type                 RadialGrid  ... OptM3 with GC (2021)
Angular Grid (max. ang.)         AngularGrid ... 4 (Lebedev-302)
Angular grid pruning method      GridPruning ... 4 (adaptive)
Weight generation scheme         WeightScheme... mBecke (2022)
Basis function cutoff            BFCut       ... 1.0000e-11
Integration weight cutoff        WCut        ... 1.0000e-14
Partially contracted basis set               ... off
Rotationally invariant grid construction     ... off
Angular grids for H and He will be reduced by one unit

Total number of grid points                  ...   243924
Total number of batches                      ...     3838
Average number of points per batch           ...       63
Average number of grid points per atom       ...     4878

------------------
NL GRID GENERATION
------------------

General Integration Accuracy     IntAcc      ... 4.004
Radial Grid Type                 RadialGrid  ... OptM3 with GC (2021)
Angular Grid (max. ang.)         AngularGrid ... 2 (Lebedev-110)
Angular grid pruning method      GridPruning ... 4 (adaptive)
Weight generation scheme         WeightScheme... mBecke (2022)
Basis function cutoff            BFCut       ... 1.0000e-10
Integration weight cutoff        WCut        ... 1.0000e-14
Partially contracted basis set               ... off
Rotationally invariant grid construction     ... off
Angular grids for H and He will be reduced by one unit

Total number of grid points                  ...    78515
Total number of batches                      ...     1254
Average number of points per batch           ...       62
Average number of grid points per atom       ...     1570
Initializing property integral containers    ... done (  0.0 sec)

SHARK setup successfully completed in   5.4 seconds

Maximum memory used throughout the entire STARTUP-calculation: 114.2 MB
-------------------------------------------------------------------------------
                                 ORCA GUESS
                   Start orbitals & Density for SCF / CASSCF
-------------------------------------------------------------------------------

------------
SCF SETTINGS
------------
Hamiltonian:
 Density Functional     Method          .... DFT(GTOs)
  Functional kind                       .... Exchange-Correlation
  Functional name                       .... wB97M-V exchange-correlation functional
  Functional family                     .... Hybrid MGGA
  Functional refs                              
    [ 0] N. Mardirossian and M. Head-Gordon.,  J. Chem. Phys. 144, 214110 (2016), doi: 10.1063/1.4952647
  Fraction of HF Exchange (short range) .... 0.1500
  Fraction of HF Exchange (long range)  .... 1.0000
  Range separation parameter mu         .... 0.3000
  Functional external parameters        .... 17
    Parameter  0 _cx00      =  8.500000e-01 : u^00 coefficient for exchange
    Parameter  1 _cx01      =  1.007000e+00 : u^01 coefficient for exchange
    Parameter  2 _cx10      =  2.590000e-01 : u^10 coefficient for exchange
    Parameter  3 _css00     =  4.430000e-01 : u^00 coefficient for same-spin correlation
    Parameter  4 _css04     = -1.437000e+00 : u^04 coefficient for same-spin correlation
    Parameter  5 _css10     = -4.535000e+00 : u^10 coefficient for same-spin correlation
    Parameter  6 _css20     = -3.390000e+00 : u^20 coefficient for same-spin correlation
    Parameter  7 _css43     =  4.278000e+00 : u^43 coefficient for same-spin correlation
    Parameter  8 _cos00     =  1.000000e+00 : u^00 coefficient for opposite-spin correlation
    Parameter  9 _cos10     =  1.358000e+00 : u^10 coefficient for opposite-spin correlation
    Parameter 10 _cos20     =  2.924000e+00 : u^20 coefficient for opposite-spin correlation
    Parameter 11 _cos21     = -8.812000e+00 : u^21 coefficient for opposite-spin correlation
    Parameter 12 _cos60     = -1.390000e+00 : u^60 coefficient for opposite-spin correlation
    Parameter 13 _cos61     =  9.142000e+00 : u^61 coefficient for opposite-spin correlation
    Parameter 14 _alpha     =  1.000000e+00 : fraction of HF exchange
    Parameter 15 _beta      = -8.500000e-01 : fraction of short-range exchange
    Parameter 16 _omega     =  3.000000e-01 : range-separation constant
 Long-range corrected/Screened/Range-Separated Hybrid DFT is turned on
   Amount of maximum screened exact exchange              ....  0.850000
   Range separation parameter mu (erf(mu*r12)/r12)        ....  0.300000
   NL short-range parameter             ....  6.000000
   NL long-range parameter              ....  0.010000
 RI-approximation to the Coulomb term is turned on
   Number of AuxJ basis functions       .... 1690
   RIJ-ON(X) (HFX calculated with O(N)) .... on


General Settings:
 Integral files         IntName         .... CURCUMIN-OPT-FREQ-Prod-WB97M-V-6-311G-D-363
 Hartree-Fock type      HFTyp           .... UHF
 Total Charge           Charge          ....    0
 Multiplicity           Mult            ....    2
 Number of Electrons    NEL             ....  217
 Basis Dimension        Dim             ....  600
 Nuclear Repulsion      ENuc            ....   2607.6556918557 Eh

Convergence Acceleration:
 AO-DIIS                CNVDIIS         .... on
   Start iteration      DIISMaxIt       ....    12
   Startup error        DIISStart       ....  0.200000
   # of expansion vecs  DIISMaxEq       ....     5
   Bias factor          DIISBfac        ....   1.050
   Max. coefficient     DIISMaxC        ....  10.000
 MO-DIIS                CNVKDIIS        .... off
 Trust-Rad. Augm. Hess. CNVTRAH         .... off
 SOSCF                  CNVSOSCF        .... on
   Start iteration      SOSCFMaxIt      ....   150
   Startup grad/error   SOSCFStart      ....  0.003300
   Hessian update       SOSCFHessUp     .... L-BFGS
 Level Shifting         CNVShift        .... on
   Level shift para.    LevelShift      ....    0.2500
   Turn off err/grad.   ShiftErr        ....    0.0010
 Zerner damping         CNVZerner       .... off
 Static damping         CNVDamp         .... on
   Fraction old density DampFac         ....    0.7000
   Max. Damping (<1)    DampMax         ....    0.9800
   Min. Damping (>=0)   DampMin         ....    0.0000
   Turn off err/grad.   DampErr         ....    0.1000

SCF Procedure:
 Maximum # iterations   MaxIter         ....   125
 SCF integral mode      SCFMode         .... Direct
   Integral package                     .... SHARK and LIBINT hybrid scheme
 Reset frequency        DirectResetFreq ....    20
 Integral Threshold     Thresh          ....  2.500e-11 Eh
 Primitive CutOff       TCut            ....  2.500e-12 Eh

Convergence Tolerance:
 Convergence Check Mode ConvCheckMode   .... Total+1el-Energy
 Convergence forced     ConvForced      .... 0
 Energy Change          TolE            ....  1.000e-08 Eh
 1-El. energy change                    ....  1.000e-05 Eh
 Orbital Gradient       TolG            ....  1.000e-05
 Orbital Rotation angle TolX            ....  1.000e-05
 DIIS Error             TolErr          ....  5.000e-07

------------------------------
INITIAL GUESS: MODEL POTENTIAL
------------------------------
Loading Hartree-Fock densities                     ... done
Calculating cut-offs                               ... done
Initializing the effective Hamiltonian             ... done
Setting up the integral package (SHARK)            ... done
Starting the Coulomb interaction                   ... done (   1.7 sec)
Making the grid                                    ... done (   0.8 sec)
Mapping shells                                     ... done
Starting the XC term evaluation                    ... done (   0.5 sec)
  promolecular density results
     # of electrons  =    216.986434926
     EX              =   -185.026329055
     EC              =     -7.293218061
     EX+EC           =   -192.319547116
Transforming the Hamiltonian                       ... done (   0.0 sec)
Diagonalizing the Hamiltonian                      ... done (   0.0 sec)
Back transforming the eigenvectors                 ... done (   0.3 sec)
Now organizing SCF variables                       ... done
                      ------------------
                      INITIAL GUESS DONE (   3.7 sec)
                      ------------------
             **** ENERGY FILE WAS UPDATED (CURCUMIN-OPT-FREQ-Prod-WB97M-V-6-311G-D-363.en.tmp) ****
Finished Guess after   4.3 sec
Maximum memory used throughout the entire GUESS-calculation: 66.6 MB

-------------------------------------------------------------------------------------------
                                      ORCA LEAN-SCF
                              memory conserving SCF solver
-------------------------------------------------------------------------------------------

--------------------
CPCM SOLVATION MODEL
--------------------
CPCM parameters:
  Epsilon                                         ...       7.0000
  Refrac                                          ...       1.8534
  Rsolv                                           ...       1.3000
  Surface type                                    ... GAUSSIAN VDW
  Discretization scheme                           ... Constant charge density
    Threshold for H atoms                         ...       5.0000 (charges/Ang^2)
    Threshold for non-H atoms                     ...       5.0000 (charges/Ang^2)
  Epsilon function type                           ...         CPCM
Solvent:                                          ... CUSTOM
Radii:
  Scheme                                          ... Element-dependent radii
  Radius for C  used is    3.8550 Bohr (=   2.0400 Ang.)
  Radius for H  used is    2.4944 Bohr (=   1.3200 Ang.)
  Radius for O  used is    3.4469 Bohr (=   1.8240 Ang.)
  Radius for N  used is    3.5149 Bohr (=   1.8600 Ang.)
Calculating surface                               ...        done! (  0.0s)
Cavity surface points                             ...         4498
Cavity Volume                                     ...    3255.2171
Cavity Surface-area                               ...    1667.6006
Calculating surface distance matrix               ...        done! (  0.1s)
Performing Cholesky decomposition & store         ...        done! (  2.1s)
Overall time for CPCM initialization              ...                 2.2s

----------------------------------------D-I-I-S--------------------------------------------
Iteration    Energy (Eh)           Delta-E    RMSDP     MaxDP     DIISErr   Damp  Time(sec)
-------------------------------------------------------------------------------------------
               ***  Starting incremental Fock matrix formation  ***
    1    -1467.8054273835139156     0.00e+00  6.49e-04  4.89e-02  1.58e-01  0.700 110.2
    2    -1468.0794967437004743    -2.74e-01  4.91e-04  3.96e-02  7.60e-02  0.700 101.5
                               ***Turning on AO-DIIS***
    3    -1468.2160426893738077    -1.37e-01  2.51e-04  1.45e-02  2.89e-02  0.700 100.4
    4    -1468.3004784330769326    -8.44e-02  5.37e-04  2.17e-02  2.04e-02  0.000  98.3
    5    -1468.4882450154404978    -1.88e-01  7.54e-05  5.12e-03  4.68e-03  0.000 102.5
                              *** Initializing SOSCF ***
---------------------------------------S-O-S-C-F--------------------------------------
Iteration    Energy (Eh)           Delta-E    RMSDP     MaxDP     MaxGrad    Time(sec)
--------------------------------------------------------------------------------------
    6    -1468.4906073228837613    -2.36e-03  5.14e-05  3.22e-03  3.12e-03    94.2
               *** Restarting incremental Fock matrix formation ***
    7    -1468.4919122529927336    -1.30e-03  6.25e-05  3.97e-03  9.28e-03   109.0
    8    -1468.4930997713195211    -1.19e-03  1.20e-04  8.08e-03  4.83e-03    92.9
    9    -1468.4936135558996284    -5.14e-04  2.87e-05  2.62e-03  2.65e-03    93.9
   10    -1468.4937893057278870    -1.76e-04  1.35e-05  7.55e-04  8.21e-04    86.0
   11    -1468.4938339833881855    -4.47e-05  1.06e-05  7.10e-04  4.38e-04    85.0
   12    -1468.4938539067240981    -1.99e-05  1.30e-05  7.24e-04  3.32e-04    81.8
   13    -1468.4938652552468739    -1.13e-05  5.09e-06  2.60e-04  2.49e-04    82.2
   14    -1468.4938676476010642    -2.39e-06  2.60e-06  1.99e-04  2.22e-04    78.9
   15    -1468.4938691181307604    -1.47e-06  1.62e-06  6.46e-05  4.93e-05    75.8
   16    -1468.4938694355853386    -3.17e-07  1.02e-06  4.81e-05  6.76e-05    75.9
   17    -1468.4938695631653900    -1.28e-07  4.87e-07  2.27e-05  3.37e-05    72.7
   18    -1468.4938696216872813    -5.85e-08  4.37e-07  2.88e-05  1.47e-05    70.3
   19    -1468.4938696385863750    -1.69e-08  1.36e-07  7.17e-06  8.31e-06    70.6
   20    -1468.4938696561466713    -1.76e-08  7.21e-08  4.25e-06  4.77e-06    65.0
   21    -1468.4938696639301270    -7.78e-09  5.33e-08  3.62e-06  1.32e-06    63.5
                 **** Energy Check signals convergence ****

               *****************************************************
               *                     SUCCESS                       *
               *           SCF CONVERGED AFTER  21 CYCLES          *
               *****************************************************

             **** ENERGY FILE WAS UPDATED (CURCUMIN-OPT-FREQ-Prod-WB97M-V-6-311G-D-363.en.tmp) ****

----------------
TOTAL SCF ENERGY
----------------

Total Energy       :      -1468.49386966393013 Eh          -39959.74971 eV

Components:
Nuclear Repulsion  :       2607.65569185565892 Eh           70957.91881 eV
Electronic Energy  :      -4076.93213163472137 Eh         -110938.96333 eV
One Electron Energy:      -7186.48721947400190 Eh         -195554.25903 eV
Two Electron Energy:       3109.55508783928053 Eh           84615.29570 eV
CPCM Dielectric    :         -0.03956807976969 Eh              -1.07670 eV

Virial components:
Potential Energy   :      -2933.81074148900416 Eh          -79833.04891 eV
Kinetic Energy     :       1465.31687182507403 Eh           39873.29920 eV
Virial Ratio       :          2.00216813025220

DFT components:
N(Alpha)           :      109.000066273741 electrons
N(Beta)            :      108.000033541049 electrons
N(Total)           :      217.000099814790 electrons
NL Energy, E(C,NL) :        0.822138194902 Eh       
E(XC)              :     -139.506460284840 Eh       

CPCM Solvation Model Properties:
Surface-charge          :         -0.02812505668964
Corrected charge        :          0.00000000000000
Outlying charge corr.   :          0.00003012564561 Eh               0.00082 eV
Free-energy (cav+disp)  :  This term is not implemented in the current solvation scheme

---------------
SCF CONVERGENCE
---------------

  Last Energy change         ...    7.7835e-09  Tolerance :   1.0000e-08
  Last MAX-Density change    ...    3.6242e-06  Tolerance :   1.0000e-07
  Last RMS-Density change    ...    5.3269e-08  Tolerance :   5.0000e-09
  Last DIIS Error            ...    3.1162e-03  Tolerance :   5.0000e-07
  Last Orbital Gradient      ...    1.3188e-06  Tolerance :   1.0000e-05
  Last Orbital Rotation      ...    1.0320e-05  Tolerance :   1.0000e-05


----------------------
UHF SPIN CONTAMINATION
----------------------

Warning: in a DFT calculation there is little theoretical justification to 
         calculate <S**2> as in Hartree-Fock theory. We will do it anyways
         but you should keep in mind that the values have only limited relevance

Expectation value of <S**2>     :     0.762806
Ideal value S*(S+1) for S=0.5   :     0.750000
Deviation                       :     0.012806

----------------
ORBITAL ENERGIES
----------------
                 SPIN UP ORBITALS
  NO   OCC          E(Eh)            E(eV) 
   0   1.0000     -19.394207      -527.7432 
   1   1.0000     -19.385978      -527.5193 
   2   1.0000     -19.369553      -527.0723 
   3   1.0000     -19.365487      -526.9617 
   4   1.0000     -19.349078      -526.5152 
   5   1.0000     -19.346947      -526.4572 
   6   1.0000     -19.344381      -526.3874 
   7   1.0000     -19.329210      -525.9745 
   8   1.0000     -14.681692      -399.5092 
   9   1.0000     -10.461307      -284.6666 
  10   1.0000     -10.447392      -284.2880 
  11   1.0000     -10.426025      -283.7066 
  12   1.0000     -10.420780      -283.5638 
  13   1.0000     -10.408757      -283.2367 
  14   1.0000     -10.405418      -283.1458 
  15   1.0000     -10.398197      -282.9493 
  16   1.0000     -10.383458      -282.5483 
  17   1.0000     -10.382278      -282.5161 
  18   1.0000     -10.380911      -282.4789 
  19   1.0000     -10.373734      -282.2836 
  20   1.0000     -10.366277      -282.0807 
  21   1.0000     -10.362708      -281.9836 
  22   1.0000     -10.362526      -281.9787 
  23   1.0000     -10.360084      -281.9122 
  24   1.0000     -10.357072      -281.8302 
  25   1.0000     -10.356581      -281.8169 
  26   1.0000     -10.355691      -281.7927 
  27   1.0000     -10.355655      -281.7917 
  28   1.0000     -10.353995      -281.7465 
  29   1.0000     -10.353178      -281.7243 
  30   1.0000      -1.357883       -36.9499 
  31   1.0000      -1.212899       -33.0047 
  32   1.0000      -1.208614       -32.8881 
  33   1.0000      -1.199665       -32.6446 
  34   1.0000      -1.184593       -32.2344 
  35   1.0000      -1.182969       -32.1902 
  36   1.0000      -1.182066       -32.1657 
  37   1.0000      -1.180221       -32.1154 
  38   1.0000      -1.002626       -27.2828 
  39   1.0000      -0.998230       -27.1632 
  40   1.0000      -0.950907       -25.8755 
  41   1.0000      -0.941200       -25.6114 
  42   1.0000      -0.905576       -24.6420 
  43   1.0000      -0.888987       -24.1906 
  44   1.0000      -0.885058       -24.0836 
  45   1.0000      -0.876563       -23.8525 
  46   1.0000      -0.856122       -23.2963 
  47   1.0000      -0.811687       -22.0871 
  48   1.0000      -0.809422       -22.0255 
  49   1.0000      -0.804381       -21.8883 
  50   1.0000      -0.789957       -21.4958 
  51   1.0000      -0.779741       -21.2178 
  52   1.0000      -0.752284       -20.4707 
  53   1.0000      -0.741049       -20.1650 
  54   1.0000      -0.709087       -19.2952 
  55   1.0000      -0.705071       -19.1860 
  56   1.0000      -0.694064       -18.8865 
  57   1.0000      -0.682029       -18.5590 
  58   1.0000      -0.671615       -18.2756 
  59   1.0000      -0.666574       -18.1384 
  60   1.0000      -0.647359       -17.6155 
  61   1.0000      -0.633488       -17.2381 
  62   1.0000      -0.627787       -17.0829 
  63   1.0000      -0.625006       -17.0073 
  64   1.0000      -0.619837       -16.8666 
  65   1.0000      -0.615653       -16.7528 
  66   1.0000      -0.612762       -16.6741 
  67   1.0000      -0.594662       -16.1816 
  68   1.0000      -0.590071       -16.0566 
  69   1.0000      -0.585508       -15.9325 
  70   1.0000      -0.580225       -15.7887 
  71   1.0000      -0.578072       -15.7301 
  72   1.0000      -0.575659       -15.6645 
  73   1.0000      -0.563904       -15.3446 
  74   1.0000      -0.556216       -15.1354 
  75   1.0000      -0.549187       -14.9441 
  76   1.0000      -0.545357       -14.8399 
  77   1.0000      -0.540965       -14.7204 
  78   1.0000      -0.536956       -14.6113 
  79   1.0000      -0.534467       -14.5436 
  80   1.0000      -0.532653       -14.4942 
  81   1.0000      -0.523515       -14.2456 
  82   1.0000      -0.521034       -14.1781 
  83   1.0000      -0.519367       -14.1327 
  84   1.0000      -0.510217       -13.8837 
  85   1.0000      -0.507828       -13.8187 
  86   1.0000      -0.488021       -13.2797 
  87   1.0000      -0.483630       -13.1602 
  88   1.0000      -0.482532       -13.1304 
  89   1.0000      -0.479537       -13.0489 
  90   1.0000      -0.477284       -12.9876 
  91   1.0000      -0.474473       -12.9111 
  92   1.0000      -0.471336       -12.8257 
  93   1.0000      -0.468345       -12.7443 
  94   1.0000      -0.447513       -12.1775 
  95   1.0000      -0.445702       -12.1282 
  96   1.0000      -0.442264       -12.0346 
  97   1.0000      -0.404691       -11.0122 
  98   1.0000      -0.397622       -10.8199 
  99   1.0000      -0.394175       -10.7261 
 100   1.0000      -0.386953       -10.5295 
 101   1.0000      -0.384899       -10.4736 
 102   1.0000      -0.376006       -10.2316 
 103   1.0000      -0.372821       -10.1450 
 104   1.0000      -0.356634        -9.7045 
 105   1.0000      -0.349129        -9.5003 
 106   1.0000      -0.345657        -9.4058 
 107   1.0000      -0.308248        -8.3879 
 108   1.0000      -0.303027        -8.2458 
 109   0.0000      -0.013146        -0.3577 
 110   0.0000       0.010772         0.2931 
 111   0.0000       0.026606         0.7240 
 112   0.0000       0.062875         1.7109 
 113   0.0000       0.066612         1.8126 
 114   0.0000       0.086236         2.3466 
 115   0.0000       0.102013         2.7759 
 116   0.0000       0.110658         3.0112 
 117   0.0000       0.112697         3.0666 
 118   0.0000       0.127546         3.4707 
 119   0.0000       0.130241         3.5440 

                 SPIN DOWN ORBITALS
  NO   OCC          E(Eh)            E(eV) 
   0   1.0000     -19.394215      -527.7434 
   1   1.0000     -19.385834      -527.5154 
   2   1.0000     -19.369551      -527.0723 
   3   1.0000     -19.365488      -526.9617 
   4   1.0000     -19.349078      -526.5152 
   5   1.0000     -19.346946      -526.4572 
   6   1.0000     -19.342011      -526.3229 
   7   1.0000     -19.323653      -525.8233 
   8   1.0000     -14.681672      -399.5086 
   9   1.0000     -10.462154      -284.6897 
  10   1.0000     -10.448916      -284.3295 
  11   1.0000     -10.426023      -283.7065 
[...]
108:   1383.72   0.038786  196.01  0.008747  (-0.090134  0.020122 -0.014771)
109:   1405.39   0.065423  330.62  0.014527  ( 0.116575  0.018521 -0.024377)
110:   1461.55   0.069124  349.32  0.014759  ( 0.076686 -0.024101 -0.091090)
111:   1469.53   0.001161    5.87  0.000247  ( 0.014327  0.005876  0.002592)
112:   1470.07   0.000980    4.95  0.000208  (-0.008522 -0.010715  0.004535)
113:   1484.62   0.002801   14.15  0.000589  ( 0.008681 -0.021790  0.006211)
114:   1485.42   0.002757   13.93  0.000579  (-0.017100  0.016380 -0.004300)
115:   1497.24   0.012362   62.47  0.002577  ( 0.050539  0.003435  0.003247)
116:   1497.68   0.007300   36.89  0.001521  (-0.023810 -0.029500  0.009166)
117:   1499.71   0.000512    2.59  0.000106  (-0.002756 -0.007938 -0.005988)
118:   1502.80   0.000423    2.14  0.000088  (-0.001444 -0.002303  0.008969)
119:   1561.63   0.084980  429.45  0.016982  ( 0.123903  0.038545 -0.012000)
120:   1563.27   0.062523  315.97  0.012481  (-0.103555  0.037107 -0.019503)
121:   1638.14   0.336998  1703.05  0.064197  ( 0.161879 -0.185387  0.060201)
122:   1652.92   0.032907  166.30  0.006213  ( 0.020166  0.070088  0.029893)
123:   1663.51   0.014217   71.85  0.002667  ( 0.025716 -0.042598  0.013826)
124:   1668.06   0.011884   60.06  0.002223  ( 0.038096 -0.018761  0.020494)
125:   1680.91   0.044684  225.81  0.008296  ( 0.087843 -0.020297  0.012936)
126:   1683.08   0.011712   59.19  0.002172  (-0.045658  0.007573  0.005442)
127:   1704.99   0.063195  319.36  0.011567  (-0.084276  0.065557 -0.012899)
128:   1716.68   0.090687  458.29  0.016485  (-0.124495  0.012580 -0.028776)
129:   1774.40   0.031932  161.37  0.005616  (-0.067898  0.005855  0.031166)
130:   3039.57   0.013934   70.41  0.001431  (-0.007713 -0.031005 -0.020242)
131:   3041.93   0.013563   68.54  0.001391  (-0.022088 -0.008291  0.028893)
132:   3119.06   0.010416   52.64  0.001042  ( 0.031733 -0.004990 -0.003203)
133:   3119.78   0.010131   51.20  0.001013  ( 0.022436 -0.019964  0.010554)
134:   3162.96   0.008339   42.14  0.000823  (-0.006578 -0.020145  0.019329)
135:   3164.54   0.008239   41.64  0.000813  (-0.018995 -0.018594 -0.010294)
136:   3176.75   0.000365    1.85  0.000036  ( 0.004132  0.000746 -0.004272)
137:   3180.23   0.003776   19.08  0.000370  (-0.018993  0.003079 -0.000514)
138:   3184.71   0.002795   14.13  0.000274  ( 0.013713 -0.008788  0.002936)
139:   3187.43   0.001703    8.61  0.000167  ( 0.009285  0.006855 -0.005788)
140:   3193.47   0.000127    0.64  0.000012  ( 0.002543 -0.000218  0.002420)
141:   3197.05   0.001948    9.84  0.000190  ( 0.013587 -0.000350  0.002321)
142:   3199.48   0.002439   12.32  0.000238  (-0.002472  0.012674 -0.008433)
143:   3201.01   0.003358   16.97  0.000327  (-0.006412 -0.016885 -0.001046)
144:   3204.38   0.001034    5.22  0.000101  (-0.000619 -0.009016  0.004359)
145:   3207.66   0.001419    7.17  0.000138  (-0.009244 -0.007239 -0.000425)
146:   3221.96   0.000100    0.50  0.000010  (-0.001848  0.002404 -0.000690)
147:   3322.75   0.355896  1798.55  0.033425  (-0.164138  0.078733  0.016872)
148:   3803.94   0.036695  185.44  0.003010  ( 0.048726 -0.022246  0.011887)
149:   3804.65   0.037222  188.10  0.003053  ( 0.026956 -0.047557  0.008040)

* The epsilon (eps) is given for a Dirac delta lineshape.
** The dipole moment derivative (T) already includes vibrational overlap.

The first frequency considered to be a vibration is 7
The total number of vibrations considered is 143


--------------------------
THERMOCHEMISTRY AT 363.15K
--------------------------

Temperature         ...   363.15 K
Pressure            ...     1.00 atm
Total Mass          ...   414.39 AMU
Quasi RRHO          ...     True
Cut-Off Frequency   ...     1.00 cm^-1

Throughout the following assumptions are being made:
  (1) The electronic state is orbitally nondegenerate
      but the spin degeneracy is treated
  (2) There are no thermally accessible electronically excited states
  (3) Hindered rotations indicated by low frequency modes are not
      treated as such but are treated as vibrations and this may
      cause some error
  (4) All equations used are the standard statistical mechanics
      equations for an ideal gas
  (5) All vibrations are strictly harmonic

freq.      14.83  E(vib)   ...       0.70 
freq.      16.73  E(vib)   ...       0.70 
freq.      18.66  E(vib)   ...       0.70 
freq.      30.69  E(vib)   ...       0.68 
freq.      44.94  E(vib)   ...       0.66 
freq.      51.94  E(vib)   ...       0.65 
freq.      61.52  E(vib)   ...       0.64 
freq.      65.18  E(vib)   ...       0.63 
freq.      69.75  E(vib)   ...       0.63 
freq.      80.34  E(vib)   ...       0.61 
freq.      92.95  E(vib)   ...       0.60 
freq.     103.16  E(vib)   ...       0.58 
freq.     109.51  E(vib)   ...       0.58 
freq.     117.12  E(vib)   ...       0.57 
freq.     132.20  E(vib)   ...       0.55 
freq.     139.32  E(vib)   ...       0.54 
freq.     149.08  E(vib)   ...       0.53 
freq.     158.52  E(vib)   ...       0.52 
freq.     159.86  E(vib)   ...       0.52 
freq.     166.19  E(vib)   ...       0.51 
freq.     171.33  E(vib)   ...       0.50 
freq.     184.10  E(vib)   ...       0.49 
freq.     193.19  E(vib)   ...       0.48 
freq.     219.87  E(vib)   ...       0.45 
freq.     227.20  E(vib)   ...       0.44 
freq.     251.59  E(vib)   ...       0.42 
freq.     300.78  E(vib)   ...       0.38 
freq.     304.57  E(vib)   ...       0.37 
freq.     325.27  E(vib)   ...       0.35 
freq.     332.36  E(vib)   ...       0.35 
freq.     336.16  E(vib)   ...       0.34 
freq.     346.45  E(vib)   ...       0.34 
freq.     374.47  E(vib)   ...       0.31 
freq.     396.98  E(vib)   ...       0.30 
freq.     400.79  E(vib)   ...       0.29 
freq.     412.06  E(vib)   ...       0.29 
freq.     420.83  E(vib)   ...       0.28 
freq.     432.88  E(vib)   ...       0.27 
freq.     467.51  E(vib)   ...       0.25 
freq.     471.64  E(vib)   ...       0.25 
freq.     500.67  E(vib)   ...       0.23 
freq.     503.38  E(vib)   ...       0.23 
freq.     548.12  E(vib)   ...       0.20 
freq.     554.34  E(vib)   ...       0.20 
freq.     578.11  E(vib)   ...       0.19 
freq.     582.13  E(vib)   ...       0.18 
freq.     591.71  E(vib)   ...       0.18 
freq.     596.29  E(vib)   ...       0.18 
freq.     621.45  E(vib)   ...       0.17 
freq.     642.20  E(vib)   ...       0.16 
freq.     662.86  E(vib)   ...       0.15 
freq.     715.46  E(vib)   ...       0.13 
freq.     745.89  E(vib)   ...       0.12 
freq.     747.21  E(vib)   ...       0.12 
freq.     750.89  E(vib)   ...       0.12 
freq.     764.38  E(vib)   ...       0.11 
freq.     771.46  E(vib)   ...       0.11 
freq.     784.98  E(vib)   ...       0.10 
freq.     819.34  E(vib)   ...       0.09 
freq.     822.52  E(vib)   ...       0.09 
freq.     825.11  E(vib)   ...       0.09 
freq.     833.50  E(vib)   ...       0.09 
freq.     870.44  E(vib)   ...       0.08 
freq.     887.10  E(vib)   ...       0.08 
freq.     913.18  E(vib)   ...       0.07 
freq.     915.38  E(vib)   ...       0.07 
freq.     920.83  E(vib)   ...       0.07 
freq.     938.23  E(vib)   ...       0.07 
freq.     941.34  E(vib)   ...       0.07 
freq.     953.50  E(vib)   ...       0.06 
freq.     958.28  E(vib)   ...       0.06 
freq.     972.86  E(vib)   ...       0.06 
freq.     974.38  E(vib)   ...       0.06 
freq.     976.77  E(vib)   ...       0.06 
freq.    1000.57  E(vib)   ...       0.06 
freq.    1029.33  E(vib)   ...       0.05 
freq.    1058.14  E(vib)   ...       0.05 
freq.    1059.10  E(vib)   ...       0.05 
freq.    1144.01  E(vib)   ...       0.04 
freq.    1144.82  E(vib)   ...       0.04 
freq.    1177.35  E(vib)   ...       0.03 
freq.    1177.70  E(vib)   ...       0.03 
freq.    1187.76  E(vib)   ...       0.03 
freq.    1188.56  E(vib)   ...       0.03 
freq.    1197.98  E(vib)   ...       0.03 
freq.    1201.86  E(vib)   ...       0.03 
freq.    1202.94  E(vib)   ...       0.03 
freq.    1222.52  E(vib)   ...       0.03 
freq.    1223.89  E(vib)   ...       0.03 
freq.    1262.60  E(vib)   ...       0.02 
freq.    1269.35  E(vib)   ...       0.02 
freq.    1287.55  E(vib)   ...       0.02 
freq.    1289.51  E(vib)   ...       0.02 
freq.    1304.75  E(vib)   ...       0.02 
freq.    1312.54  E(vib)   ...       0.02 
freq.    1321.02  E(vib)   ...       0.02 
freq.    1327.97  E(vib)   ...       0.02 
freq.    1349.36  E(vib)   ...       0.02 
freq.    1362.36  E(vib)   ...       0.02 
freq.    1366.01  E(vib)   ...       0.02 
freq.    1378.50  E(vib)   ...       0.02 
freq.    1383.72  E(vib)   ...       0.02 
freq.    1405.39  E(vib)   ...       0.02 
freq.    1461.55  E(vib)   ...       0.01 
freq.    1469.53  E(vib)   ...       0.01 
freq.    1470.07  E(vib)   ...       0.01 
freq.    1484.62  E(vib)   ...       0.01 
freq.    1485.42  E(vib)   ...       0.01 
freq.    1497.24  E(vib)   ...       0.01 
freq.    1497.68  E(vib)   ...       0.01 
freq.    1499.71  E(vib)   ...       0.01 
freq.    1502.80  E(vib)   ...       0.01 
freq.    1561.63  E(vib)   ...       0.01 
freq.    1563.27  E(vib)   ...       0.01 
freq.    1638.14  E(vib)   ...       0.01 
freq.    1652.92  E(vib)   ...       0.01 
freq.    1663.51  E(vib)   ...       0.01 
freq.    1668.06  E(vib)   ...       0.01 
freq.    1680.91  E(vib)   ...       0.01 
freq.    1683.08  E(vib)   ...       0.01 
freq.    1704.99  E(vib)   ...       0.01 
freq.    1716.68  E(vib)   ...       0.01 
freq.    1774.40  E(vib)   ...       0.00 
freq.    3039.57  E(vib)   ...       0.00 
freq.    3041.93  E(vib)   ...       0.00 
freq.    3119.06  E(vib)   ...       0.00 
freq.    3119.78  E(vib)   ...       0.00 
freq.    3162.96  E(vib)   ...       0.00 
freq.    3164.54  E(vib)   ...       0.00 
freq.    3176.75  E(vib)   ...       0.00 
freq.    3180.23  E(vib)   ...       0.00 
freq.    3184.71  E(vib)   ...       0.00 
freq.    3187.43  E(vib)   ...       0.00 
freq.    3193.47  E(vib)   ...       0.00 
freq.    3197.05  E(vib)   ...       0.00 
freq.    3199.48  E(vib)   ...       0.00 
freq.    3201.01  E(vib)   ...       0.00 
freq.    3204.38  E(vib)   ...       0.00 
freq.    3207.66  E(vib)   ...       0.00 
freq.    3221.96  E(vib)   ...       0.00 
freq.    3322.75  E(vib)   ...       0.00 
freq.    3803.94  E(vib)   ...       0.00 
freq.    3804.65  E(vib)   ...       0.00 

------------
INNER ENERGY
------------

The inner energy is: U= E(el) + E(ZPE) + E(vib) + E(rot) + E(trans)
    E(el)   - is the total energy from the electronic structure calculation
              = E(kin-el) + E(nuc-el) + E(el-el) + E(nuc-nuc)
    E(ZPE)  - the the zero temperature vibrational energy from the frequency calculation
    E(vib)  - the the finite temperature correction to E(ZPE) due to population
              of excited vibrational states
    E(rot)  - is the rotational thermal energy
    E(trans)- is the translational thermal energy

Summary of contributions to the inner energy U:
Electronic energy                ...  -1468.49387642 Eh
Zero point energy                ...      0.37996087 Eh     238.43 kcal/mol
Thermal vibrational correction   ...      0.03869379 Eh      24.28 kcal/mol
Thermal rotational correction    ...      0.00172503 Eh       1.08 kcal/mol
Thermal translational correction ...      0.00172503 Eh       1.08 kcal/mol
-----------------------------------------------------------------------
Total thermal energy                  -1468.07177168 Eh


Summary of corrections to the electronic energy:
(perhaps to be used in another calculation)
Total thermal correction                  0.04214386 Eh      26.45 kcal/mol
Non-thermal (ZPE) correction              0.37996087 Eh     238.43 kcal/mol
-----------------------------------------------------------------------
Total correction                          0.42210473 Eh     264.87 kcal/mol


--------
ENTHALPY
--------

The enthalpy is H = U + kB*T
                kB is Boltzmann's constant
Total thermal energy              ...  -1468.07177168 Eh 
Thermal Enthalpy correction       ...      0.00115006 Eh       0.72 kcal/mol
-----------------------------------------------------------------------
Total Enthalpy                    ...  -1468.07062163 Eh


Note: Only C1 symmetry has been detected, increase convergence thresholds 
      if your molecule has a higher symmetry. Symmetry factor of 1.0 is   
      used for the rotational entropy correction. 
 

Note: Rotational entropy computed according to Herzberg 
Infrared and Raman Spectra, Chapter V,1, Van Nostrand Reinhold, 1945 
Point Group:  C1, Symmetry Number:   1  
Rotational constants in cm-1:     0.010446     0.001488     0.001325 

Vibrational entropy computed according to the QRRHO of S. Grimme
Chem.Eur.J. 2012 18 9955 using a reference frequency of 100.0 cm-1


-------
ENTROPY
-------

The entropy contributions are T*S = T*(S(el)+S(vib)+S(rot)+S(trans))
     S(el)   - electronic entropy
     S(vib)  - vibrational entropy
     S(rot)  - rotational entropy
     S(trans)- translational entropy
The entropies will be listed as multiplied by the temperature to get
units of energy

Electronic entropy                ...      0.00079714 Eh      0.50 kcal/mol
Vibrational entropy               ...      0.07220620 Eh     45.31 kcal/mol
Rotational entropy                ...      0.02210091 Eh     13.87 kcal/mol
Translational entropy             ...      0.02600477 Eh     16.32 kcal/mol
-----------------------------------------------------------------------
Final entropy term                ...      0.12110902 Eh     76.00 kcal/mol

In case the symmetry of your molecule has not been determined correctly
or in case you have a reason to use a different symmetry number we print 
out the resulting rotational entropy values for sn=1,12:

 non-linear molecules -----------------------------------
|  sn= 1 | S(rot)=       0.02210091 Eh     13.87 kcal/mol|
|  sn= 2 | S(rot)=       0.02130378 Eh     13.37 kcal/mol|
|  sn= 3 | S(rot)=       0.02083748 Eh     13.08 kcal/mol|
|  sn= 4 | S(rot)=       0.02050664 Eh     12.87 kcal/mol|
|  sn= 5 | S(rot)=       0.02025002 Eh     12.71 kcal/mol|
|  sn= 6 | S(rot)=       0.02004035 Eh     12.58 kcal/mol|
|  sn= 7 | S(rot)=       0.01986307 Eh     12.46 kcal/mol|
|  sn= 8 | S(rot)=       0.01970951 Eh     12.37 kcal/mol|
|  sn= 9 | S(rot)=       0.01957406 Eh     12.28 kcal/mol|
|  sn=10 | S(rot)=       0.01945289 Eh     12.21 kcal/mol|
|  sn=11 | S(rot)=       0.01934328 Eh     12.14 kcal/mol|
|  sn=12 | S(rot)=       0.01924321 Eh     12.08 kcal/mol|
 linear molecules ---------------------------------------
|  Dinfh | S(rot)=       0.01433399 Eh      8.99 kcal/mol|
|  Cinfv | S(rot)=       0.01513112 Eh      9.49 kcal/mol|
 --------------------------------------------------------


-------------------
GIBBS FREE ENERGY
-------------------

The Gibbs free energy is G = H - T*S

Total enthalpy                    ...  -1468.07062163 Eh 
Total entropy correction          ...     -0.12110902 Eh    -76.00 kcal/mol
-----------------------------------------------------------------------
Final Gibbs free energy         ...  -1468.19173064 Eh

For completeness - the Gibbs free energy minus the electronic energy
G-E(el)                           ...      0.30214577 Eh    189.60 kcal/mol



--------------------------------
SUGGESTED CITATIONS FOR THIS RUN
--------------------------------

Below you find a list of papers that are relevant to this ORCA run
We neither can nor want to force you to cite these papers, but we appreciate if you do
You receive ORCA, which is the product of decades of hard work by many enthusiastic individuals, for free
The only thing we kindly ask in return is that you cite our papers,
We deeply appreciate it, if you show your appreciation for ORCA by not just citing the generic ORCA reference.

Please note that relegating all ORCA citations to the supporting information does *not* help us.
SI sections are not indexed - citations you put there will not count into any citation statistics
But we need these citations in order to attract the funding resources that allow us to do what we are doing

Therefore, if you are a happy ORCA user, please consider citing a few of the papers listed below in the main body of your paper

In addition to the list printed below, the program has created the file CURCUMIN-OPT-FREQ-Prod-WB97M-V-6-311G-D-363.bibtex that contains the list in bibtex format
You can import this file easily into all common literature databanks and citation aid programs


List of essential papers. We consider these as the minimum necessary citations

  1. Neese,F.
     Software update: the ORCA program system, version 5.0
     WIRES Comput. Molec. Sci., 2022 12(1)e1606
     doi.org/10.1002/wcms.1606

List of papers to cite with high priority. The work reported in these papers was absolutely
necessary for this run to complete.
Our perspective: the developers of density functionals and basis sets usually get cited in chemistry papers
Good! But without the algorithms to do something with them, the functionals or basis sets would not do anything.
Hence, in our opinion, the algorithm design and method developments papers are equally worthy of getting cited

  1. Neese,F.
     An improvement of the resolution of the identity approximation for the formation of the Coulomb matrix
     J. Comp. Chem., 2003 24(14)1740-1747
     doi.org/10.1002/jcc.10318
  2. Bykov,D.; Petrenko,T.; Izsak,R.; Kossmann,S.; Becker,U.; Valeev,E.; Neese,F.
     Efficient implementation of the analytic second derivatives of Hartree-Fock and hybrid DFT energies: a detailed analysis of different approximations
     Molec. Phys., 2015 113 1961-1977
     doi.org/10.1080/00268976.2015.1025114
  3. Garcia-Rates,M.; Neese,F.
     Effect of the Solute Cavity on the Solvation Energy and its Derivatives within the Framework of the Gaussian Charge Scheme
     J. Comput. Chem., 2020 41 922-939
     doi.org/10.1002/jcc.26139
  4. Neese,F.
     The SHARK Integral Generation and Digestion System
     J. Comp. Chem., 2022  1-16
     doi.org/10.1002/jcc.26942
  5. Lehtola,S.; Steigemann,C.; Oliveira,M.; Marques,M.
     Recent developments in Libxc - A comprehensive library of functionals for density functional theory
     Software X, 2018 7 
     doi.org/10.1016/j.softx.2017.11.002

List of suggested additional citations. These are papers that are important in the 'surrounding' of 
of this run, or papers that preceded the highly important papers. If you like your results we are grateful for a citation.

  1. Neese,F.
     The ORCA program system
     WIRES Comput. Molec. Sci., 2012 2(1)73-78
     doi.org/10.1002/wcms.81
  2. Neese,F.
     Software update: the ORCA program system, version 4.0
     WIRES Comput. Molec. Sci., 2018 8(1)1-6
     doi.org/10.1002/wcms.1327
  3. Neese,F.; Wennmohs,F.; Becker,U.; Riplinger,C.
     The ORCA quantum chemistry program package
     J. Chem. Phys., 2020 152 Art. No. L224108
     doi.org/10.1063/5.0004608

List of optional additional citations

  1. Neese,F.
     Approximate second-order SCF convergence for spin unrestricted wavefunctions
     Chem. Phys. Lett., 2000 325(1-3)93-98
     doi.org/10.1016/s0009-2614(00)00662-x

Timings for individual modules:

Sum of individual times          ...   207696.901 sec (=3461.615 min)
Startup calculation              ...       38.513 sec (=   0.642 min)   0.0 %
SCF iterations                   ...     5875.689 sec (=  97.928 min)   2.8 %
Property calculations            ...        0.216 sec (=   0.004 min)   0.0 %
SCF Gradient evaluation          ...     1255.943 sec (=  20.932 min)   0.6 %
Geometry relaxation              ...        0.254 sec (=   0.004 min)   0.0 %
Numerical frequency calculation  ...   200526.287 sec (=3342.105 min)  96.5 %
                             ****ORCA TERMINATED NORMALLY****
TOTAL RUN TIME: 2 days 9 hours 31 minutes 13 seconds 452 msec
