
                                 *****************
                                 * O   R   C   A *
                                 *****************

                                            #,                                       
                                            ###                                      
                                            ####                                     
                                            #####                                    
                                            ######                                   
                                           ########,                                 
                                     ,,################,,,,,                         
                               ,,#################################,,                 
                          ,,##########################################,,             
                       ,#########################################, ''#####,          
                    ,#############################################,,   '####,        
                  ,##################################################,,,,####,       
                ,###########''''           ''''###############################       
              ,#####''   ,,,,##########,,,,          '''####'''          '####       
            ,##' ,,,,###########################,,,                        '##       
           ' ,,###''''                  '''############,,,                           
         ,,##''                                '''############,,,,        ,,,,,,###''
      ,#''                                            '''#######################'''  
     '                                                          ''''####''''         
             ,#######,   #######,   ,#######,      ##                                
            ,#'     '#,  ##    ##  ,#'     '#,    #''#        ,####,   ,####,        
            ##       ##  ##   ,#'  ##            #'  '#       #'       #'  '#        
            ##       ##  #######   ##           ,######,      #####,   #    #        
            '#,     ,#'  ##    ##  '#,     ,#' ,#      #,     #,   #   #,  ,#        
             '#######'   ##     ##  '#######'  #'      '#     '####' # '####'        



                #########################################################
                #                        -***-                          #
                #          Department of theory and spectroscopy        #
                #                                                       #
                #                      Frank Neese                      #
                #                                                       #
                #     Directorship, Architecture, Infrastructure        #
                #                    SHARK, DRIVERS                     #
                #        Core code/Algorithms in most modules           #
                #                                                       #
                #        Max Planck Institute fuer Kohlenforschung      #
                #                Kaiser Wilhelm Platz 1                 #
                #                 D-45470 Muelheim/Ruhr                 #
                #                      Germany                          #
                #                                                       #
                #                  All rights reserved                  #
                #                        -***-                          #
                #########################################################


                         Program Version 6.0.0  -   RELEASE  -


 With contributions from (in alphabetic order):
   Daniel Aravena         : Magnetic Suceptibility
   Michael Atanasov       : Ab Initio Ligand Field Theory (pilot matlab implementation)
   Alexander A. Auer      : GIAO ZORA, VPT2 properties, NMR spectrum
   Ute Becker             : All parallelization in ORCA, NUMFREQ, NUMCALC
   Giovanni Bistoni       : ED, misc. LED, open-shell LED, HFLD
   Martin Brehm           : Molecular dynamics
   Dmytro Bykov           : pre 5.0 version of the SCF Hessian
   Marcos Casanova-Páez   : Triplet and SCS-CIS(D). UHF-(DLPNO)-IP/EA/STEOM-CCSD. UHF-CVS-IP/STEOM-CCSD
   Vijay G. Chilkuri      : MRCI spin determinant printing, contributions to CSF-ICE
   Pauline Colinet        : FMM embedding
   Dipayan Datta          : RHF DLPNO-CCSD density
   Achintya Kumar Dutta   : EOM-CC, STEOM-CC
   Nicolas Foglia         : Exact transition moments, OPA infrastructure, MCD improvements
   Dmitry Ganyushin       : Spin-Orbit,Spin-Spin,Magnetic field MRCI
   Miquel Garcia          : C-PCM and meta-GGA Hessian, CCSD/C-PCM, Gaussian charge scheme
   Tiago L. C. Gouveia    : GS-ROHF, GS-ROCIS
   Yang Guo               : DLPNO-NEVPT2, F12-NEVPT2, CIM, IAO-localization
   Andreas Hansen         : Spin unrestricted coupled pair/coupled cluster methods
   Ingolf Harden          : AUTO-CI MPn and infrastructure 
   Benjamin Helmich-Paris : MC-RPA, TRAH-(SCF,CASSCF), AVAS, COSX integrals, SCF dyn. polar.
   Lee Huntington         : MR-EOM, pCC
   Robert Izsak           : Overlap fitted RIJCOSX, COSX-SCS-MP3, EOM
   Riya Kayal             : Wick's Theorem for AUTO-CI, AUTO-CI UHF-CCSDT
   Emily Kempfer          : AUTO-CI, RHF CISDT and CCSDT
   Christian Kollmar      : KDIIS, OOCD, Brueckner-CCSD(T), CCSD density, CASPT2, CASPT2-K, improved NEVPT2
   Axel Koslowski         : Symmetry handling
   Simone Kossmann        : Meta GGA functionals, TD-DFT gradient, OOMP2, (MP2 Hessian; deprecated post 5.0)
   Lucas Lang             : DCDCAS
   Marvin Lechner         : AUTO-CI (C++ implementation), FIC-MRCC
   Spencer Leger          : CASSCF response
   Dagmar Lenk            : GEPOL surface, SMD, ORCA-2-JSON
   Dimitrios Liakos       : Extrapolation schemes; Compound Job, initial MDCI parallelization
   Dimitrios Manganas     : Further ROCIS development; embedding schemes. LFT, Crystal Embedding
   Dimitrios Pantazis     : SARC Basis sets
   Anastasios Papadopoulos: AUTO-CI, single reference methods and gradients
   Taras Petrenko         : pre 6.0 DFT Hessian and TD-DFT gradient, (ASA, deprecated), ECA, 1-Electron XAS/XES, NRVS
   Peter Pinski           : DLPNO-MP2, DLPNO-MP2 Gradient
   Christoph Reimann      : Effective Core Potentials
   Marius Retegan         : Local ZFS, SOC
   Christoph Riplinger    : Optimizer, TS searches, QM/MM, DLPNO-CCSD(T), (RO)-DLPNO pert. Triples
   Michael Roemelt        : Original ROCIS implementation
   Masaaki Saitow         : Open-shell DLPNO-CCSD energy and density
   Barbara Sandhoefer     : DKH picture change effects
   Kantharuban Sivalingam : CASSCF convergence/infrastructure, NEVPT2 and variants, FIC-MRCI
   Bernardo de Souza      : ESD, SOC TD-DFT
   Georgi Stoychev        : AutoAux, RI-MP2 NMR, DLPNO-MP2 response, X2C
   Van Anh Tran           : RI-MP2 g-tensors
   Willem Van den Heuvel  : Paramagnetic NMR
   Zikuan Wang            : NOTCH, Electric field optimization 
   Frank Wennmohs         : Technical directorship and infrastructure
   Hang Xu                : AUTO-CI-Response properties 


 We gratefully acknowledge several colleagues who have allowed us to
 interface, adapt or use parts of their codes:
   Stefan Grimme, W. Hujo, H. Kruse, P. Pracht,  : VdW corrections, initial TS optimization,
                  C. Bannwarth, S. Ehlert,         DFT functionals, gCP, sTDA/sTD-DF
                  L. Wittmann, M. Mueller
   Ed Valeev, F. Pavosevic, A. Kumar             : LibInt (2-el integral package), F12 methods
   Garnet Chan, S. Sharma, J. Yang, R. Olivares  : DMRG
   Ulf Ekstrom                                   : XCFun DFT Library
   Mihaly Kallay                                 : mrcc  (arbitrary order and MRCC methods)
   Frank Weinhold                                : gennbo (NPA and NBO analysis)
   Simon Mueller                                 : openCOSMO-RS
   Christopher J. Cramer and Donald G. Truhlar   : smd solvation model
   Lars Goerigk                                  : TD-DFT with DH, B97 family of functionals
   V. Asgeirsson, H. Jonsson                     : NEB implementation
   FAccTs GmbH                                   : IRC, NEB, NEB-TS, DLPNO-Multilevel, CI-OPT
                                                   MM, QMMM, 2- and 3-layer-ONIOM, Crystal-QMMM,
                                                   LR-CPCM, SF, NACMEs, symmetry and pop. for TD-DFT,
                                                   nearIR, NL-DFT gradient (VV10), updates on ESD,
                                                   ML-optimized integration grids, MBIS, APM,
                                                   GOAT, DOCKER, SOLVATOR, interface openCOSMO-RS
   S Lehtola, MJT Oliveira, MAL Marques          : LibXC Library
   Liviu Ungur et al                             : ANISO software


 Your calculation uses the libint2 library for the computation of 2-el integrals
 For citations please refer to: http://libint.valeyev.net

 Your ORCA version has been built with support for libXC version: 6.2.2
 For citations please refer to: https://libxc.gitlab.io

 This ORCA versions uses:
   CBLAS   interface :  Fast vector & matrix operations
   LAPACKE interface :  Fast linear algebra routines
   SCALAPACK package :  Parallel linear algebra routines
   Shared memory     :  Shared parallel matrices
   BLAS/LAPACK       :  OpenBLAS 0.3.27  USE64BITINT DYNAMIC_ARCH NO_AFFINITY Cooperlake SINGLE_THREADED
        Core in use  :  Cooperlake
   Copyright (c) 2011-2014, The OpenBLAS Project


NOTE: MaxCore=2000 MB was set to SCF,MP2,MDCI,CIPSI,MRCI and CIS
      => If you want to overwrite this, your respective input block should be placed after the MaxCore statement
Your calculation utilizes the DFT-NL dispersion correction.
Cite in your paper:
Vydrov, O. A.; Van Voorhis, T. J. Chem. Phys. 2010, 133, 244103
Hujo, W.; Grimme, S. J. Chem. Theory Comput. 2011, 7, 3866 
   

Warning: RI is on but no J-basis has been assigned. Assigning Def2/J (nothing to worry about!)
================================================================================

----- Orbital basis set information -----
Your calculation utilizes the basis: 6-311G(d)
   H, Li - Ne  : R. Krishnan, J. S. Binkley, R. Seeger and J. A. Pople, J. Chem. Phys. 72, 650 (1980).
   Na - Ar     : A. D. McLean and G. S. Chandler J. Chem. Phys. 72, 5639, (1980).
   K  - Ca     : J.-P. Blaudeau, M. P. McGrath, L. A. Curtiss and L. Radom, J. Chem. Phys. 107, 5016 (1997).
   Ga - Kr     : L. A. Curtiss, M. P. McGrath, J.-P. Blandeau, N. E. Davis, R. C. Binning and L. Radom, J. Chem. Phys. 103, 6104 (1995).
   Pol./Diff.
   H, Li - Cl  : T. Clark, J. Chandrasekhar and P. v. R. Schleyer, J. Comp. Chem. 4, 294 (1983).
   H - Ne      : M. J. Frisch, J. A. Pople and J. S. Binkley, J. Chem. Phys. 80, 3265 (1984).

----- AuxJ basis set information -----
Your calculation utilizes the auxiliary basis: def2/J
   F. Weigend, Phys. Chem. Chem. Phys. 8, 1057 (2006).

================================================================================
                                        WARNINGS
                       Please study these warnings very carefully!
================================================================================

Using LibXC functional ID 531 : wB97M-V exchange-correlation functional
[ 1]  N. Mardirossian and M. Head-Gordon.,  J. Chem. Phys. 144, 214110 (2016)
Using LibXC functional ID 531 : wB97M-V exchange-correlation functional
[ 1]  N. Mardirossian and M. Head-Gordon.,  J. Chem. Phys. 144, 214110 (2016)

WARNING: B97M-V or wB97M-V functional requested.
  ===> : libXC variant has now been activated.
         Any manually given DFX/HFX/RangeSep scaling parameters are IGNORED!

Your calculation utilizes LibXC
 by S Lehtola, C Steigemann, MJT Oliveira & MAL Marques
Please cite in your paper:
 S Lehtola, C Steigemann, MJT Oliveira & MAL Marques, SoftwareX, 7, (2018), 1.
   


WARNING: your system is open-shell and RHF/RKS was chosen
  ===> : WILL SWITCH to UHF/UKS


WARNING: Geometry Optimization
  ===> : Switching off AutoStart
         For restart on a previous wavefunction, please use MOREAD

WARNING: Analytic gradients for DFT-NL dispersion can only be done using the self-consistent method,
  ===>   Switching to SCNL

WARNING: Self-consistent DFT-NL dispersion not compatible with AutoTRAH.
  ===>   Switching AutoTRAH off


================================================================================
                                       INPUT FILE
================================================================================
NAME = CURCUMIN-OPT-FREQ-Reag-WB97M-V-6-311G-D-363.inp
|  1> ! Opt NumFreq wb97M-V 6-311G(d) CPCM RIJDX
|  2> %maxcore 2000
|  3> %cpcm
|  4> epsilon 7 # Dielectric constant
|  5> refrac 1.85341 # Refractive index
|  6> end
|  7> %FREQ TEMP 363.15 END
|  8> 
|  9> * xyz 0 2
| 10> C     -2.638131    0.357126   -0.513960
| 11> H     -2.221261    0.709247   -1.455490
| 12> C     -1.932796    0.537316    0.611276
| 13> H     -2.298013    0.214541    1.582130
| 14> C     -0.611257    1.185604    0.659491
| 15> O     -0.031548    1.329397    1.722046
| 16> C     -3.952460   -0.280228   -0.633418
| 17> C     -4.540297   -0.384908   -1.895040
| 18> C     -4.647956   -0.800705    0.468579
| 19> C     -5.784778   -0.981341   -2.059911
| 20> H     -4.020401    0.008137   -2.763246
| 21> C     -5.886646   -1.390205    0.317188
| 22> H     -4.241548   -0.747125    1.473173
| 23> C     -6.468970   -1.484960   -0.959339
| 24> H     -6.234826   -1.051936   -3.046092
| 25> O     -7.691908   -2.065271   -1.038819
| 26> H     -7.990605   -2.082326   -1.955889
| 27> O     -6.563750   -1.847699    1.420306
| 28> C     -6.565253   -3.275270    1.535821
| 29> H     -5.541081   -3.652505    1.611335
| 30> H     -7.108264   -3.509171    2.449658
| 31> H     -7.067456   -3.736605    0.683188
| 32> C      2.568371    0.171390   -0.273176
| 33> H      1.622850   -0.352458   -0.399448
| 34> C      2.570141    1.511260   -0.250121
| 35> H      3.481647    2.084534   -0.106457
| 36> C      1.358790    2.338294   -0.371952
| 37> O      1.429204    3.551044   -0.259110
| 38> C      3.730038   -0.711481   -0.134817
| 39> C      3.531931   -2.093049   -0.145702
| 40> C      5.040981   -0.229818    0.000369
| 41> C      4.600248   -2.972776   -0.017878
| 42> H      2.526873   -2.489680   -0.251285
| 43> C      6.109002   -1.094417    0.129963
| 44> H      5.256671    0.833360    0.015185
| 45> C      5.894335   -2.484055    0.121346
| 46> H      4.432164   -4.045952   -0.020892
| 47> O      6.984560   -3.278883    0.260075
| 48> H      6.722887   -4.206667    0.223936
| 49> O      7.375825   -0.593956    0.302635
| 50> C      8.191188   -0.698259   -0.870113
| 51> H      7.742556   -0.139931   -1.697152
| 52> H      9.154643   -0.260713   -0.615078
| 53> H      8.328378   -1.741959   -1.160174
| 54> C      0.014875    1.682771   -0.637809
| 55> H      0.093450    0.861888   -1.355125
| 56> H     -0.638769    2.438462   -1.079625
| 57> O     -1.540500    4.108454    0.810382
| 58> O     -0.065921    5.500716    1.622741
| 59> N     -0.590265    4.453123    1.439291
| 60> *
| 61> 
| 62>                          ****END OF INPUT****
================================================================================

                       *****************************
                       * Geometry Optimization Run *
                       *****************************

Geometry optimization settings:
Update method            Update   .... BFGS
Choice of coordinates    CoordSys .... (2022) Redundant Internals
Initial Hessian          InHess   .... Almloef's Model
Max. no of cycles        MaxIter  .... 150

Convergence Tolerances:
Energy Change            TolE     ....  5.0000e-06 Eh
Max. Gradient            TolMAXG  ....  3.0000e-04 Eh/bohr
RMS Gradient             TolRMSG  ....  1.0000e-04 Eh/bohr
Max. Displacement        TolMAXD  ....  4.0000e-03 bohr
RMS Displacement         TolRMSD  ....  2.0000e-03 bohr
Strict Convergence                .... False

------------------------------------------------------------------------------
                        ORCA OPTIMIZATION COORDINATE SETUP
------------------------------------------------------------------------------

The optimization will be done in redundant internal coordinates (2022)
Making redundant internal coordinates   ...  (2022 redundants) done
Evaluating the initial hessian          ...  (Almloef) done
Evaluating the coordinates              ...  done
Calculating the B-matrix                .... done
Calculating the G-matrix                .... done
Diagonalizing the G-matrix              .... done
Small eigenvalue found = 8.985e-04
Small eigenvalue found = 1.958e-03
Small eigenvalue found = 6.157e-03
Small eigenvalue found = 7.378e-03
Small eigenvalue found = 9.786e-03
Small eigenvalue found = 1.581e-02
Small eigenvalue found = 2.047e-02
Small eigenvalue found = 2.487e-02
The first mode is                       ....  243
The number of degrees of freedom        ....  144

    -----------------------------------------------------------------
                    Redundant Internal Coordinates


    -----------------------------------------------------------------
         Definition                    Initial Value    Approx d2E/dq
    -----------------------------------------------------------------
      1. B(H   1,C   0)                  1.0882         0.362447   
      2. B(C   2,C   0)                  1.3402         0.750239   
      3. B(H   3,C   2)                  1.0863         0.364981   
      4. B(C   4,C   2)                  1.4728         0.460973   
      5. B(O   5,C   4)                  1.2189         1.049120   
      6. B(C   6,C   0)                  1.4656         0.473305   
      7. B(C   7,C   6)                  1.3958         0.611671   
      8. B(C   8,C   6)                  1.4032         0.595192   
      9. B(C   9,C   7)                  1.3898         0.625170   
     10. B(H  10,C   7)                  1.0856         0.365949   
     11. B(C  11,C   8)                  1.3801         0.647846   
     12. B(H  12,C   8)                  1.0850         0.366762   
     13. B(C  13,C  11)                  1.4063         0.588542   
     14. B(C  13,C   9)                  1.3903         0.624046   
     15. B(H  14,C   9)                  1.0863         0.365008   
     16. B(O  15,C  13)                  1.3560         0.634115   
     17. B(H  16,O  15)                  0.9646         0.511170   
     18. B(O  17,C  11)                  1.3728         0.596049   
     19. B(C  18,O  17)                  1.4322         0.479168   
     20. B(H  19,C  18)                  1.0940         0.354787   
     21. B(H  20,C  18)                  1.0884         0.362190   
     22. B(H  21,C  18)                  1.0918         0.357731   
     23. B(H  23,C  22)                  1.0883         0.362372   
     24. B(C  24,C  22)                  1.3401         0.750584   
     25. B(H  25,C  24)                  1.0863         0.364980   
     26. B(C  26,C  24)                  1.4718         0.462626   
     27. B(O  27,C  26)                  1.2200         1.044875   
     28. B(C  28,C  22)                  1.4656         0.473232   
     29. B(C  29,C  28)                  1.3957         0.611756   
     30. B(C  30,C  28)                  1.4032         0.595319   
     31. B(C  31,C  29)                  1.3898         0.625243   
     32. B(H  32,C  29)                  1.0856         0.365920   
     33. B(C  33,C  30)                  1.3802         0.647663   
     34. B(H  34,C  30)                  1.0849         0.366860   
     35. B(C  35,C  33)                  1.4061         0.588812   
     36. B(C  35,C  31)                  1.3903         0.624142   
     37. B(H  36,C  31)                  1.0863         0.365077   
     38. B(O  37,C  35)                  1.3563         0.633314   
     39. B(H  38,O  37)                  0.9647         0.511138   
     40. B(O  39,C  33)                  1.3730         0.595669   
     41. B(C  40,O  39)                  1.4321         0.479335   
     42. B(H  41,C  40)                  1.0941         0.354753   
     43. B(H  42,C  40)                  1.0885         0.362149   
     44. B(H  43,C  40)                  1.0919         0.357583   
     45. B(C  44,C  26)                  1.5187         0.389386   
     46. B(C  44,C   4)                  1.5239         0.382072   
     47. B(H  45,C  44)                  1.0930         0.356203   
     48. B(H  46,C  44)                  1.0925         0.356829   
     49. B(O  47,O   5)                  3.2911         0.000464   
     50. B(O  47,C  44)                  3.2250         0.000661   
     51. B(O  47,O  27)                  3.2053         0.000637   
     52. B(O  47,C   4)                  3.0707         0.001165   
     53. B(O  47,H  46)                  2.6785         0.000943   
     54. B(O  48,O  27)                  3.0948         0.000955   
     55. B(N  49,C  26)                  3.3988         0.000349   
     56. B(N  49,C   4)                  3.3593         0.000404   
     57. B(N  49,H  46)                  3.2259         0.000126   
     58. B(N  49,O   5)                  3.1859         0.000684   
     59. B(N  49,O  27)                  2.7886         0.002941   
     60. B(N  49,O  48)                  1.1858         1.061339   
     61. B(N  49,O  47)                  1.1905         1.043075   
     62. A(H   1,C   0,C   2)          118.7709         0.364953   
     63. A(H   1,C   0,C   6)          114.4393         0.337630   
     64. A(C   2,C   0,C   6)          126.7897         0.427927   
     65. A(C   0,C   2,H   3)          122.2402         0.365388   
     66. A(H   3,C   2,C   4)          113.7783         0.336539   
     67. A(C   0,C   2,C   4)          123.9810         0.425908   
     68. A(C   2,C   4,C  44)          118.9750         0.378189   
     69. A(O   5,C   4,O  47)           89.3582         0.181349   
     70. A(C   2,C   4,O  47)           98.5721         0.166301   
     71. A(C  44,C   4,O  47)           81.6992         0.163085   
     72. A(C   2,C   4,N  49)          116.1904         0.149808   
     73. A(O   5,C   4,N  49)           71.3331         0.161645   
     74. A(O  47,C   4,N  49)           20.7165         0.104578   
     75. A(O   5,C   4,C  44)          120.5446         0.434486   
     76. A(C  44,C   4,N  49)           82.9759         0.147278   
     77. A(C   2,C   4,O   5)          120.4789         0.449482   
     78. A(C   4,O   5,O  47)           68.9048         0.163364   
     79. A(C   4,O   5,N  49)           87.4147         0.170163   
     80. A(O  47,O   5,N  49)           21.1018         0.103015   
     81. A(C   0,C   6,C   8)          122.8051         0.410625   
     82. A(C   0,C   6,C   7)          118.9454         0.412619   
     83. A(C   7,C   6,C   8)          118.2483         0.429846   
     84. A(C   9,C   7,H  10)          119.2952         0.354371   
     85. A(C   6,C   7,C   9)          121.0988         0.433658   
     86. A(C   6,C   7,H  10)          119.6057         0.353064   
     87. A(C   6,C   8,C  11)          121.1401         0.434308   
     88. A(C  11,C   8,H  12)          117.3118         0.356654   
     89. A(C   6,C   8,H  12)          121.5447         0.351568   
     90. A(C   7,C   9,H  14)          120.4336         0.354217   
     91. A(C   7,C   9,C  13)          120.1447         0.435225   
     92. A(C  13,C   9,H  14)          119.4202         0.354109   
     93. A(C  13,C  11,O  17)          120.1796         0.424215   
     94. A(C   8,C  11,O  17)          119.7932         0.431578   
     95. A(C   8,C  11,C  13)          120.0002         0.433431   
     96. A(C  11,C  13,O  15)          117.0976         0.428945   
     97. A(C   9,C  13,O  15)          123.5354         0.433481   
     98. A(C   9,C  13,C  11)          119.3652         0.430526   
     99. A(C  13,O  15,H  16)          110.0328         0.370464   
    100. A(C  11,O  17,C  18)          113.4214         0.406340   
    101. A(O  17,C  18,H  20)          106.4058         0.336233   
    102. A(H  19,C  18,H  20)          109.5715         0.290425   
    103. A(O  17,C  18,H  21)          111.0183         0.335541   
    104. A(O  17,C  18,H  19)          110.3814         0.335080   
    105. A(H  20,C  18,H  21)          109.5964         0.290802   
    106. A(H  19,C  18,H  21)          109.8042         0.289861   
    107. A(C  24,C  22,C  28)          126.8428         0.427951   
    108. A(H  23,C  22,C  28)          114.1812         0.337610   
    109. A(H  23,C  22,C  24)          118.9746         0.364969   
    110. A(H  25,C  24,C  26)          113.8910         0.336740   
    111. A(C  22,C  24,C  26)          124.0091         0.426216   
    112. A(C  22,C  24,H  25)          122.0743         0.365417   
    113. A(C  24,C  26,N  49)          141.0325         0.147893   
    114. A(C  44,C  26,N  49)           81.6285         0.145640   
    115. A(O  27,C  26,N  49)           50.6016         0.159236   
    116. A(C  24,C  26,O  27)          120.2260         0.449443   
    117. A(O  27,C  26,C  44)          119.7569         0.435654   
    118. A(C  24,C  26,C  44)          120.0171         0.379669   
    119. A(C  26,O  27,O  47)           98.6418         0.168792   
    120. A(O  47,O  27,O  48)           40.5315         0.105235   
    121. A(O  47,O  27,N  49)           21.4983         0.109942   
    122. A(O  48,O  27,N  49)           22.4861         0.111956   
    123. A(C  26,O  27,O  48)          130.8878         0.176465   
    124. A(C  26,O  27,N  49)          109.6388         0.201823   
    125. A(C  29,C  28,C  30)          118.2387         0.429873   
    126. A(C  22,C  28,C  30)          122.8766         0.410629   
    127. A(C  22,C  28,C  29)          118.8835         0.412618   
    128. A(C  31,C  29,H  32)          119.2956         0.354374   
    129. A(C  28,C  29,H  32)          119.5903         0.353067   
    130. A(C  28,C  29,C  31)          121.1136         0.433678   
    131. A(C  33,C  30,H  34)          117.3059         0.356654   
    132. A(C  28,C  30,H  34)          121.5634         0.351597   
    133. A(C  28,C  30,C  33)          121.1290         0.434303   
    134. A(C  29,C  31,H  36)          120.4085         0.354235   
    135. A(C  29,C  31,C  35)          120.1452         0.435246   
    136. A(C  35,C  31,H  36)          119.4456         0.354129   
    137. A(C  35,C  33,O  39)          120.1226         0.424201   
    138. A(C  30,C  33,O  39)          119.8311         0.431507   
    139. A(C  30,C  33,C  35)          120.0239         0.433445   
    140. A(C  33,C  35,O  37)          117.1165         0.428883   
    141. A(C  31,C  35,O  37)          123.5344         0.433395   
    142. A(C  31,C  35,C  33)          119.3480         0.430573   
    143. A(C  35,O  37,H  38)          109.9833         0.370380   
    144. A(C  33,O  39,C  40)          113.3142         0.406319   
    145. A(H  41,C  40,H  42)          109.5691         0.290416   
    146. A(O  39,C  40,H  42)          106.4274         0.336246   
    147. A(O  39,C  40,H  41)          110.3886         0.335094   
    148. A(H  42,C  40,H  43)          109.5889         0.290778   
    149. A(H  41,C  40,H  43)          109.7856         0.289838   
    150. A(O  39,C  40,H  43)          111.0190         0.335537   
    151. A(H  46,C  44,O  47)           51.1534         0.144498   
    152. A(H  45,C  44,O  47)          153.4198         0.144476   
    153. A(C  26,C  44,O  47)           91.3476         0.154448   
    154. A(C   4,C  44,O  47)           70.4238         0.154168   
    155. A(H  45,C  44,H  46)          107.2846         0.289928   
    156. A(C  26,C  44,H  46)          107.5582         0.326047   
    157. A(C   4,C  44,H  46)          108.9125         0.325032   
    158. A(C  26,C  44,H  45)          112.0523         0.325953   
    159. A(C   4,C  44,H  45)          110.0735         0.324938   
    160. A(C   4,C  44,C  26)          110.8169         0.367351   
    161. A(O   5,O  47,C  44)           42.9563         0.103027   
    162. A(O   5,O  47,O  27)           61.3654         0.102791   
    163. A(C   4,O  47,O   5)           21.7370         0.104947   
    164. A(O   5,O  47,N  49)           74.4648         0.162644   
    165. A(O  27,O  47,C  44)           43.3237         0.104065   
    166. A(C   4,O  47,C  44)           27.8770         0.106420   
    167. A(C  44,O  47,N  49)           94.0157         0.169446   
    168. A(C   4,O  47,O  27)           62.4642         0.106126   
    169. A(O  27,O  47,N  49)           59.1421         0.168091   
    170. A(C   4,O  47,N  49)           93.4394         0.180455   
    171. A(O  27,O  48,N  49)           64.0865         0.176038   
    172. A(C   4,N  49,C  26)           43.5031         0.100859   
    173. A(O   5,N  49,C  26)           48.4434         0.102249   
    174. A(C  26,N  49,O  27)           19.7596         0.107434   
    175. A(C  26,N  49,O  48)          112.2461         0.158893   
    176. A(C  26,N  49,O  47)           89.7740         0.158619   
    177. A(C   4,N  49,O   5)           21.2522         0.102691   
    178. A(C   4,N  49,O  27)           63.1607         0.108049   
    179. A(C   4,N  49,O  48)          153.8964         0.161225   
    180. A(C   4,N  49,O  47)           65.8441         0.160942   
    181. A(O   5,N  49,O  27)           67.0381         0.110283   
    182. A(O   5,N  49,O  48)          140.8013         0.169693   
    183. A(O   5,N  49,O  47)           84.4333         0.169376   
    184. A(O  27,N  49,O  48)           93.4274         0.201273   
    185. A(O  27,N  49,O  47)           99.3596         0.200833   
    186. A(O  47,N  49,O  48)          133.6672         0.513015   
    187. D(H   3,C   2,C   0,H   1)    179.5559         0.040143   
    188. D(C   4,C   2,C   0,C   6)    179.8532         0.040143   
    189. D(C   4,C   2,C   0,H   1)     -0.1780         0.040143   
    190. D(H   3,C   2,C   0,C   6)     -0.4129         0.040143   
    191. D(O  47,C   4,C   2,C   0)     84.8685         0.016786   
    192. D(O   5,C   4,C   2,H   3)     -0.5514         0.016786   
    193. D(C  44,C   4,C   2,H   3)    179.8997         0.016786   
    194. D(C  44,C   4,C   2,C   0)     -0.3463         0.016786   
    195. D(O   5,C   4,C   2,C   0)    179.2026         0.016786   
    196. D(O  47,C   4,C   2,H   3)    -94.8855         0.016786   
    197. D(O  47,O   5,C   4,C  44)     79.9649         0.119187   
    198. D(O  47,O   5,C   4,N  49)     10.4051         0.119187   
    199. D(O  47,O   5,C   4,C   2)    -99.5769         0.119187   
    200. D(N  49,O   5,C   4,O  47)    -10.4051         0.119187   
    201. D(N  49,O   5,C   4,C   2)   -109.9820         0.119187   
    202. D(N  49,O   5,C   4,C  44)     69.5598         0.119187   
    203. D(C   8,C   6,C   0,H   1)    179.7935         0.015253   
    204. D(C   8,C   6,C   0,C   2)     -0.2365         0.015253   
    205. D(C   7,C   6,C   0,C   2)   -179.8378         0.015253   
    206. D(C   7,C   6,C   0,H   1)      0.1922         0.015253   
    207. D(H  10,C   7,C   6,C   0)     -0.2293         0.025848   
    208. D(C   9,C   7,C   6,C   0)    179.9710         0.025848   
    209. D(H  10,C   7,C   6,C   8)   -179.8490         0.025848   
    210. D(C   9,C   7,C   6,C   8)      0.3514         0.025848   
    211. D(H  12,C   8,C   6,C   7)   -179.9211         0.024401   
    212. D(C  11,C   8,C   6,C   7)     -0.6140         0.024401   
    213. D(H  12,C   8,C   6,C   0)      0.4749         0.024401   
    214. D(C  11,C   8,C   6,C   0)    179.7820         0.024401   
    215. D(C  13,C   9,C   7,H  10)   -179.6965         0.027073   
    216. D(H  14,C   9,C   7,C   6)    179.6466         0.027073   
    217. D(C  13,C   9,C   7,C   6)      0.1037         0.027073   
    218. D(H  14,C   9,C   7,H  10)     -0.1536         0.027073   
    219. D(O  17,C  11,C   8,H  12)      1.6418         0.029209   
    220. D(O  17,C  11,C   8,C   6)   -177.6936         0.029209   
    221. D(C  13,C  11,C   8,H  12)    179.7544         0.029209   
    222. D(C  13,C  11,C   8,C   6)      0.4190         0.029209   
    223. D(O  15,C  13,C   9,C   7)    179.1917         0.026969   
    224. D(C   9,C  13,C  11,O  17)    178.1542         0.023831   
    225. D(O  15,C  13,C  11,C   8)   -179.4822         0.023831   
    226. D(C   9,C  13,C  11,C   8)      0.0490         0.023831   
    227. D(O  15,C  13,C  11,O  17)     -1.3769         0.023831   
    228. D(C  11,C  13,C   9,H  14)   -179.8551         0.026969   
    229. D(O  15,C  13,C   9,H  14)     -0.3558         0.026969   
    230. D(C  11,C  13,C   9,C   7)     -0.3075         0.026969   
    231. D(H  16,O  15,C  13,C   9)      0.8794         0.029601   
    232. D(H  16,O  15,C  13,C  11)   -179.6108         0.029601   
    233. D(C  18,O  17,C  11,C   8)   -106.0626         0.025925   
    234. D(C  18,O  17,C  11,C  13)     75.8282         0.025925   
    235. D(H  21,C  18,O  17,C  11)    -61.9792         0.018111   
    236. D(H  20,C  18,O  17,C  11)    178.8330         0.018111   
    237. D(H  19,C  18,O  17,C  11)     60.0228         0.018111   
    238. D(C  26,C  24,C  22,C  28)   -178.8809         0.040184   
    239. D(C  26,C  24,C  22,H  23)      0.6714         0.040184   
    240. D(H  25,C  24,C  22,C  28)     -0.8352         0.040184   
    241. D(H  25,C  24,C  22,H  23)    178.7171         0.040184   
    242. D(N  49,C  26,C  24,C  22)    112.0453         0.015778   
    243. D(C  44,C  26,C  24,H  25)    177.3103         0.015778   
    244. D(C  44,C  26,C  24,C  22)     -4.5009         0.015778   
    245. D(O  27,C  26,C  24,C  22)    175.4451         0.015778   
    246. D(O  27,C  26,C  24,H  25)     -2.7437         0.015778   
    247. D(O  48,O  27,C  26,C  24)   -124.6885         0.118067   
    248. D(N  49,O  27,C  26,C  24)   -133.3078         0.118067   
    249. D(N  49,O  27,C  26,C  44)     46.6384         0.118067   
    250. D(O  47,O  27,C  26,C  24)   -152.3982         0.118067   
    251. D(O  48,O  27,C  26,N  49)      8.6193         0.118067   
    252. D(O  48,O  27,C  26,C  44)     55.2577         0.118067   
    253. D(C  30,C  28,C  22,C  24)     -2.2236         0.015248   
    254. D(C  30,C  28,C  22,H  23)    178.2057         0.015248   
    255. D(C  29,C  28,C  22,C  24)    178.1963         0.015248   
    256. D(C  29,C  28,C  22,H  23)     -1.3744         0.015248   
    257. D(H  32,C  29,C  28,C  30)   -179.8709         0.025856   
    258. D(C  31,C  29,C  28,C  30)      0.4013         0.025856   
    259. D(C  31,C  29,C  28,C  22)   -179.9990         0.025856   
    260. D(H  32,C  29,C  28,C  22)     -0.2711         0.025856   
    261. D(H  34,C  30,C  28,C  29)    179.9845         0.024412   
    262. D(H  34,C  30,C  28,C  22)      0.4019         0.024412   
    263. D(C  33,C  30,C  28,C  29)     -0.4963         0.024412   
    264. D(C  33,C  30,C  28,C  22)    179.9210         0.024412   
    265. D(H  36,C  31,C  29,H  32)     -0.1567         0.027079   
    266. D(H  36,C  31,C  29,C  28)    179.5720         0.027079   
    267. D(C  35,C  31,C  29,H  32)   -179.8572         0.027079   
    268. D(C  35,C  31,C  29,C  28)     -0.1286         0.027079   
    269. D(O  39,C  33,C  30,H  34)      1.5752         0.029192   
    270. D(O  39,C  33,C  30,C  28)   -177.9637         0.029192   
    271. D(C  35,C  33,C  30,H  34)    179.8556         0.029192   
    272. D(C  35,C  33,C  30,C  28)      0.3167         0.029192   
    273. D(C  31,C  35,C  33,O  39)    178.2438         0.023854   
    274. D(O  37,C  35,C  31,H  36)     -0.1727         0.026978   
    275. D(C  33,C  35,C  31,H  36)   -179.7654         0.026978   
    276. D(C  33,C  35,C  31,C  29)     -0.0620         0.026978   
    277. D(O  37,C  35,C  31,C  29)    179.5307         0.026978   
    278. D(C  31,C  35,C  33,C  30)     -0.0316         0.023854   
    279. D(O  37,C  35,C  33,O  39)     -1.3748         0.023854   
    280. D(O  37,C  35,C  33,C  30)   -179.6501         0.023854   
    281. D(H  38,O  37,C  35,C  33)   -178.9727         0.029520   
    282. D(H  38,O  37,C  35,C  31)      1.4263         0.029520   
    283. D(C  40,O  39,C  33,C  30)   -105.4636         0.025890   
    284. D(C  40,O  39,C  33,C  35)     76.2577         0.025890   
    285. D(H  43,C  40,O  39,C  33)    -61.5908         0.018124   
    286. D(H  42,C  40,O  39,C  33)    179.2169         0.018124   
    287. D(H  41,C  40,O  39,C  33)     60.3930         0.018124   
    288. D(H  46,C  44,C  26,C  24)   -157.6800         0.012789   
    289. D(H  45,C  44,C  26,N  49)    174.6475         0.012789   
    290. D(H  45,C  44,C  26,O  27)    140.0459         0.012789   
    291. D(H  45,C  44,C  26,C  24)    -40.0078         0.012789   
    292. D(C   4,C  44,C  26,N  49)    -61.9720         0.012789   
    293. D(C   4,C  44,C  26,O  27)    -96.5737         0.012789   
    294. D(C   4,C  44,C  26,C  24)     83.3726         0.012789   
    295. D(H  45,C  44,C   4,N  49)   -172.5823         0.013002   
    296. D(H  45,C  44,C   4,O  47)   -151.7164         0.013002   
    297. D(H  45,C  44,C   4,O   5)    123.9789         0.013002   
    298. D(H  45,C  44,C   4,C   2)    -56.4725         0.013002   
    299. D(C  26,C  44,C   4,N  49)     62.9051         0.013002   
    300. D(C  26,C  44,C   4,O  47)     83.7711         0.013002   
    301. D(C  26,C  44,C   4,O   5)     -0.5337         0.013002   
    302. D(C  26,C  44,C   4,C   2)    179.0149         0.013002   
    303. D(N  49,O  47,O   5,C   4)   -149.9248         0.001500   
    304. D(C  44,O  47,C   4,O   5)    121.0146         0.001500   
    305. D(C  44,O  47,C   4,C   2)   -118.2354         0.001500   
    306. D(O  27,O  47,C   4,N  49)     52.3517         0.001500   
    307. D(O  27,O  47,C   4,C  44)    -39.7356         0.001500   
    308. D(O  27,O  47,C   4,O   5)     81.2789         0.001500   
    309. D(O  27,O  47,C   4,C   2)   -157.9710         0.001500   
    310. D(N  49,O  47,C   4,C  44)    -92.0873         0.001500   
    311. D(N  49,O  47,C   4,O   5)     28.9273         0.001500   
    312. D(C   4,O  47,O   5,N  49)    149.9248         0.001500   
    313. D(N  49,O  47,C   4,C   2)    149.6773         0.001500   
    314. D(O  27,O  47,C  44,C  26)     12.6460         0.001500   
    315. D(O  27,O  47,C  44,C   4)    124.2953         0.001500   
    316. D(C   4,O  47,C  44,H  46)    136.7273         0.001500   
    317. D(C   4,O  47,C  44,H  45)     95.9331         0.001500   
    318. D(C   4,O  47,C  44,C  26)   -111.6493         0.001500   
    319. D(N  49,O  47,C  44,H  45)   -174.3016         0.001500   
    320. D(N  49,O  47,C  44,C  26)    -21.8840         0.001500   
    321. D(N  49,O  47,C  44,C   4)     89.7653         0.001500   
    322. D(C  44,O  47,O  27,O  48)   -163.2498         0.001500   
    323. D(C  44,O  47,O  27,N  49)   -138.8001         0.001500   
    324. D(C  44,O  47,O  27,C  26)    -15.9965         0.001500   
    325. D(C   4,O  47,O  27,O  48)   -137.4243         0.001500   
    326. D(C   4,O  47,O  27,N  49)   -112.9745         0.001500   
    327. D(C   4,O  47,O  27,C  26)      9.8290         0.001500   
    328. D(N  49,O  47,C  44,H  46)   -133.5074         0.001500   
    329. D(N  49,O  47,O  27,O  48)    -24.4498         0.001500   
    330. D(N  49,O  47,O  27,C  26)    122.8035         0.001500   
    331. D(C  44,O  47,O   5,N  49)    113.9052         0.001500   
    332. D(C  44,O  47,O   5,C   4)    -36.0196         0.001500   
    333. D(O  27,O  47,O   5,N  49)     62.9502         0.001500   
    334. D(O  27,O  47,O   5,C   4)    -86.9746         0.001500   
    335. D(N  49,O  48,O  27,O  47)     23.3656         0.001500   
    336. D(N  49,O  48,O  27,C  26)    -21.6577         0.001500   
    337. D(C  26,N  49,O  48,O  27)      6.2119         0.156389   
    338. D(C   4,N  49,O  48,O  27)     25.0784         0.156389   
    339. D(O  47,N  49,O  48,O  27)   -106.4033         0.156389   
    340. D(C   4,N  49,O  47,O  27)    -54.8711         0.184769   
    341. D(O   5,N  49,O  47,C  44)    -38.6468         0.184769   
    342. D(O   5,N  49,O  47,O  27)    -65.5864         0.184769   
    343. D(O   5,N  49,O  47,C   4)    -10.7153         0.184769   
    344. D(O  27,N  49,O  47,O   5)     65.5864         0.184769   
    345. D(O  27,N  49,O  47,C  44)     26.9396         0.184769   
    346. D(O  48,N  49,O  47,O   5)    169.5374         0.184769   
    347. D(O  48,N  49,O  47,C  44)    130.8906         0.184769   
    348. D(O  48,N  49,O  47,O  27)    103.9510         0.184769   
    349. D(C   4,N  49,O  27,O  48)   -167.9356         0.001501   
    350. D(C   4,N  49,O  27,C  26)     -5.1675         0.001501   
    351. D(O   5,N  49,O  27,O  47)     79.8278         0.001501   
    352. D(O   5,N  49,O  27,C  26)     17.9049         0.001501   
    353. D(O  48,N  49,O  27,O  47)   -135.3090         0.001501   
    354. D(O  48,N  49,O  27,C  26)    162.7681         0.001501   
    355. D(O  47,N  49,O  27,O  48)    135.3090         0.001501   
    356. D(O  47,N  49,O  27,C  26)    -61.9229         0.001501   
    357. D(O   5,N  49,C  26,C  24)    -66.6019         0.001500   
    358. D(O  27,N  49,C  26,C  44)   -140.3598         0.001500   
    359. D(O  27,N  49,C  26,C  24)     91.1701         0.001500   
    360. D(O  48,N  49,C  26,C  44)   -158.9919         0.001500   
    361. D(O  48,N  49,C  26,O  27)    -18.6322         0.001500   
    362. D(O  48,N  49,C  26,C  24)     72.5379         0.001500   
    363. D(O  47,N  49,C  26,C  44)    -20.8853         0.001500   
    364. D(O  47,N  49,C  26,O  27)    119.4744         0.001500   
    365. D(O  47,N  49,C  26,C  24)   -149.3555         0.001500   
    366. D(C  26,N  49,O   5,O  47)    -94.6520         0.001500   
    367. D(C  26,N  49,O   5,C   4)    -66.7456         0.001500   
    368. D(O   5,N  49,O  27,O  48)   -144.8632         0.001501   
    369. D(C   4,N  49,O   5,O  47)    -27.9064         0.001500   
    370. D(O  27,N  49,O   5,O  47)   -102.6360         0.001500   
    371. D(O  27,N  49,O   5,C   4)    -74.7297         0.001500   
    372. D(O  48,N  49,O  47,C   4)    158.8221         0.184769   
    373. D(O  48,N  49,O   5,O  47)   -168.0041         0.001500   
    374. D(O  48,N  49,O   5,C   4)   -140.0978         0.001500   
    375. D(O  47,N  49,O   5,C   4)     27.9064         0.001500   
    376. D(O  27,N  49,O  47,C   4)     54.8711         0.184769   
    377. D(O  27,N  49,C   4,C  44)    -30.1581         0.001500   
    378. D(O  27,N  49,C   4,O   5)     95.4409         0.001500   
    379. D(O  27,N  49,C   4,C   2)   -149.0615         0.001500   
    380. D(O  48,N  49,C   4,O  47)   -143.5639         0.001500   
    381. D(O  48,N  49,C   4,C  44)    -58.4641         0.001500   
    382. D(O  48,N  49,C   4,O   5)     67.1349         0.001500   
    383. D(O  48,N  49,C   4,C   2)   -177.3675         0.001500   
    384. D(O   5,N  49,O  48,O  27)     56.9798         0.156389   
    385. D(O  47,N  49,C   4,C  44)     85.0997         0.001500   
    386. D(O  47,N  49,C   4,O   5)   -149.3012         0.001500   
    387. D(O  47,N  49,C   4,C   2)    -33.8036         0.001500   
    -----------------------------------------------------------------

Number of atoms                         .... 50
Number of degrees of freedom            .... 387


         *************************************************************
         *                GEOMETRY OPTIMIZATION CYCLE   1            *
         *************************************************************
---------------------------------
CARTESIAN COORDINATES (ANGSTROEM)
---------------------------------
  C     -2.638131    0.357126   -0.513960
  H     -2.221261    0.709247   -1.455490
  C     -1.932796    0.537316    0.611276
  H     -2.298013    0.214541    1.582130
  C     -0.611257    1.185604    0.659491
  O     -0.031548    1.329397    1.722046
  C     -3.952460   -0.280228   -0.633418
  C     -4.540297   -0.384908   -1.895040
  C     -4.647956   -0.800705    0.468579
  C     -5.784778   -0.981341   -2.059911
  H     -4.020401    0.008137   -2.763246
  C     -5.886646   -1.390205    0.317188
  H     -4.241548   -0.747125    1.473173
  C     -6.468970   -1.484960   -0.959339
  H     -6.234826   -1.051936   -3.046092
  O     -7.691908   -2.065271   -1.038819
  H     -7.990605   -2.082326   -1.955889
  O     -6.563750   -1.847699    1.420306
  C     -6.565253   -3.275270    1.535821
  H     -5.541081   -3.652505    1.611335
  H     -7.108264   -3.509171    2.449658
  H     -7.067456   -3.736605    0.683188
  C      2.568371    0.171390   -0.273176
  H      1.622850   -0.352458   -0.399448
  C      2.570141    1.511260   -0.250121
  H      3.481647    2.084534   -0.106457
  C      1.358790    2.338294   -0.371952
  O      1.429204    3.551044   -0.259110
  C      3.730038   -0.711481   -0.134817
  C      3.531931   -2.093049   -0.145702
  C      5.040981   -0.229818    0.000369
  C      4.600248   -2.972776   -0.017878
  H      2.526873   -2.489680   -0.251285
  C      6.109002   -1.094417    0.129963
  H      5.256671    0.833360    0.015185
  C      5.894335   -2.484055    0.121346
  H      4.432164   -4.045952   -0.020892
  O      6.984560   -3.278883    0.260075
  H      6.722887   -4.206667    0.223936
  O      7.375825   -0.593956    0.302635
  C      8.191188   -0.698259   -0.870113
  H      7.742556   -0.139931   -1.697152
  H      9.154643   -0.260713   -0.615078
  H      8.328378   -1.741959   -1.160174
  C      0.014875    1.682771   -0.637809
  H      0.093450    0.861888   -1.355125
  H     -0.638769    2.438462   -1.079625
  O     -1.540500    4.108454    0.810382
  O     -0.065921    5.500716    1.622741
  N     -0.590265    4.453123    1.439291

----------------------------
CARTESIAN COORDINATES (A.U.)
----------------------------
  NO LB      ZA    FRAG     MASS         X           Y           Z
   0 C     6.0000    0    12.011   -4.985345    0.674870   -0.971244
   1 H     1.0000    0     1.008   -4.197575    1.340283   -2.750477
   2 C     6.0000    0    12.011   -3.652455    1.015380    1.155144
   3 H     1.0000    0     1.008   -4.342615    0.405424    2.989792
   4 C     6.0000    0    12.011   -1.155108    2.240467    1.246257
   5 O     8.0000    0    15.999   -0.059617    2.512196    3.254195
   6 C     6.0000    0    12.011   -7.469067   -0.529554   -1.196987
   7 C     6.0000    0    12.011   -8.579918   -0.727371   -3.581107
   8 C     6.0000    0    12.011   -8.783364   -1.513113    0.885486
   9 C     6.0000    0    12.011  -10.931646   -1.854466   -3.892668
  10 H     1.0000    0     1.008   -7.597457    0.015377   -5.221778
  11 C     6.0000    0    12.011  -11.124149   -2.627107    0.599398
  12 H     1.0000    0     1.008   -8.015364   -1.411862    2.783894
  13 C     6.0000    0    12.011  -12.224582   -2.806168   -1.812888
  14 H     1.0000    0     1.008  -11.782114   -1.987871   -5.756280
  15 O     8.0000    0    15.999  -14.535600   -3.902797   -1.963083
  16 H     1.0000    0     1.008  -15.100055   -3.935026   -3.696095
  17 O     8.0000    0    15.999  -12.403690   -3.491645    2.683989
  18 C     6.0000    0    12.011  -12.406530   -6.189363    2.902281
  19 H     1.0000    0     1.008  -10.471126   -6.902234    3.044982
  20 H     1.0000    0     1.008  -13.432672   -6.631372    4.629183
  21 H     1.0000    0     1.008  -13.355556   -7.061160    1.291038
  22 C     6.0000    0    12.011    4.853518    0.323880   -0.516228
  23 H     1.0000    0     1.008    3.066742   -0.666049   -0.754847
  24 C     6.0000    0    12.011    4.856863    2.855868   -0.472660
  25 H     1.0000    0     1.008    6.579359    3.939198   -0.201175
  26 C     6.0000    0    12.011    2.567741    4.418735   -0.702887
  27 O     8.0000    0    15.999    2.700804    6.710501   -0.489647
  28 C     6.0000    0    12.011    7.048750   -1.344504   -0.254767
  29 C     6.0000    0    12.011    6.674382   -3.955289   -0.275337
  30 C     6.0000    0    12.011    9.526074   -0.434293    0.000697
  31 C     6.0000    0    12.011    8.693209   -5.617732   -0.033785
  32 H     1.0000    0     1.008    4.775098   -4.704813   -0.474860
  33 C     6.0000    0    12.011   11.544341   -2.068148    0.245594
  34 H     1.0000    0     1.008    9.933669    1.574822    0.028695
  35 C     6.0000    0    12.011   11.138679   -4.694184    0.229311
  36 H     1.0000    0     1.008    8.375576   -7.645741   -0.039480
  37 O     8.0000    0    15.999   13.198906   -6.196191    0.491471
  38 H     1.0000    0     1.008   12.704415   -7.949449    0.423178
  39 O     8.0000    0    15.999   13.938289   -1.122414    0.571897
  40 C     6.0000    0    12.011   15.479102   -1.319518   -1.644275
  41 H     1.0000    0     1.008   14.631310   -0.264431   -3.207152
  42 H     1.0000    0     1.008   17.299768   -0.492676   -1.162329
  43 H     1.0000    0     1.008   15.738354   -3.291825   -2.192411
  44 C     6.0000    0    12.011    0.028110    3.179976   -1.205284
  45 H     1.0000    0     1.008    0.176595    1.628732   -2.560815
  46 H     1.0000    0     1.008   -1.207098    4.608025   -2.040196
  47 O     8.0000    0    15.999   -2.911123    7.763853    1.531400
  48 O     8.0000    0    15.999   -0.124573   10.394847    3.066536
  49 N     7.0000    0    14.007   -1.115439    8.415183    2.719866

--------------------------------
INTERNAL COORDINATES (ANGSTROEM)
--------------------------------
 C      0   0   0     0.000000000000     0.00000000     0.00000000
 H      1   0   0     1.088231839472     0.00000000     0.00000000
 C      1   2   0     1.340194744812   118.77093972     0.00000000
 H      3   1   2     1.086335421051   122.24017242   179.55586753
 C      3   1   2     1.472775388744   123.98101612   359.82203003
 O      5   3   1     1.218918405618   120.47885470   179.20258670
 C      1   2   3     1.465588978985   114.43930659   179.97255738
 C      7   1   2     1.395779463903   118.94540747     0.19219311
 C      7   1   2     1.403213590853   122.80512921   179.79352177
 C      8   7   1     1.389837303245   121.09879868   179.97104588
 H      8   7   1     1.085614057240   119.60567902   359.77065276
 C      9   7   1     1.380138544126   121.14006041   179.78201111
 H      9   7   1     1.085010315020   121.54470238     0.47494128
 C     10   8   7     1.390327125970   120.14466882     0.10371659
 H     10   8   7     1.086314789133   120.43361309   179.64659455
 O     14  10   8     1.355970235280   123.53542111   179.19173245
 H     16  14  10     0.964638873224   110.03282497     0.87939690
 O     12   9   7     1.372821878022   119.79316033   182.30638721
 C     18  12   9     1.432237736647   113.42141661   253.93736372
 H     19  18  12     1.094046111919   110.38143043    60.02278244
 H     19  18  12     1.088424864881   106.40578412   178.83298988
 H     19  18  12     1.091797081936   111.01832047   298.02082192
 C      5   3   1     3.465332882866   133.28996603   285.93051520
 H     23   5   3     1.088288246068    51.31215486     4.16160370
 C     23   5   3     1.340069506714    72.77953471   158.04963086
 H     25  23   5     1.086335865195   122.07428389   155.59450666
 C     25  23   5     1.471801370742   124.00910942   337.54887742
 O     27  25  23     1.220022135398   120.22599196   175.44512377
 C     23   5   3     1.465631138592   151.42024167   296.06376755
 C     29  23   5     1.395741740186   118.88345808    51.17552874
 C     29  23   5     1.403155746670   122.87658008   230.75563065
 C     30  29  23     1.389805663391   121.11358612   180.00099840
 H     30  29  23     1.085635990290   119.59030066   359.72885029
 C     31  29  23     1.380215523778   121.12904578   179.92100172
 H     31  29  23     1.084937394341   121.56337628     0.40185817
 C     32  30  29     1.390285115214   120.14518776   359.87144500
 H     32  30  29     1.086263339264   120.40849412   179.57198071
 O     36  32  30     1.356314062321   123.53440338   179.53070667
 H     38  36  32     0.964656382815   109.98329094     1.42626092
 O     34  31  29     1.372995755796   119.83108917   182.03634751
 C     40  34  31     1.432143082615   113.31423683   254.53636991
 H     41  40  34     1.094072362565   110.38863448    60.39300136
 H     41  40  34     1.088455277155   106.42742983   179.21687398
 H     41  40  34     1.091909414659   111.01899307   298.40921364
 C     27  25  23     1.518715863881   120.01712554   355.49907431
 H     45  27  25     1.092961652653   112.05228719   319.99221837
 H     45  27  25     1.092483750027   107.55816964   202.32004674
 O     47  45  27     2.678454505209   110.32467129   282.89442907
 O     48  47  45     2.184651882742   115.62618327    71.83271781
 N     49  48  47     1.185766261320    23.21514591   288.65013828

---------------------------
INTERNAL COORDINATES (A.U.)
---------------------------
 C      0   0   0     0.000000000000     0.00000000     0.00000000
 H      1   0   0     2.056460146816     0.00000000     0.00000000
 C      1   2   0     2.532601033815   118.77093972     0.00000000
 H      3   1   2     2.052876435364   122.24017242   179.55586753
 C      3   1   2     2.783142141506   123.98101612   359.82203003
 O      5   3   1     2.303421966214   120.47885470   179.20258670
 C      1   2   3     2.769561795174   114.43930659   179.97255738
 C      7   1   2     2.637640930128   118.94540747     0.19219311
 C      7   1   2     2.651689394108   122.80512921   179.79352177
 C      8   7   1     2.626411873840   121.09879868   179.97104588
 H      8   7   1     2.051513255319   119.60567902   359.77065276
 C      9   7   1     2.608083875266   121.14006041   179.78201111
 H      9   7   1     2.050372347868   121.54470238     0.47494128
 C     10   8   7     2.627337504646   120.14466882     0.10371659
 H     10   8   7     2.052837446691   120.43361309   179.64659455
 O     14  10   8     2.562412390428   123.53542111   179.19173245
 H     16  14  10     1.822903288527   110.03282497     0.87939690
 O     12   9   7     2.594257380117   119.79316033   182.30638721
 C     18  12   9     2.706537080930   113.42141661   253.93736372
 H     19  18  12     2.067447529408   110.38143043    60.02278244
 H     19  18  12     2.056824911975   106.40578412   178.83298988
 H     19  18  12     2.063197478673   111.01832047   298.02082192
 C      5   3   1     6.548530111488   133.28996603   285.93051520
 H     23   5   3     2.056566739833    51.31215486     4.16160370
 C     23   5   3     2.532364368109    72.77953471   158.04963086
 H     25  23   5     2.052877274674   122.07428389   155.59450666
 C     25  23   5     2.781301514232   124.00910942   337.54887742
 O     27  25  23     2.305507713223   120.22599196   175.44512377
 C     23   5   3     2.769641465286   151.42024167   296.06376755
 C     29  23   5     2.637569642635   118.88345808    51.17552874
 C     29  23   5     2.651580084445   122.87658008   230.75563065
 C     30  29  23     2.626352083182   121.11358612   180.00099840
 H     30  29  23     2.051554702777   119.59030066   359.72885029
 C     31  29  23     2.608229345727   121.12904578   179.92100172
 H     31  29  23     2.050234547755   121.56337628     0.40185817
 C     32  30  29     2.627258115822   120.14518776   359.87144500
 H     32  30  29     2.052740220527   120.40849412   179.57198071
 O     36  32  30     2.563062129373   123.53440338   179.53070667
 H     38  36  32     1.822936376860   109.98329094     1.42626092
 O     34  31  29     2.594585961491   119.83108917   182.03634751
 C     40  34  31     2.706358210732   113.31423683   254.53636991
 H     41  40  34     2.067497135940   110.38863448    60.39300136
 H     41  40  34     2.056882382844   106.42742983   179.21687398
 H     41  40  34     2.063409756756   111.01899307   298.40921364
 C     27  25  23     2.869957057976   120.01712554   355.49907431
 H     45  27  25     2.065398198392   112.05228719   319.99221837
 H     45  27  25     2.064495093310   107.55816964   202.32004674
 O     47  45  27     5.061545477012   110.32467129   282.89442907
 O     48  47  45     4.128393756337   115.62618327    71.83271781
 N     49  48  47     2.240773492739    23.21514591   288.65013828

---------------------
BASIS SET INFORMATION
---------------------
There are 4 groups of distinct atoms

 Group   1 Type C   : 11s5p1d contracted to 4s3p1d pattern {6311/311/1}
 Group   2 Type H   : 5s contracted to 3s pattern {311}
 Group   3 Type O   : 11s5p1d contracted to 4s3p1d pattern {6311/311/1}
 Group   4 Type N   : 11s5p1d contracted to 4s3p1d pattern {6311/311/1}

Atom   0C    basis set group =>   1
Atom   1H    basis set group =>   2
Atom   2C    basis set group =>   1
Atom   3H    basis set group =>   2
Atom   4C    basis set group =>   1
Atom   5O    basis set group =>   3
Atom   6C    basis set group =>   1
Atom   7C    basis set group =>   1
Atom   8C    basis set group =>   1
Atom   9C    basis set group =>   1
Atom  10H    basis set group =>   2
Atom  11C    basis set group =>   1
Atom  12H    basis set group =>   2
Atom  13C    basis set group =>   1
Atom  14H    basis set group =>   2
Atom  15O    basis set group =>   3
Atom  16H    basis set group =>   2
Atom  17O    basis set group =>   3
Atom  18C    basis set group =>   1
Atom  19H    basis set group =>   2
Atom  20H    basis set group =>   2
Atom  21H    basis set group =>   2
Atom  22C    basis set group =>   1
Atom  23H    basis set group =>   2
Atom  24C    basis set group =>   1
Atom  25H    basis set group =>   2
Atom  26C    basis set group =>   1
Atom  27O    basis set group =>   3
Atom  28C    basis set group =>   1
Atom  29C    basis set group =>   1
Atom  30C    basis set group =>   1
Atom  31C    basis set group =>   1
Atom  32H    basis set group =>   2
Atom  33C    basis set group =>   1
Atom  34H    basis set group =>   2
Atom  35C    basis set group =>   1
Atom  36H    basis set group =>   2
Atom  37O    basis set group =>   3
Atom  38H    basis set group =>   2
Atom  39O    basis set group =>   3
Atom  40C    basis set group =>   1
Atom  41H    basis set group =>   2
Atom  42H    basis set group =>   2
Atom  43H    basis set group =>   2
Atom  44C    basis set group =>   1
Atom  45H    basis set group =>   2
Atom  46H    basis set group =>   2
Atom  47O    basis set group =>   3
Atom  48O    basis set group =>   3
Atom  49N    basis set group =>   4
---------------------------------
AUXILIARY/J BASIS SET INFORMATION
---------------------------------
There are 4 groups of distinct atoms

 Group   1 Type C   : 12s5p4d2f1g contracted to 6s4p3d1f1g pattern {711111/2111/211/2/1}
 Group   2 Type H   : 5s2p1d contracted to 3s1p1d pattern {311/2/1}
 Group   3 Type O   : 12s5p4d2f1g contracted to 6s4p3d1f1g pattern {711111/2111/211/2/1}
 Group   4 Type N   : 12s5p4d2f1g contracted to 6s4p3d1f1g pattern {711111/2111/211/2/1}

Atom   0C    basis set group =>   1
Atom   1H    basis set group =>   2
Atom   2C    basis set group =>   1
Atom   3H    basis set group =>   2
Atom   4C    basis set group =>   1
Atom   5O    basis set group =>   3
Atom   6C    basis set group =>   1
Atom   7C    basis set group =>   1
Atom   8C    basis set group =>   1
Atom   9C    basis set group =>   1
Atom  10H    basis set group =>   2
Atom  11C    basis set group =>   1
Atom  12H    basis set group =>   2
Atom  13C    basis set group =>   1
Atom  14H    basis set group =>   2
Atom  15O    basis set group =>   3
Atom  16H    basis set group =>   2
Atom  17O    basis set group =>   3
Atom  18C    basis set group =>   1
Atom  19H    basis set group =>   2
Atom  20H    basis set group =>   2
Atom  21H    basis set group =>   2
Atom  22C    basis set group =>   1
Atom  23H    basis set group =>   2
Atom  24C    basis set group =>   1
Atom  25H    basis set group =>   2
Atom  26C    basis set group =>   1
Atom  27O    basis set group =>   3
Atom  28C    basis set group =>   1
Atom  29C    basis set group =>   1
Atom  30C    basis set group =>   1
Atom  31C    basis set group =>   1
Atom  32H    basis set group =>   2
Atom  33C    basis set group =>   1
Atom  34H    basis set group =>   2
Atom  35C    basis set group =>   1
Atom  36H    basis set group =>   2
Atom  37O    basis set group =>   3
Atom  38H    basis set group =>   2
Atom  39O    basis set group =>   3
Atom  40C    basis set group =>   1
Atom  41H    basis set group =>   2
Atom  42H    basis set group =>   2
Atom  43H    basis set group =>   2
Atom  44C    basis set group =>   1
Atom  45H    basis set group =>   2
Atom  46H    basis set group =>   2
Atom  47O    basis set group =>   3
Atom  48O    basis set group =>   3
Atom  49N    basis set group =>   4
------------------------------------------------------------------------------
                             ORCA STARTUP CALCULATIONS
                           -- RI-GTO INTEGRALS CHOSEN --
------------------------------------------------------------------------------
------------------------------------------------------------------------------
                   ___                                                        
                  /   \      - P O W E R E D   B Y -                         
                 /     \                                                     
                 |  |  |   _    _      __       _____    __    __             
                 |  |  |  | |  | |    /  \     |  _  \  |  |  /  |          
                  \  \/   | |  | |   /    \    | | | |  |  | /  /          
                 / \  \   | |__| |  /  /\  \   | |_| |  |  |/  /          
                |  |  |   |  __  | /  /__\  \  |    /   |      \           
                |  |  |   | |  | | |   __   |  |    \   |  |\   \          
                \     /   | |  | | |  |  |  |  | |\  \  |  | \   \       
                 \___/    |_|  |_| |__|  |__|  |_| \__\ |__|  \__/        
                                                                              
                      - O R C A' S   B I G   F R I E N D -                    
                                      &                                       
                       - I N T E G R A L  F E E D E R -                       
                                                                              
 v1 FN, 2020, v2 2021, v3 2022-2024                                           
------------------------------------------------------------------------------


----------------------
SHARK INTEGRAL PACKAGE
----------------------

Number of atoms                             ...     50
Number of basis functions                   ...    600
Number of shells                            ...    300
Maximum angular momentum                    ...      2
Integral batch strategy                     ... SHARK/LIBINT Hybrid
RI-J (if used) integral strategy            ... SPLIT-RIJ (Revised 2003 algorithm where possible)
Printlevel                                  ...      1
Contraction scheme used                     ... SEGMENTED contraction
Prescreening option                         ... SCHWARTZ
   Thresh                                   ... 2.500e-11
   Tcut                                     ... 2.500e-12
   Tpresel                                  ... 2.500e-12 
Coulomb Range Separation                    ... NOT USED
Exchange Range Separation                   ... Long Range
   Mu parameter                             ... 3.000e-01
   Scaling (regular/separated)              ... 1.500e-01 8.500e-01
Multipole approximations                    ... NOT USED
Finite Nucleus Model                        ... NOT USED
CABS basis                                  ... NOT available
Auxiliary Coulomb fitting basis             ... AVAILABLE
   # of basis functions in Aux-J            ...   1690
   # of shells in Aux-J                     ...    550
   Maximum angular momentum in Aux-J        ...      4
Auxiliary J/K fitting basis                 ... NOT available
Auxiliary Correlation fitting basis         ... NOT available
Auxiliary 'external' fitting basis          ... NOT available

Checking pre-screening integrals            ... done (  0.0 sec) Dimension = 300
Check shell pair data                       ... done (  0.0 sec)
Shell pair information
Shell pair cut-off parameter TPreSel        ...   2.5e-12
Total number of shell pairs                 ...     45150
Shell pairs after pre-screening             ...     20771
Total number of primitive shell pairs       ...    187045
Primitive shell pairs kept                  ...     50683
          la=0 lb=0:   7221 shell pairs
          la=1 lb=0:   7727 shell pairs
          la=1 lb=1:   2126 shell pairs
          la=2 lb=0:   2269 shell pairs
          la=2 lb=1:   1232 shell pairs
          la=2 lb=2:    196 shell pairs

Calculating one electron integrals          ... done (  0.1 sec)
Calculating RI/J V-Matrix + Cholesky decomp.... done (  0.5 sec)
Calculating Nuclear repulsion               ... done (  0.0 sec) ENN=   2603.143610263938 Eh

Diagonalization of the overlap matrix:
Smallest eigenvalue                        ... 1.700e-04
Time for diagonalization                   ...    0.042 sec
Threshold for overlap eigenvalues          ... 1.000e-07
Number of eigenvalues below threshold      ... 0
Time for construction of square roots      ...    0.055 sec
Total time needed                          ...    0.108 sec

-------------------
DFT GRID GENERATION
-------------------

General Integration Accuracy     IntAcc      ... 4.388
Radial Grid Type                 RadialGrid  ... OptM3 with GC (2021)
Angular Grid (max. ang.)         AngularGrid ... 4 (Lebedev-302)
Angular grid pruning method      GridPruning ... 4 (adaptive)
Weight generation scheme         WeightScheme... mBecke (2022)
Basis function cutoff            BFCut       ... 1.0000e-11
Integration weight cutoff        WCut        ... 1.0000e-14
Partially contracted basis set               ... off
Rotationally invariant grid construction     ... off
Angular grids for H and He will be reduced by one unit

Total number of grid points                  ...   243942
Total number of batches                      ...     3838
Average number of points per batch           ...       63
Average number of grid points per atom       ...     4879

------------------
NL GRID GENERATION
------------------

General Integration Accuracy     IntAcc      ... 4.004
Radial Grid Type                 RadialGrid  ... OptM3 with GC (2021)
Angular Grid (max. ang.)         AngularGrid ... 2 (Lebedev-110)
Angular grid pruning method      GridPruning ... 4 (adaptive)
Weight generation scheme         WeightScheme... mBecke (2022)
Basis function cutoff            BFCut       ... 1.0000e-10
Integration weight cutoff        WCut        ... 1.0000e-14
Partially contracted basis set               ... off
Rotationally invariant grid construction     ... off
Angular grids for H and He will be reduced by one unit

Total number of grid points                  ...    78529
Total number of batches                      ...     1253
Average number of points per batch           ...       62
Average number of grid points per atom       ...     1571
Initializing property integral containers    ... done (  0.0 sec)

SHARK setup successfully completed in   4.4 seconds

Maximum memory used throughout the entire STARTUP-calculation: 110.7 MB
-------------------------------------------------------------------------------
                                 ORCA GUESS
                   Start orbitals & Density for SCF / CASSCF
-------------------------------------------------------------------------------

------------
SCF SETTINGS
------------
Hamiltonian:
 Density Functional     Method          .... DFT(GTOs)
  Functional kind                       .... Exchange-Correlation
  Functional name                       .... wB97M-V exchange-correlation functional
  Functional family                     .... Hybrid MGGA
  Functional refs                              
    [ 0] N. Mardirossian and M. Head-Gordon.,  J. Chem. Phys. 144, 214110 (2016), doi: 10.1063/1.4952647
  Fraction of HF Exchange (short range) .... 0.1500
  Fraction of HF Exchange (long range)  .... 1.0000
  Range separation parameter mu         .... 0.3000
  Functional external parameters        .... 17
    Parameter  0 _cx00      =  8.500000e-01 : u^00 coefficient for exchange
    Parameter  1 _cx01      =  1.007000e+00 : u^01 coefficient for exchange
    Parameter  2 _cx10      =  2.590000e-01 : u^10 coefficient for exchange
    Parameter  3 _css00     =  4.430000e-01 : u^00 coefficient for same-spin correlation
    Parameter  4 _css04     = -1.437000e+00 : u^04 coefficient for same-spin correlation
    Parameter  5 _css10     = -4.535000e+00 : u^10 coefficient for same-spin correlation
    Parameter  6 _css20     = -3.390000e+00 : u^20 coefficient for same-spin correlation
    Parameter  7 _css43     =  4.278000e+00 : u^43 coefficient for same-spin correlation
    Parameter  8 _cos00     =  1.000000e+00 : u^00 coefficient for opposite-spin correlation
    Parameter  9 _cos10     =  1.358000e+00 : u^10 coefficient for opposite-spin correlation
    Parameter 10 _cos20     =  2.924000e+00 : u^20 coefficient for opposite-spin correlation
    Parameter 11 _cos21     = -8.812000e+00 : u^21 coefficient for opposite-spin correlation
    Parameter 12 _cos60     = -1.390000e+00 : u^60 coefficient for opposite-spin correlation
    Parameter 13 _cos61     =  9.142000e+00 : u^61 coefficient for opposite-spin correlation
    Parameter 14 _alpha     =  1.000000e+00 : fraction of HF exchange
    Parameter 15 _beta      = -8.500000e-01 : fraction of short-range exchange
    Parameter 16 _omega     =  3.000000e-01 : range-separation constant
 Long-range corrected/Screened/Range-Separated Hybrid DFT is turned on
   Amount of maximum screened exact exchange              ....  0.850000
   Range separation parameter mu (erf(mu*r12)/r12)        ....  0.300000
   NL short-range parameter             ....  6.000000
   NL long-range parameter              ....  0.010000
 RI-approximation to the Coulomb term is turned on
   Number of AuxJ basis functions       .... 1690
   RIJ-ON(X) (HFX calculated with O(N)) .... on


General Settings:
 Integral files         IntName         .... CURCUMIN-OPT-FREQ-Reag-WB97M-V-6-311G-D-363
 Hartree-Fock type      HFTyp           .... UHF
 Total Charge           Charge          ....    0
 Multiplicity           Mult            ....    2
 Number of Electrons    NEL             ....  217
 Basis Dimension        Dim             ....  600
 Nuclear Repulsion      ENuc            ....   2603.1436102639 Eh

Convergence Acceleration:
 AO-DIIS                CNVDIIS         .... on
   Start iteration      DIISMaxIt       ....    12
   Startup error        DIISStart       ....  0.200000
   # of expansion vecs  DIISMaxEq       ....     5
   Bias factor          DIISBfac        ....   1.050
   Max. coefficient     DIISMaxC        ....  10.000
 MO-DIIS                CNVKDIIS        .... off
 Trust-Rad. Augm. Hess. CNVTRAH         .... off
 SOSCF                  CNVSOSCF        .... on
   Start iteration      SOSCFMaxIt      ....   150
   Startup grad/error   SOSCFStart      ....  0.003300
   Hessian update       SOSCFHessUp     .... L-BFGS
 Level Shifting         CNVShift        .... on
   Level shift para.    LevelShift      ....    0.2500
   Turn off err/grad.   ShiftErr        ....    0.0010
 Zerner damping         CNVZerner       .... off
 Static damping         CNVDamp         .... on
   Fraction old density DampFac         ....    0.7000
   Max. Damping (<1)    DampMax         ....    0.9800
   Min. Damping (>=0)   DampMin         ....    0.0000
   Turn off err/grad.   DampErr         ....    0.1000

SCF Procedure:
 Maximum # iterations   MaxIter         ....   125
 SCF integral mode      SCFMode         .... Direct
   Integral package                     .... SHARK and LIBINT hybrid scheme
 Reset frequency        DirectResetFreq ....    20
 Integral Threshold     Thresh          ....  2.500e-11 Eh
 Primitive CutOff       TCut            ....  2.500e-12 Eh

Convergence Tolerance:
 Convergence Check Mode ConvCheckMode   .... Total+1el-Energy
 Convergence forced     ConvForced      .... 0
 Energy Change          TolE            ....  1.000e-08 Eh
 1-El. energy change                    ....  1.000e-05 Eh
 Orbital Gradient       TolG            ....  1.000e-05
 Orbital Rotation angle TolX            ....  1.000e-05
 DIIS Error             TolErr          ....  5.000e-07

------------------------------
INITIAL GUESS: MODEL POTENTIAL
------------------------------
Loading Hartree-Fock densities                     ... done
Calculating cut-offs                               ... done
Initializing the effective Hamiltonian             ... done
Setting up the integral package (SHARK)            ... done
Starting the Coulomb interaction                   ... done (   1.0 sec)
Making the grid                                    ... done (   0.6 sec)
Mapping shells                                     ... done
Starting the XC term evaluation                    ... done (   0.4 sec)
  promolecular density results
     # of electrons  =    216.993562681
     EX              =   -185.053637233
     EC              =     -7.294368251
     EX+EC           =   -192.348005484
Transforming the Hamiltonian                       ... done (   0.0 sec)
Diagonalizing the Hamiltonian                      ... done (   0.0 sec)
Back transforming the eigenvectors                 ... done (   0.1 sec)
Now organizing SCF variables                       ... done
                      ------------------
                      INITIAL GUESS DONE (   2.5 sec)
                      ------------------
             **** ENERGY FILE WAS UPDATED (CURCUMIN-OPT-FREQ-Reag-WB97M-V-6-311G-D-363.en.tmp) ****
Finished Guess after   3.0 sec
Maximum memory used throughout the entire GUESS-calculation: 63.2 MB

-------------------------------------------------------------------------------------------
                                      ORCA LEAN-SCF
                              memory conserving SCF solver
-------------------------------------------------------------------------------------------

--------------------
CPCM SOLVATION MODEL
--------------------
CPCM parameters:
  Epsilon                                         ...       7.0000
  Refrac                                          ...       1.8534
  Rsolv                                           ...       1.3000
  Surface type                                    ... GAUSSIAN VDW
  Discretization scheme                           ... Constant charge density
    Threshold for H atoms                         ...       5.0000 (charges/Ang^2)
    Threshold for non-H atoms                     ...       5.0000 (charges/Ang^2)
  Epsilon function type                           ...         CPCM
Solvent:                                          ... CUSTOM
Radii:
  Scheme                                          ... Element-dependent radii
  Radius for C  used is    3.8550 Bohr (=   2.0400 Ang.)
  Radius for H  used is    2.4944 Bohr (=   1.3200 Ang.)
  Radius for O  used is    3.4469 Bohr (=   1.8240 Ang.)
  Radius for N  used is    3.5149 Bohr (=   1.8600 Ang.)
Calculating surface                               ...        done! (  0.0s)
Cavity surface points                             ...         4484
Cavity Volume                                     ...    3250.3616
Cavity Surface-area                               ...    1690.4660
Calculating surface distance matrix               ...        done! (  0.1s)
Performing Cholesky decomposition & store         ...        done! (  2.0s)
Overall time for CPCM initialization              ...                 2.1s

----------------------------------------D-I-I-S--------------------------------------------
Iteration    Energy (Eh)           Delta-E    RMSDP     MaxDP     DIISErr   Damp  Time(sec)
-------------------------------------------------------------------------------------------
               ***  Starting incremental Fock matrix formation  ***
    1    -1467.8201292487392493     0.00e+00  6.64e-04  6.08e-02  1.49e-01  0.700  76.7
    2    -1468.0995986728269145    -2.79e-01  4.98e-04  4.11e-02  7.35e-02  0.700  71.0
                               ***Turning on AO-DIIS***
    3    -1468.2389060839459489    -1.39e-01  2.50e-04  9.52e-03  3.04e-02  0.700  70.2
    4    -1468.3241354835245147    -8.52e-02  5.32e-04  1.74e-02  2.14e-02  0.000  68.7
    5    -1468.5100640153732456    -1.86e-01  5.98e-05  5.01e-03  3.75e-03  0.000  71.1
                              *** Initializing SOSCF ***
---------------------------------------S-O-S-C-F--------------------------------------
Iteration    Energy (Eh)           Delta-E    RMSDP     MaxDP     MaxGrad    Time(sec)
--------------------------------------------------------------------------------------
    6    -1468.5109766782186398    -9.13e-04  2.84e-05  1.79e-03  1.70e-03    65.6
               *** Restarting incremental Fock matrix formation ***
    7    -1468.5112327696433567    -2.56e-04  2.46e-05  1.30e-03  1.75e-03    77.2
    8    -1468.5113788714468228    -1.46e-04  3.14e-05  2.64e-03  7.55e-04    63.0
    9    -1468.5114143771902491    -3.55e-05  7.78e-06  8.57e-04  5.07e-04    63.4
   10    -1468.5114242839720191    -9.91e-06  3.38e-06  2.14e-04  1.65e-04    57.3
   11    -1468.5114263952075362    -2.11e-06  1.18e-06  6.42e-05  4.31e-05    56.9
   12    -1468.5114265865631751    -1.91e-07  5.47e-07  2.71e-05  5.09e-05    52.4
   13    -1468.5114266652224160    -7.87e-08  4.10e-07  2.97e-05  2.40e-05    50.7
   14    -1468.5114266808848242    -1.57e-08  1.82e-07  1.09e-05  3.07e-05    49.2
   15    -1468.5114267032104181    -2.23e-08  1.46e-07  8.43e-06  6.53e-06    47.6
   16    -1468.5114266894936463     1.37e-08  1.12e-07  8.37e-06  5.56e-06    46.4
   17    -1468.5114266919485999    -2.45e-09  7.73e-08  4.07e-06  2.70e-06    45.8
                 **** Energy Check signals convergence ****

               *****************************************************
               *                     SUCCESS                       *
               *           SCF CONVERGED AFTER  17 CYCLES          *
               *****************************************************

             **** ENERGY FILE WAS UPDATED (CURCUMIN-OPT-FREQ-Reag-WB97M-V-6-311G-D-363.en.tmp) ****

----------------
TOTAL SCF ENERGY
----------------

Total Energy       :      -1468.51142669194860 Eh          -39960.22746 eV

Components:
Nuclear Repulsion  :       2603.14361026393817 Eh           70835.13882 eV
Electronic Energy  :      -4072.43445535031333 Eh         -110816.57534 eV
One Electron Energy:      -7177.64083451823899 Eh         -195313.53666 eV
Two Electron Energy:       3105.20637916792566 Eh           84496.96132 eV
CPCM Dielectric    :         -0.04351283588559 Eh              -1.18404 eV

Virial components:
Potential Energy   :      -2933.83584402168435 Eh          -79833.73198 eV
Kinetic Energy     :       1465.32441732973575 Eh           39873.50453 eV
Virial Ratio       :          2.00217495137904

DFT components:
N(Alpha)           :      108.999905468659 electrons
[...]
108:   1383.54   0.042671  215.64  0.009625  (-0.090198  0.037552 -0.008880)
109:   1451.13   0.001423    7.19  0.000306  ( 0.015088 -0.004504  0.007623)
110:   1462.24   0.011140   56.30  0.002377  ( 0.040405 -0.000187  0.027291)
111:   1467.17   0.000996    5.03  0.000212  (-0.003188  0.003747 -0.013699)
112:   1469.12   0.000878    4.44  0.000187  (-0.001807  0.008113 -0.010838)
113:   1484.17   0.002660   13.44  0.000559  (-0.018728 -0.003301 -0.014057)
114:   1484.70   0.002735   13.82  0.000575  ( 0.006414 -0.022876  0.003239)
115:   1495.52   0.006340   32.04  0.001323  ( 0.019376  0.020515 -0.022951)
116:   1496.05   0.005650   28.55  0.001179  ( 0.033230  0.005953 -0.006241)
117:   1499.31   0.001752    8.85  0.000365  (-0.017239 -0.000918 -0.008158)
118:   1501.59   0.001047    5.29  0.000218  ( 0.011791  0.000866 -0.008817)
119:   1563.40   0.079303  400.76  0.015829  (-0.112895 -0.054222  0.011999)
120:   1566.36   0.061564  311.12  0.012265  (-0.096339  0.053627 -0.010396)
121:   1665.30   0.002678   13.53  0.000502  (-0.009344  0.005300 -0.019659)
122:   1666.03   0.003786   19.13  0.000709  (-0.004371 -0.025826  0.004808)
123:   1681.11   0.067216  339.68  0.012477  (-0.099256  0.023373 -0.045597)
124:   1681.56   0.042651  215.54  0.007915  ( 0.001429  0.087422  0.016448)
125:   1718.89   0.193236  976.54  0.035082  ( 0.124057  0.120516  0.071885)
126:   1720.12   0.053171  268.70  0.009646  (-0.081841  0.050699 -0.019441)
127:   1722.17   0.005993   30.29  0.001086  (-0.022995  0.023095  0.004885)
128:   1744.43   0.106126  536.32  0.018985  ( 0.079816 -0.090923  0.065935)
129:   1762.25   0.152714  771.76  0.027043  (-0.048649 -0.136511 -0.077725)
130:   3039.54   0.013680   69.13  0.001404  (-0.022721 -0.007827  0.028757)
131:   3043.05   0.013713   69.30  0.001406  (-0.004268  0.035483 -0.011361)
132:   3087.10   0.001221    6.17  0.000123  ( 0.008677  0.005835  0.003755)
133:   3117.25   0.010154   51.31  0.001016  (-0.017574  0.025619 -0.007162)
134:   3119.50   0.010198   51.54  0.001020  (-0.029797 -0.007199 -0.008973)
135:   3134.25   0.000887    4.48  0.000088  (-0.006424  0.006582  0.001924)
136:   3162.83   0.008354   42.22  0.000824  ( 0.022784  0.013065  0.011596)
137:   3164.14   0.008045   40.66  0.000793  (-0.012762 -0.001555  0.025064)
138:   3169.56   0.003330   16.83  0.000328  ( 0.017621  0.003877  0.001522)
139:   3169.94   0.001526    7.71  0.000150  (-0.007243 -0.005117  0.008458)
140:   3179.46   0.003364   17.00  0.000330  (-0.013093  0.012472 -0.001786)
141:   3180.86   0.003597   18.18  0.000353  ( 0.017125  0.007325  0.002454)
142:   3186.33   0.003594   18.16  0.000352  ( 0.017256  0.005995 -0.004275)
143:   3186.41   0.000763    3.85  0.000075  ( 0.002445 -0.001366  0.008176)
144:   3196.61   0.003320   16.78  0.000324  (-0.001314 -0.006136  0.016873)
145:   3196.69   0.003467   17.52  0.000338  (-0.010746 -0.013476 -0.006433)
146:   3206.56   0.001071    5.41  0.000104  (-0.002187 -0.002646  0.009613)
147:   3207.85   0.001228    6.21  0.000119  ( 0.008106  0.007239  0.001158)
148:   3805.54   0.035159  177.68  0.002883  ( 0.039605  0.011616  0.034347)
149:   3808.05   0.035462  179.21  0.002906  (-0.015391  0.051652 -0.001136)

* The epsilon (eps) is given for a Dirac delta lineshape.
** The dipole moment derivative (T) already includes vibrational overlap.

The first frequency considered to be a vibration is 7
The total number of vibrations considered is 143


--------------------------
THERMOCHEMISTRY AT 363.15K
--------------------------

Temperature         ...   363.15 K
Pressure            ...     1.00 atm
Total Mass          ...   414.39 AMU
Quasi RRHO          ...     True
Cut-Off Frequency   ...     1.00 cm^-1

Throughout the following assumptions are being made:
  (1) The electronic state is orbitally nondegenerate
      but the spin degeneracy is treated
  (2) There are no thermally accessible electronically excited states
  (3) Hindered rotations indicated by low frequency modes are not
      treated as such but are treated as vibrations and this may
      cause some error
  (4) All equations used are the standard statistical mechanics
      equations for an ideal gas
  (5) All vibrations are strictly harmonic

freq.       6.66  E(vib)   ...       0.71 
freq.      11.32  E(vib)   ...       0.71 
freq.      19.77  E(vib)   ...       0.69 
freq.      29.01  E(vib)   ...       0.68 
freq.      42.75  E(vib)   ...       0.66 
freq.      49.14  E(vib)   ...       0.65 
freq.      51.47  E(vib)   ...       0.65 
freq.      57.84  E(vib)   ...       0.64 
freq.      69.97  E(vib)   ...       0.63 
freq.      74.24  E(vib)   ...       0.62 
freq.      75.38  E(vib)   ...       0.62 
freq.      84.52  E(vib)   ...       0.61 
freq.      93.90  E(vib)   ...       0.60 
freq.     101.90  E(vib)   ...       0.59 
freq.     126.01  E(vib)   ...       0.56 
freq.     134.32  E(vib)   ...       0.55 
freq.     138.75  E(vib)   ...       0.54 
freq.     146.66  E(vib)   ...       0.53 
freq.     152.07  E(vib)   ...       0.53 
freq.     156.16  E(vib)   ...       0.52 
freq.     162.85  E(vib)   ...       0.51 
freq.     167.73  E(vib)   ...       0.51 
freq.     170.71  E(vib)   ...       0.50 
freq.     202.84  E(vib)   ...       0.47 
freq.     210.87  E(vib)   ...       0.46 
freq.     240.67  E(vib)   ...       0.43 
freq.     301.92  E(vib)   ...       0.37 
freq.     302.17  E(vib)   ...       0.37 
freq.     315.36  E(vib)   ...       0.36 
freq.     317.52  E(vib)   ...       0.36 
freq.     337.90  E(vib)   ...       0.34 
freq.     340.51  E(vib)   ...       0.34 
freq.     378.65  E(vib)   ...       0.31 
freq.     387.49  E(vib)   ...       0.30 
freq.     397.70  E(vib)   ...       0.30 
freq.     398.82  E(vib)   ...       0.30 
freq.     418.29  E(vib)   ...       0.28 
freq.     457.77  E(vib)   ...       0.26 
freq.     468.64  E(vib)   ...       0.25 
freq.     472.27  E(vib)   ...       0.25 
freq.     499.83  E(vib)   ...       0.23 
freq.     501.25  E(vib)   ...       0.23 
freq.     543.01  E(vib)   ...       0.20 
freq.     559.46  E(vib)   ...       0.20 
freq.     569.25  E(vib)   ...       0.19 
freq.     580.50  E(vib)   ...       0.18 
freq.     593.01  E(vib)   ...       0.18 
freq.     596.18  E(vib)   ...       0.18 
freq.     613.55  E(vib)   ...       0.17 
freq.     645.48  E(vib)   ...       0.16 
freq.     651.63  E(vib)   ...       0.15 
freq.     719.95  E(vib)   ...       0.13 
freq.     749.56  E(vib)   ...       0.12 
freq.     751.25  E(vib)   ...       0.12 
freq.     769.78  E(vib)   ...       0.11 
freq.     771.06  E(vib)   ...       0.11 
freq.     777.36  E(vib)   ...       0.11 
freq.     817.57  E(vib)   ...       0.10 
freq.     820.00  E(vib)   ...       0.09 
freq.     822.75  E(vib)   ...       0.09 
freq.     824.92  E(vib)   ...       0.09 
freq.     856.47  E(vib)   ...       0.09 
freq.     871.41  E(vib)   ...       0.08 
freq.     885.36  E(vib)   ...       0.08 
freq.     913.80  E(vib)   ...       0.07 
freq.     921.84  E(vib)   ...       0.07 
freq.     926.13  E(vib)   ...       0.07 
freq.     952.45  E(vib)   ...       0.06 
freq.     952.99  E(vib)   ...       0.06 
freq.     964.60  E(vib)   ...       0.06 
freq.     975.81  E(vib)   ...       0.06 
freq.     984.25  E(vib)   ...       0.06 
freq.    1007.79  E(vib)   ...       0.05 
freq.    1016.73  E(vib)   ...       0.05 
freq.    1059.79  E(vib)   ...       0.05 
freq.    1060.16  E(vib)   ...       0.05 
freq.    1143.62  E(vib)   ...       0.04 
freq.    1144.12  E(vib)   ...       0.04 
freq.    1170.58  E(vib)   ...       0.03 
freq.    1179.44  E(vib)   ...       0.03 
freq.    1179.70  E(vib)   ...       0.03 
freq.    1188.15  E(vib)   ...       0.03 
freq.    1188.54  E(vib)   ...       0.03 
freq.    1198.45  E(vib)   ...       0.03 
freq.    1203.63  E(vib)   ...       0.03 
freq.    1205.33  E(vib)   ...       0.03 
freq.    1223.50  E(vib)   ...       0.03 
freq.    1224.01  E(vib)   ...       0.03 
freq.    1265.45  E(vib)   ...       0.02 
freq.    1273.69  E(vib)   ...       0.02 
freq.    1289.91  E(vib)   ...       0.02 
freq.    1290.09  E(vib)   ...       0.02 
freq.    1301.57  E(vib)   ...       0.02 
freq.    1312.14  E(vib)   ...       0.02 
freq.    1319.46  E(vib)   ...       0.02 
freq.    1328.18  E(vib)   ...       0.02 
freq.    1341.29  E(vib)   ...       0.02 
freq.    1359.29  E(vib)   ...       0.02 
freq.    1364.39  E(vib)   ...       0.02 
freq.    1371.43  E(vib)   ...       0.02 
freq.    1381.51  E(vib)   ...       0.02 
freq.    1383.54  E(vib)   ...       0.02 
freq.    1451.13  E(vib)   ...       0.01 
freq.    1462.24  E(vib)   ...       0.01 
freq.    1467.17  E(vib)   ...       0.01 
freq.    1469.12  E(vib)   ...       0.01 
freq.    1484.17  E(vib)   ...       0.01 
freq.    1484.70  E(vib)   ...       0.01 
freq.    1495.52  E(vib)   ...       0.01 
freq.    1496.05  E(vib)   ...       0.01 
freq.    1499.31  E(vib)   ...       0.01 
freq.    1501.59  E(vib)   ...       0.01 
freq.    1563.40  E(vib)   ...       0.01 
freq.    1566.36  E(vib)   ...       0.01 
freq.    1665.30  E(vib)   ...       0.01 
freq.    1666.03  E(vib)   ...       0.01 
freq.    1681.11  E(vib)   ...       0.01 
freq.    1681.56  E(vib)   ...       0.01 
freq.    1718.89  E(vib)   ...       0.01 
freq.    1720.12  E(vib)   ...       0.01 
freq.    1722.17  E(vib)   ...       0.01 
freq.    1744.43  E(vib)   ...       0.00 
freq.    1762.25  E(vib)   ...       0.00 
freq.    3039.54  E(vib)   ...       0.00 
freq.    3043.05  E(vib)   ...       0.00 
freq.    3087.10  E(vib)   ...       0.00 
freq.    3117.25  E(vib)   ...       0.00 
freq.    3119.50  E(vib)   ...       0.00 
freq.    3134.25  E(vib)   ...       0.00 
freq.    3162.83  E(vib)   ...       0.00 
freq.    3164.14  E(vib)   ...       0.00 
freq.    3169.56  E(vib)   ...       0.00 
freq.    3169.94  E(vib)   ...       0.00 
freq.    3179.46  E(vib)   ...       0.00 
freq.    3180.86  E(vib)   ...       0.00 
freq.    3186.33  E(vib)   ...       0.00 
freq.    3186.41  E(vib)   ...       0.00 
freq.    3196.61  E(vib)   ...       0.00 
freq.    3196.69  E(vib)   ...       0.00 
freq.    3206.56  E(vib)   ...       0.00 
freq.    3207.85  E(vib)   ...       0.00 
freq.    3805.54  E(vib)   ...       0.00 
freq.    3808.05  E(vib)   ...       0.00 

------------
INNER ENERGY
------------

The inner energy is: U= E(el) + E(ZPE) + E(vib) + E(rot) + E(trans)
    E(el)   - is the total energy from the electronic structure calculation
              = E(kin-el) + E(nuc-el) + E(el-el) + E(nuc-nuc)
    E(ZPE)  - the the zero temperature vibrational energy from the frequency calculation
    E(vib)  - the the finite temperature correction to E(ZPE) due to population
              of excited vibrational states
    E(rot)  - is the rotational thermal energy
    E(trans)- is the translational thermal energy

Summary of contributions to the inner energy U:
Electronic energy                ...  -1468.51144903 Eh
Zero point energy                ...      0.38066942 Eh     238.87 kcal/mol
Thermal vibrational correction   ...      0.03903767 Eh      24.50 kcal/mol
Thermal rotational correction    ...      0.00172503 Eh       1.08 kcal/mol
Thermal translational correction ...      0.00172503 Eh       1.08 kcal/mol
-----------------------------------------------------------------------
Total thermal energy                  -1468.08829188 Eh


Summary of corrections to the electronic energy:
(perhaps to be used in another calculation)
Total thermal correction                  0.04248774 Eh      26.66 kcal/mol
Non-thermal (ZPE) correction              0.38066942 Eh     238.87 kcal/mol
-----------------------------------------------------------------------
Total correction                          0.42315716 Eh     265.53 kcal/mol


--------
ENTHALPY
--------

The enthalpy is H = U + kB*T
                kB is Boltzmann's constant
Total thermal energy              ...  -1468.08829188 Eh 
Thermal Enthalpy correction       ...      0.00115006 Eh       0.72 kcal/mol
-----------------------------------------------------------------------
Total Enthalpy                    ...  -1468.08714182 Eh


Note: Only C1 symmetry has been detected, increase convergence thresholds 
      if your molecule has a higher symmetry. Symmetry factor of 1.0 is   
      used for the rotational entropy correction. 
 

Note: Rotational entropy computed according to Herzberg 
Infrared and Raman Spectra, Chapter V,1, Van Nostrand Reinhold, 1945 
Point Group:  C1, Symmetry Number:   1  
Rotational constants in cm-1:     0.006389     0.001723     0.001441 

Vibrational entropy computed according to the QRRHO of S. Grimme
Chem.Eur.J. 2012 18 9955 using a reference frequency of 100.0 cm-1


-------
ENTROPY
-------

The entropy contributions are T*S = T*(S(el)+S(vib)+S(rot)+S(trans))
     S(el)   - electronic entropy
     S(vib)  - vibrational entropy
     S(rot)  - rotational entropy
     S(trans)- translational entropy
The entropies will be listed as multiplied by the temperature to get
units of energy

Electronic entropy                ...      0.00079714 Eh      0.50 kcal/mol
Vibrational entropy               ...      0.07397637 Eh     46.42 kcal/mol
Rotational entropy                ...      0.02225113 Eh     13.96 kcal/mol
Translational entropy             ...      0.02600477 Eh     16.32 kcal/mol
-----------------------------------------------------------------------
Final entropy term                ...      0.12302941 Eh     77.20 kcal/mol

In case the symmetry of your molecule has not been determined correctly
or in case you have a reason to use a different symmetry number we print 
out the resulting rotational entropy values for sn=1,12:

 non-linear molecules -----------------------------------
|  sn= 1 | S(rot)=       0.02225113 Eh     13.96 kcal/mol|
|  sn= 2 | S(rot)=       0.02145400 Eh     13.46 kcal/mol|
|  sn= 3 | S(rot)=       0.02098770 Eh     13.17 kcal/mol|
|  sn= 4 | S(rot)=       0.02065686 Eh     12.96 kcal/mol|
|  sn= 5 | S(rot)=       0.02040024 Eh     12.80 kcal/mol|
|  sn= 6 | S(rot)=       0.02019057 Eh     12.67 kcal/mol|
|  sn= 7 | S(rot)=       0.02001329 Eh     12.56 kcal/mol|
|  sn= 8 | S(rot)=       0.01985973 Eh     12.46 kcal/mol|
|  sn= 9 | S(rot)=       0.01972427 Eh     12.38 kcal/mol|
|  sn=10 | S(rot)=       0.01960311 Eh     12.30 kcal/mol|
|  sn=11 | S(rot)=       0.01949350 Eh     12.23 kcal/mol|
|  sn=12 | S(rot)=       0.01939343 Eh     12.17 kcal/mol|
 linear molecules ---------------------------------------
|  Dinfh | S(rot)=       0.01423741 Eh      8.93 kcal/mol|
|  Cinfv | S(rot)=       0.01503455 Eh      9.43 kcal/mol|
 --------------------------------------------------------


-------------------
GIBBS FREE ENERGY
-------------------

The Gibbs free energy is G = H - T*S

Total enthalpy                    ...  -1468.08714182 Eh 
Total entropy correction          ...     -0.12302941 Eh    -77.20 kcal/mol
-----------------------------------------------------------------------
Final Gibbs free energy         ...  -1468.21017123 Eh

For completeness - the Gibbs free energy minus the electronic energy
G-E(el)                           ...      0.30127780 Eh    189.05 kcal/mol



--------------------------------
SUGGESTED CITATIONS FOR THIS RUN
--------------------------------

Below you find a list of papers that are relevant to this ORCA run
We neither can nor want to force you to cite these papers, but we appreciate if you do
You receive ORCA, which is the product of decades of hard work by many enthusiastic individuals, for free
The only thing we kindly ask in return is that you cite our papers,
We deeply appreciate it, if you show your appreciation for ORCA by not just citing the generic ORCA reference.

Please note that relegating all ORCA citations to the supporting information does *not* help us.
SI sections are not indexed - citations you put there will not count into any citation statistics
But we need these citations in order to attract the funding resources that allow us to do what we are doing

Therefore, if you are a happy ORCA user, please consider citing a few of the papers listed below in the main body of your paper

In addition to the list printed below, the program has created the file CURCUMIN-OPT-FREQ-Reag-WB97M-V-6-311G-D-363.bibtex that contains the list in bibtex format
You can import this file easily into all common literature databanks and citation aid programs


List of essential papers. We consider these as the minimum necessary citations

  1. Neese,F.
     Software update: the ORCA program system, version 5.0
     WIRES Comput. Molec. Sci., 2022 12(1)e1606
     doi.org/10.1002/wcms.1606

List of papers to cite with high priority. The work reported in these papers was absolutely
necessary for this run to complete.
Our perspective: the developers of density functionals and basis sets usually get cited in chemistry papers
Good! But without the algorithms to do something with them, the functionals or basis sets would not do anything.
Hence, in our opinion, the algorithm design and method developments papers are equally worthy of getting cited

  1. Neese,F.
     An improvement of the resolution of the identity approximation for the formation of the Coulomb matrix
     J. Comp. Chem., 2003 24(14)1740-1747
     doi.org/10.1002/jcc.10318
  2. Bykov,D.; Petrenko,T.; Izsak,R.; Kossmann,S.; Becker,U.; Valeev,E.; Neese,F.
     Efficient implementation of the analytic second derivatives of Hartree-Fock and hybrid DFT energies: a detailed analysis of different approximations
     Molec. Phys., 2015 113 1961-1977
     doi.org/10.1080/00268976.2015.1025114
  3. Garcia-Rates,M.; Neese,F.
     Effect of the Solute Cavity on the Solvation Energy and its Derivatives within the Framework of the Gaussian Charge Scheme
     J. Comput. Chem., 2020 41 922-939
     doi.org/10.1002/jcc.26139
  4. Neese,F.
     The SHARK Integral Generation and Digestion System
     J. Comp. Chem., 2022  1-16
     doi.org/10.1002/jcc.26942
  5. Lehtola,S.; Steigemann,C.; Oliveira,M.; Marques,M.
     Recent developments in Libxc - A comprehensive library of functionals for density functional theory
     Software X, 2018 7 
     doi.org/10.1016/j.softx.2017.11.002

List of suggested additional citations. These are papers that are important in the 'surrounding' of 
of this run, or papers that preceded the highly important papers. If you like your results we are grateful for a citation.

  1. Neese,F.
     The ORCA program system
     WIRES Comput. Molec. Sci., 2012 2(1)73-78
     doi.org/10.1002/wcms.81
  2. Neese,F.
     Software update: the ORCA program system, version 4.0
     WIRES Comput. Molec. Sci., 2018 8(1)1-6
     doi.org/10.1002/wcms.1327
  3. Neese,F.; Wennmohs,F.; Becker,U.; Riplinger,C.
     The ORCA quantum chemistry program package
     J. Chem. Phys., 2020 152 Art. No. L224108
     doi.org/10.1063/5.0004608

List of optional additional citations

  1. Neese,F.
     Approximate second-order SCF convergence for spin unrestricted wavefunctions
     Chem. Phys. Lett., 2000 325(1-3)93-98
     doi.org/10.1016/s0009-2614(00)00662-x

Timings for individual modules:

Sum of individual times          ...   145490.313 sec (=2424.839 min)
Startup calculation              ...       30.438 sec (=   0.507 min)   0.0 %
SCF iterations                   ...     3607.223 sec (=  60.120 min)   2.5 %
Property calculations            ...        0.189 sec (=   0.003 min)   0.0 %
SCF Gradient evaluation          ...      823.641 sec (=  13.727 min)   0.6 %
Geometry relaxation              ...        0.396 sec (=   0.007 min)   0.0 %
Numerical frequency calculation  ...   141028.426 sec (=2350.474 min)  96.9 %
                             ****ORCA TERMINATED NORMALLY****
TOTAL RUN TIME: 1 days 16 hours 19 minutes 50 seconds 596 msec
