
                                 *****************
                                 * O   R   C   A *
                                 *****************

                                            #,                                       
                                            ###                                      
                                            ####                                     
                                            #####                                    
                                            ######                                   
                                           ########,                                 
                                     ,,################,,,,,                         
                               ,,#################################,,                 
                          ,,##########################################,,             
                       ,#########################################, ''#####,          
                    ,#############################################,,   '####,        
                  ,##################################################,,,,####,       
                ,###########''''           ''''###############################       
              ,#####''   ,,,,##########,,,,          '''####'''          '####       
            ,##' ,,,,###########################,,,                        '##       
           ' ,,###''''                  '''############,,,                           
         ,,##''                                '''############,,,,        ,,,,,,###''
      ,#''                                            '''#######################'''  
     '                                                          ''''####''''         
             ,#######,   #######,   ,#######,      ##                                
            ,#'     '#,  ##    ##  ,#'     '#,    #''#        ,####,   ,####,        
            ##       ##  ##   ,#'  ##            #'  '#       #'       #'  '#        
            ##       ##  #######   ##           ,######,      #####,   #    #        
            '#,     ,#'  ##    ##  '#,     ,#' ,#      #,     #,   #   #,  ,#        
             '#######'   ##     ##  '#######'  #'      '#     '####' # '####'        



                #########################################################
                #                        -***-                          #
                #          Department of theory and spectroscopy        #
                #                                                       #
                #                      Frank Neese                      #
                #                                                       #
                #     Directorship, Architecture, Infrastructure        #
                #                    SHARK, DRIVERS                     #
                #        Core code/Algorithms in most modules           #
                #                                                       #
                #        Max Planck Institute fuer Kohlenforschung      #
                #                Kaiser Wilhelm Platz 1                 #
                #                 D-45470 Muelheim/Ruhr                 #
                #                      Germany                          #
                #                                                       #
                #                  All rights reserved                  #
                #                        -***-                          #
                #########################################################


                         Program Version 6.0.0  -   RELEASE  -


 With contributions from (in alphabetic order):
   Daniel Aravena         : Magnetic Suceptibility
   Michael Atanasov       : Ab Initio Ligand Field Theory (pilot matlab implementation)
   Alexander A. Auer      : GIAO ZORA, VPT2 properties, NMR spectrum
   Ute Becker             : All parallelization in ORCA, NUMFREQ, NUMCALC
   Giovanni Bistoni       : ED, misc. LED, open-shell LED, HFLD
   Martin Brehm           : Molecular dynamics
   Dmytro Bykov           : pre 5.0 version of the SCF Hessian
   Marcos Casanova-Páez   : Triplet and SCS-CIS(D). UHF-(DLPNO)-IP/EA/STEOM-CCSD. UHF-CVS-IP/STEOM-CCSD
   Vijay G. Chilkuri      : MRCI spin determinant printing, contributions to CSF-ICE
   Pauline Colinet        : FMM embedding
   Dipayan Datta          : RHF DLPNO-CCSD density
   Achintya Kumar Dutta   : EOM-CC, STEOM-CC
   Nicolas Foglia         : Exact transition moments, OPA infrastructure, MCD improvements
   Dmitry Ganyushin       : Spin-Orbit,Spin-Spin,Magnetic field MRCI
   Miquel Garcia          : C-PCM and meta-GGA Hessian, CCSD/C-PCM, Gaussian charge scheme
   Tiago L. C. Gouveia    : GS-ROHF, GS-ROCIS
   Yang Guo               : DLPNO-NEVPT2, F12-NEVPT2, CIM, IAO-localization
   Andreas Hansen         : Spin unrestricted coupled pair/coupled cluster methods
   Ingolf Harden          : AUTO-CI MPn and infrastructure 
   Benjamin Helmich-Paris : MC-RPA, TRAH-(SCF,CASSCF), AVAS, COSX integrals, SCF dyn. polar.
   Lee Huntington         : MR-EOM, pCC
   Robert Izsak           : Overlap fitted RIJCOSX, COSX-SCS-MP3, EOM
   Riya Kayal             : Wick's Theorem for AUTO-CI, AUTO-CI UHF-CCSDT
   Emily Kempfer          : AUTO-CI, RHF CISDT and CCSDT
   Christian Kollmar      : KDIIS, OOCD, Brueckner-CCSD(T), CCSD density, CASPT2, CASPT2-K, improved NEVPT2
   Axel Koslowski         : Symmetry handling
   Simone Kossmann        : Meta GGA functionals, TD-DFT gradient, OOMP2, (MP2 Hessian; deprecated post 5.0)
   Lucas Lang             : DCDCAS
   Marvin Lechner         : AUTO-CI (C++ implementation), FIC-MRCC
   Spencer Leger          : CASSCF response
   Dagmar Lenk            : GEPOL surface, SMD, ORCA-2-JSON
   Dimitrios Liakos       : Extrapolation schemes; Compound Job, initial MDCI parallelization
   Dimitrios Manganas     : Further ROCIS development; embedding schemes. LFT, Crystal Embedding
   Dimitrios Pantazis     : SARC Basis sets
   Anastasios Papadopoulos: AUTO-CI, single reference methods and gradients
   Taras Petrenko         : pre 6.0 DFT Hessian and TD-DFT gradient, (ASA, deprecated), ECA, 1-Electron XAS/XES, NRVS
   Peter Pinski           : DLPNO-MP2, DLPNO-MP2 Gradient
   Christoph Reimann      : Effective Core Potentials
   Marius Retegan         : Local ZFS, SOC
   Christoph Riplinger    : Optimizer, TS searches, QM/MM, DLPNO-CCSD(T), (RO)-DLPNO pert. Triples
   Michael Roemelt        : Original ROCIS implementation
   Masaaki Saitow         : Open-shell DLPNO-CCSD energy and density
   Barbara Sandhoefer     : DKH picture change effects
   Kantharuban Sivalingam : CASSCF convergence/infrastructure, NEVPT2 and variants, FIC-MRCI
   Bernardo de Souza      : ESD, SOC TD-DFT
   Georgi Stoychev        : AutoAux, RI-MP2 NMR, DLPNO-MP2 response, X2C
   Van Anh Tran           : RI-MP2 g-tensors
   Willem Van den Heuvel  : Paramagnetic NMR
   Zikuan Wang            : NOTCH, Electric field optimization 
   Frank Wennmohs         : Technical directorship and infrastructure
   Hang Xu                : AUTO-CI-Response properties 


 We gratefully acknowledge several colleagues who have allowed us to
 interface, adapt or use parts of their codes:
   Stefan Grimme, W. Hujo, H. Kruse, P. Pracht,  : VdW corrections, initial TS optimization,
                  C. Bannwarth, S. Ehlert,         DFT functionals, gCP, sTDA/sTD-DF
                  L. Wittmann, M. Mueller
   Ed Valeev, F. Pavosevic, A. Kumar             : LibInt (2-el integral package), F12 methods
   Garnet Chan, S. Sharma, J. Yang, R. Olivares  : DMRG
   Ulf Ekstrom                                   : XCFun DFT Library
   Mihaly Kallay                                 : mrcc  (arbitrary order and MRCC methods)
   Frank Weinhold                                : gennbo (NPA and NBO analysis)
   Simon Mueller                                 : openCOSMO-RS
   Christopher J. Cramer and Donald G. Truhlar   : smd solvation model
   Lars Goerigk                                  : TD-DFT with DH, B97 family of functionals
   V. Asgeirsson, H. Jonsson                     : NEB implementation
   FAccTs GmbH                                   : IRC, NEB, NEB-TS, DLPNO-Multilevel, CI-OPT
                                                   MM, QMMM, 2- and 3-layer-ONIOM, Crystal-QMMM,
                                                   LR-CPCM, SF, NACMEs, symmetry and pop. for TD-DFT,
                                                   nearIR, NL-DFT gradient (VV10), updates on ESD,
                                                   ML-optimized integration grids, MBIS, APM,
                                                   GOAT, DOCKER, SOLVATOR, interface openCOSMO-RS
   S Lehtola, MJT Oliveira, MAL Marques          : LibXC Library
   Liviu Ungur et al                             : ANISO software


 Your calculation uses the libint2 library for the computation of 2-el integrals
 For citations please refer to: http://libint.valeyev.net

 Your ORCA version has been built with support for libXC version: 6.2.2
 For citations please refer to: https://libxc.gitlab.io

 This ORCA versions uses:
   CBLAS   interface :  Fast vector & matrix operations
   LAPACKE interface :  Fast linear algebra routines
   SCALAPACK package :  Parallel linear algebra routines
   Shared memory     :  Shared parallel matrices
   BLAS/LAPACK       :  OpenBLAS 0.3.27  USE64BITINT DYNAMIC_ARCH NO_AFFINITY Cooperlake SINGLE_THREADED
        Core in use  :  Cooperlake
   Copyright (c) 2011-2014, The OpenBLAS Project


NOTE: MaxCore=2000 MB was set to SCF,MP2,MDCI,CIPSI,MRCI and CIS
      => If you want to overwrite this, your respective input block should be placed after the MaxCore statement
Your calculation utilizes the DFT-NL dispersion correction.
Cite in your paper:
Vydrov, O. A.; Van Voorhis, T. J. Chem. Phys. 2010, 133, 244103
Hujo, W.; Grimme, S. J. Chem. Theory Comput. 2011, 7, 3866 
   

Warning: RI is on but no J-basis has been assigned. Assigning Def2/J (nothing to worry about!)
================================================================================

----- Orbital basis set information -----
Your calculation utilizes the basis: 6-311+G(d)
   H, Li - Ne  : R. Krishnan, J. S. Binkley, R. Seeger and J. A. Pople, J. Chem. Phys. 72, 650 (1980).
   Na - Ar     : A. D. McLean and G. S. Chandler J. Chem. Phys. 72, 5639, (1980).
   K  - Ca     : J.-P. Blaudeau, M. P. McGrath, L. A. Curtiss and L. Radom, J. Chem. Phys. 107, 5016 (1997).
   Ga - Kr     : L. A. Curtiss, M. P. McGrath, J.-P. Blandeau, N. E. Davis, R. C. Binning and L. Radom, J. Chem. Phys. 103, 6104 (1995).
   Pol./Diff.
   H, Li - Cl  : T. Clark, J. Chandrasekhar and P. v. R. Schleyer, J. Comp. Chem. 4, 294 (1983).
   H - Ne      : M. J. Frisch, J. A. Pople and J. S. Binkley, J. Chem. Phys. 80, 3265 (1984).

----- AuxJ basis set information -----
Your calculation utilizes the auxiliary basis: def2/J
   F. Weigend, Phys. Chem. Chem. Phys. 8, 1057 (2006).

================================================================================
                                        WARNINGS
                       Please study these warnings very carefully!
================================================================================

Using LibXC functional ID 531 : wB97M-V exchange-correlation functional
[ 1]  N. Mardirossian and M. Head-Gordon.,  J. Chem. Phys. 144, 214110 (2016)
Using LibXC functional ID 531 : wB97M-V exchange-correlation functional
[ 1]  N. Mardirossian and M. Head-Gordon.,  J. Chem. Phys. 144, 214110 (2016)

WARNING: B97M-V or wB97M-V functional requested.
  ===> : libXC variant has now been activated.
         Any manually given DFX/HFX/RangeSep scaling parameters are IGNORED!

Your calculation utilizes LibXC
 by S Lehtola, C Steigemann, MJT Oliveira & MAL Marques
Please cite in your paper:
 S Lehtola, C Steigemann, MJT Oliveira & MAL Marques, SoftwareX, 7, (2018), 1.
   


WARNING: your system is open-shell and RHF/RKS was chosen
  ===> : WILL SWITCH to UHF/UKS


WARNING: Geometry Optimization
  ===> : Switching off AutoStart
         For restart on a previous wavefunction, please use MOREAD

WARNING: Analytic gradients for DFT-NL dispersion can only be done using the self-consistent method,
  ===>   Switching to SCNL

WARNING: Self-consistent DFT-NL dispersion not compatible with AutoTRAH.
  ===>   Switching AutoTRAH off


================================================================================
                                       INPUT FILE
================================================================================
NAME = CURCUMIN-OPT-FREQ-TS-M06-2X-6-311+G-D-298-cont.inp
|  1> # 
|  2> ! OptTS NumFreq wb97M-V 6-311+G(d) CPCM RIJDX
|  3> %maxcore 2000
|  4> %cpcm
|  5> epsilon 7 # Dielectric constant
|  6> refrac 1.85341 # Refractive index
|  7> end
|  8> 
|  9> * xyz 0 2
| 10>    C      1.929350    1.744682    1.125967
| 11>    H      1.788570    2.817023    1.019732
| 12>    C      1.199994    1.057529    2.014878
| 13>    H      1.371946    0.002979    2.214946
| 14>    C      0.133943    1.663852    2.839073
| 15>    O     -0.293409    1.074079    3.816587
| 16>    C      2.979534    1.181665    0.274325
| 17>    C      4.075275    1.960945   -0.078374
| 18>    C      3.005031   -0.167726   -0.146347
| 19>    C      5.120845    1.454418   -0.843422
| 20>    H      4.115596    2.990851    0.259989
| 21>    C      3.988713   -0.668338   -1.011069
| 22>    H      3.644809   -0.867012    1.465208
| 23>    C      5.081535    0.146992   -1.319608
| 24>    H      5.962548    2.089281   -1.102140
| 25>    O      6.033531   -0.391787   -2.116140
| 26>    H      6.730067    0.251840   -2.298393
| 27>    O      3.847376   -1.904156   -1.555208
| 28>    C      4.656772   -2.920790   -0.927806
| 29>    H      4.356480   -3.040904    0.114871
| 30>    H      4.463518   -3.837662   -1.479159
| 31>    H      5.713526   -2.659289   -0.994690
| 32>    C     -2.475497    1.249011    1.157297
| 33>    H     -2.354204    1.256722    2.238222
| 34>    C     -1.795064    2.137892    0.415797
| 35>    H     -1.906632    2.194086   -0.663220
| 36>    C     -0.856213    3.120951    0.975000
| 37>    O     -0.401342    4.011050    0.272027
| 38>    C     -3.408549    0.232736    0.665323
| 39>    C     -4.052782   -0.591774    1.590657
| 40>    C     -3.677796    0.042786   -0.698260
| 41>    C     -4.938034   -1.579785    1.176583
| 42>    H     -3.856251   -0.463633    2.650633
| 43>    C     -4.556072   -0.935532   -1.119784
| 44>    H     -3.199950    0.648044   -1.461450
| 45>    C     -5.193002   -1.761604   -0.178350
| 46>    H     -5.428407   -2.221185    1.903314
| 47>    O     -6.031801   -2.715846   -0.657819
| 48>    H     -6.398647   -3.236468    0.067785
| 49>    O     -4.768139   -1.134040   -2.462844
| 50>    C     -6.014484   -0.596517   -2.923557
| 51>    H     -6.033763    0.487493   -2.779161
| 52>    H     -6.076910   -0.826501   -3.985416
| 53>    H     -6.854221   -1.055842   -2.397889
| 54>    C     -0.434798    3.018238    2.438489
| 55>    H     -1.288029    3.222193    3.089853
| 56>    H      0.314211    3.794705    2.615854
| 57>    O      1.748576   -2.053183    0.416531
| 58>    O      0.796613   -0.489762   -0.720312
| 59>    N      1.746211   -0.970885   -0.132544
| 60> *
| 61> 
| 62> 
| 63> 
| 64>                          ****END OF INPUT****
================================================================================

                       *****************************
                       * Geometry Optimization Run *
                       *****************************

Geometry optimization settings:
Update method            Update   .... Bofill
Choice of coordinates    CoordSys .... (2022) Redundant Internals
Initial Hessian          InHess   .... Almloef's Model
Max. no of cycles        MaxIter  .... 150

Convergence Tolerances:
Energy Change            TolE     ....  5.0000e-06 Eh
Max. Gradient            TolMAXG  ....  3.0000e-04 Eh/bohr
RMS Gradient             TolRMSG  ....  1.0000e-04 Eh/bohr
Max. Displacement        TolMAXD  ....  4.0000e-03 bohr
RMS Displacement         TolRMSD  ....  2.0000e-03 bohr
Strict Convergence                .... False

------------------------------------------------------------------------------
                        ORCA OPTIMIZATION COORDINATE SETUP
------------------------------------------------------------------------------

The optimization will be done in redundant internal coordinates (2022)
Making redundant internal coordinates   ...  (2022 redundants) done
Following TS mode number                ...     0
Evaluating the initial hessian          ...  (Almloef) done
Evaluating the coordinates              ...  done
Calculating the B-matrix                .... done
Calculating the G-matrix                .... done
Diagonalizing the G-matrix              .... done
Small eigenvalue found = 1.125e-03
Small eigenvalue found = 1.902e-03
Small eigenvalue found = 6.474e-03
Small eigenvalue found = 8.100e-03
Small eigenvalue found = 9.474e-03
Small eigenvalue found = 1.479e-02
Small eigenvalue found = 1.739e-02
Small eigenvalue found = 2.742e-02
Small eigenvalue found = 2.880e-02
The first mode is                       ....   93
The number of degrees of freedom        ....  144

    -----------------------------------------------------------------
                    Redundant Internal Coordinates


    -----------------------------------------------------------------
         Definition                    Initial Value    Approx d2E/dq
    -----------------------------------------------------------------
      1. B(H   1,C   0)                  1.0867         0.364428   
      2. B(C   2,C   0)                  1.3395         0.752113   
      3. B(H   3,C   2)                  1.0870         0.364028   
      4. B(C   4,C   2)                  1.4776         0.452825   
      5. B(O   5,C   4)                  1.2190         1.048751   
      6. B(C   6,C   0)                  1.4646         0.474959   
      7. B(C   7,C   6)                  1.3901         0.624613   
      8. B(C   8,C   6)                  1.4137         0.572756   
      9. B(C   9,C   7)                  1.3911         0.622338   
     10. B(H  10,C   7)                  1.0848         0.367026   
     11. B(C  11,C   8)                  1.4021         0.597552   
     12. B(H  12,C   8)                  1.8696         0.020541   
     13. B(C  13,C  11)                  1.3979         0.606849   
     14. B(C  13,C   9)                  1.3920         0.620225   
     15. B(H  14,C   9)                  1.0856         0.366016   
     16. B(O  15,C  13)                  1.3532         0.640695   
     17. B(H  16,O  15)                  0.9657         0.509126   
     18. B(O  17,C  11)                  1.3577         0.630132   
     19. B(C  18,O  17)                  1.4430         0.460563   
     20. B(H  19,C  18)                  1.0917         0.357877   
     21. B(H  20,C  18)                  1.0872         0.363831   
     22. B(H  21,C  18)                  1.0907         0.359200   
     23. B(H  23,C  22)                  1.0877         0.363107   
     24. B(C  24,C  22)                  1.3427         0.743287   
     25. B(H  25,C  24)                  1.0862         0.365130   
     26. B(C  26,C  24)                  1.4699         0.465899   
     27. B(O  27,C  26)                  1.2220         1.037200   
     28. B(C  28,C  22)                  1.4647         0.474798   
     29. B(C  29,C  28)                  1.3968         0.609345   
     30. B(C  30,C  28)                  1.4028         0.596030   
     31. B(C  31,C  29)                  1.3897         0.625462   
     32. B(H  32,C  29)                  1.0856         0.365927   
     33. B(C  33,C  30)                  1.3806         0.646662   
     34. B(H  34,C  30)                  1.0850         0.366833   
     35. B(C  35,C  33)                  1.4051         0.591030   
     36. B(C  35,C  31)                  1.3907         0.623304   
     37. B(H  36,C  31)                  1.0863         0.365059   
     38. B(O  37,C  35)                  1.3580         0.629499   
     39. B(H  38,O  37)                  0.9655         0.509620   
     40. B(O  39,C  33)                  1.3741         0.593228   
     41. B(C  40,O  39)                  1.4334         0.477171   
     42. B(H  41,C  40)                  1.0938         0.355167   
     43. B(H  42,C  40)                  1.0883         0.362394   
     44. B(H  43,C  40)                  1.0920         0.357464   
     45. B(C  44,C  26)                  1.5264         0.378528   
     46. B(C  44,C   4)                  1.5226         0.383877   
     47. B(H  45,C  44)                  1.0926         0.356616   
     48. B(H  46,C  44)                  1.0933         0.355720   
     49. B(O  48,H  34)                  4.2209         0.000003   
     50. B(N  49,O  48)                  1.2160         0.949725   
     51. B(N  49,O  47)                  1.2136         0.958133   
     52. B(N  49,C   8)                  1.4933         0.382913   
     53. A(H   1,C   0,C   2)          120.0345         0.365450   
     54. A(H   1,C   0,C   6)          114.5416         0.338134   
     55. A(C   2,C   0,C   6)          125.3863         0.428387   
     56. A(C   0,C   2,C   4)          123.5374         0.424741   
     57. A(H   3,C   2,C   4)          114.1755         0.335396   
     58. A(C   0,C   2,H   3)          122.2528         0.365381   
     59. A(O   5,C   4,C  44)          120.6894         0.434827   
     60. A(C   2,C   4,C  44)          119.1924         0.377332   
     61. A(C   2,C   4,O   5)          120.1111         0.448001   
     62. A(C   0,C   6,C   7)          119.8173         0.414413   
     63. A(C   0,C   6,C   8)          123.5654         0.408092   
     64. A(C   7,C   6,C   8)          116.4483         0.428500   
     65. A(C   6,C   7,H  10)          118.8413         0.354494   
     66. A(C   9,C   7,H  10)          119.2946         0.354275   
     67. A(C   6,C   7,C   9)          121.8629         0.434940   
     68. A(C  11,C   8,H  12)           99.0897         0.225870   
     69. A(C   6,C   8,H  12)           96.1246         0.224563   
     70. A(C   6,C   8,C  11)          122.4778         0.425114   
     71. A(H  12,C   8,N  49)           94.5502         0.211737   
     72. A(C   6,C   8,N  49)          119.6986         0.390406   
     73. A(C  11,C   8,N  49)          113.8960         0.393311   
     74. A(C   7,C   9,C  13)          120.5916         0.434388   
     75. A(C  13,C   9,H  14)          119.3182         0.353906   
     76. A(C   7,C   9,H  14)          120.0599         0.354110   
     77. A(C   8,C  11,C  13)          118.4451         0.429541   
     78. A(C   8,C  11,O  17)          119.9421         0.429629   
     79. A(C  13,C  11,O  17)          121.5882         0.430822   
     80. A(C   9,C  13,C  11)          119.6287         0.432424   
     81. A(C  11,C  13,O  15)          116.5948         0.432110   
     82. A(C   9,C  13,O  15)          123.7433         0.433808   
     83. A(C  13,O  15,H  16)          110.6803         0.370867   
     84. A(C  11,O  17,C  18)          114.1191         0.407492   
     85. A(H  20,C  18,H  21)          110.0796         0.291196   
     86. A(H  19,C  18,H  21)          110.5770         0.290443   
     87. A(O  17,C  18,H  21)          110.3577         0.333568   
     88. A(H  19,C  18,H  20)          110.0404         0.291027   
     89. A(O  17,C  18,H  20)          105.8995         0.334278   
     90. A(O  17,C  18,H  19)          109.7850         0.333363   
     91. A(C  24,C  22,C  28)          126.6294         0.427455   
     92. A(H  23,C  22,C  28)          114.1878         0.337910   
     93. A(H  23,C  22,C  24)          119.1813         0.364486   
     94. A(H  25,C  24,C  26)          114.1371         0.337158   
     95. A(C  22,C  24,C  26)          123.8022         0.426009   
     96. A(C  22,C  24,H  25)          122.0573         0.364832   
     97. A(C  24,C  26,O  27)          120.4005         0.449417   
     98. A(O  27,C  26,C  44)          119.8535         0.432867   
     99. A(C  24,C  26,C  44)          119.7419         0.378275   
    100. A(C  29,C  28,C  30)          118.3904         0.429661   
    101. A(C  22,C  28,C  30)          122.8672         0.410957   
    102. A(C  22,C  28,C  29)          118.7406         0.412571   
    103. A(C  31,C  29,H  32)          119.3503         0.354396   
    104. A(C  28,C  29,H  32)          119.5800         0.352832   
    105. A(C  28,C  29,C  31)          121.0689         0.433398   
    106. A(C  33,C  30,H  34)          117.4329         0.356555   
    107. A(C  28,C  30,H  34)          121.5794         0.351663   
    108. A(C  28,C  30,C  33)          120.9849         0.434275   
    109. A(C  35,C  31,H  36)          119.4631         0.354046   
    110. A(C  29,C  31,H  36)          120.5312         0.354253   
    111. A(C  29,C  31,C  35)          120.0031         0.435168   
    112. A(C  35,C  33,O  39)          119.9982         0.424175   
    113. A(C  30,C  33,O  39)          119.9308         0.431069   
    114. A(C  30,C  33,C  35)          120.0253         0.433617   
    115. A(C  33,C  35,O  37)          117.1646         0.428707   
    116. A(C  31,C  35,O  37)          123.3078         0.432820   
    117. A(C  31,C  35,C  33)          119.5261         0.430760   
    118. A(C  35,O  37,H  38)          110.3816         0.369806   
    119. A(C  33,O  39,C  40)          113.2144         0.405700   
    120. A(H  41,C  40,H  43)          109.8631         0.289876   
    121. A(O  39,C  40,H  43)          110.8663         0.335266   
    122. A(H  41,C  40,H  42)          109.7094         0.290500   
    123. A(O  39,C  40,H  42)          106.5138         0.336031   
    124. A(O  39,C  40,H  41)          110.1548         0.334907   
    125. A(H  42,C  40,H  43)          109.6757         0.290794   
    126. A(H  45,C  44,H  46)          107.7997         0.289839   
    127. A(C  26,C  44,H  46)          107.2705         0.324369   
    128. A(C   4,C  44,H  46)          109.4600         0.325117   
    129. A(C  26,C  44,H  45)          110.0848         0.324503   
    130. A(C   4,C  44,H  45)          107.5110         0.325252   
    131. A(C   4,C  44,C  26)          114.5338         0.365870   
    132. A(O  47,N  49,O  48)          124.9633         0.494611   
    133. A(C   8,N  49,O  48)          116.1696         0.421364   
    134. A(C   8,N  49,O  47)          118.8287         0.422027   
    135. D(C   4,C   2,C   0,C   6)   -178.9885         0.040363   
    136. D(H   3,C   2,C   0,C   6)      3.2674         0.040363   
    137. D(C   4,C   2,C   0,H   1)      3.3666         0.040363   
    138. D(H   3,C   2,C   0,H   1)   -174.3775         0.040363   
    139. D(C  44,C   4,C   2,C   0)     16.6941         0.013974   
    140. D(O   5,C   4,C   2,H   3)     13.6385         0.013974   
    141. D(O   5,C   4,C   2,C   0)   -164.2704         0.013974   
    142. D(C  44,C   4,C   2,H   3)   -165.3970         0.013974   
    143. D(C   8,C   6,C   0,C   2)     27.5056         0.015359   
    144. D(C   8,C   6,C   0,H   1)   -154.7357         0.015359   
    145. D(C   7,C   6,C   0,H   1)     30.1606         0.015359   
    146. D(C   7,C   6,C   0,C   2)   -147.5981         0.015359   
    147. D(H  10,C   7,C   6,C   0)     -2.0208         0.027021   
    148. D(C   9,C   7,C   6,C   8)      2.1252         0.027021   
    149. D(C   9,C   7,C   6,C   0)    177.5691         0.027021   
    150. D(H  10,C   7,C   6,C   8)   -177.4647         0.027021   
    151. D(N  49,C   8,C   6,C   7)   -164.0252         0.024443   
    152. D(N  49,C   8,C   6,C   0)     20.7192         0.024443   
    153. D(H  12,C   8,C   6,C   0)    -78.0847         0.024443   
    154. D(C  11,C   8,C   6,C   0)    177.0441         0.024443   
    155. D(C  11,C   8,C   6,C   7)     -7.7003         0.024443   
    156. D(H  14,C   9,C   7,H  10)     -0.4229         0.026813   
    157. D(C  13,C   9,C   7,H  10)   -178.4062         0.026813   
    158. D(H  14,C   9,C   7,C   6)    179.9891         0.026813   
    159. D(C  13,C   9,C   7,C   6)      2.0058         0.026813   
    160. D(O  17,C  11,C   8,N  49)    -11.6948         0.026727   
    161. D(O  17,C  11,C   8,C   6)   -169.2678         0.026727   
    162. D(C  13,C  11,C   8,H  12)    -94.3355         0.026727   
    163. D(C  13,C  11,C   8,N  49)    166.5297         0.026727   
    164. D(C  13,C  11,C   8,C   6)      8.9567         0.026727   
    165. D(C  11,C  13,C   9,C   7)     -0.8170         0.026620   
    166. D(O  15,C  13,C  11,O  17)     -4.2589         0.025419   
    167. D(O  15,C  13,C  11,C   8)    177.5472         0.025419   
    168. D(C   9,C  13,C  11,O  17)    173.7252         0.025419   
    169. D(C   9,C  13,C  11,C   8)     -4.4687         0.025419   
    170. D(O  15,C  13,C   9,H  14)     -0.9830         0.026620   
    171. D(O  15,C  13,C   9,C   7)    177.0151         0.026620   
    172. D(C  11,C  13,C   9,H  14)   -178.8151         0.026620   
    173. D(H  16,O  15,C  13,C  11)    178.0564         0.030267   
    174. D(H  16,O  15,C  13,C   9)      0.1637         0.030267   
    175. D(C  18,O  17,C  11,C  13)     79.2014         0.029202   
    176. D(C  18,O  17,C  11,C   8)   -102.6313         0.029202   
    177. D(H  21,C  18,O  17,C  11)    -59.3145         0.016711   
    178. D(H  20,C  18,O  17,C  11)   -178.4226         0.016711   
    179. D(H  19,C  18,O  17,C  11)     62.8179         0.016711   
    180. D(C  26,C  24,C  22,C  28)   -179.0567         0.039332   
    181. D(C  26,C  24,C  22,H  23)      1.4209         0.039332   
    182. D(H  25,C  24,C  22,C  28)      1.6483         0.039332   
    183. D(H  25,C  24,C  22,H  23)   -177.8742         0.039332   
    184. D(C  44,C  26,C  24,H  25)   -170.4561         0.014782   
    185. D(C  44,C  26,C  24,C  22)     10.1986         0.014782   
    186. D(O  27,C  26,C  24,H  25)      8.8093         0.014782   
    187. D(O  27,C  26,C  24,C  22)   -170.5360         0.014782   
    188. D(C  30,C  28,C  22,C  24)      1.9215         0.015349   
    189. D(C  30,C  28,C  22,H  23)   -178.5356         0.015349   
    190. D(C  29,C  28,C  22,C  24)   -178.5677         0.015349   
    191. D(C  29,C  28,C  22,H  23)      0.9753         0.015349   
    192. D(H  32,C  29,C  28,C  30)    179.8096         0.025641   
    193. D(H  32,C  29,C  28,C  22)      0.2766         0.025641   
    194. D(C  31,C  29,C  28,C  30)      0.1247         0.025641   
    195. D(C  31,C  29,C  28,C  22)   -179.4083         0.025641   
    196. D(C  33,C  30,C  28,C  29)     -0.0940         0.024473   
    197. D(C  33,C  30,C  28,C  22)    179.4185         0.024473   
    198. D(H  34,C  30,C  28,C  29)   -179.4691         0.024473   
    199. D(H  34,C  30,C  28,C  22)      0.0434         0.024473   
    200. D(H  36,C  31,C  29,H  32)     -0.1607         0.027099   
    201. D(H  36,C  31,C  29,C  28)    179.5249         0.027099   
    202. D(C  35,C  31,C  29,H  32)   -179.5761         0.027099   
    203. D(C  35,C  31,C  29,C  28)      0.1095         0.027099   
    204. D(O  39,C  33,C  30,H  34)      1.6898         0.029095   
    205. D(O  39,C  33,C  30,C  28)   -177.7103         0.029095   
    206. D(C  35,C  33,C  30,H  34)    179.2314         0.029095   
    207. D(C  35,C  33,C  30,C  28)     -0.1687         0.029095   
    208. D(O  37,C  35,C  33,O  39)     -1.6224         0.024043   
    209. D(O  37,C  35,C  33,C  30)   -179.1623         0.024043   
    210. D(C  31,C  35,C  33,O  39)    177.9425         0.024043   
    211. D(C  31,C  35,C  33,C  30)      0.4026         0.024043   
    212. D(O  37,C  35,C  31,H  36)     -0.2572         0.026901   
    213. D(O  37,C  35,C  31,C  29)    179.1645         0.026901   
    214. D(C  33,C  35,C  31,H  36)   -179.7940         0.026901   
    215. D(C  33,C  35,C  31,C  29)     -0.3723         0.026901   
    216. D(H  38,O  37,C  35,C  33)    178.7510         0.029139   
    217. D(H  38,O  37,C  35,C  31)     -0.7960         0.029139   
    218. D(C  40,O  39,C  33,C  35)     78.7406         0.025665   
    219. D(C  40,O  39,C  33,C  30)   -103.7171         0.025665   
    220. D(H  43,C  40,O  39,C  33)    -59.8397         0.017957   
    221. D(H  42,C  40,O  39,C  33)   -179.1043         0.017957   
    222. D(H  41,C  40,O  39,C  33)     61.9801         0.017957   
    223. D(H  46,C  44,C  26,C  24)    175.8793         0.010697   
    224. D(H  45,C  44,C  26,O  27)    113.6446         0.010697   
    225. D(H  45,C  44,C  26,C  24)    -67.0859         0.010697   
    226. D(C   4,C  44,C  26,O  27)   -125.0861         0.010697   
    227. D(C   4,C  44,C  26,C  24)     54.1834         0.010697   
    228. D(H  46,C  44,C   4,C   2)    -70.4940         0.010983   
    229. D(H  45,C  44,C   4,O   5)     -6.3601         0.010983   
    230. D(H  45,C  44,C   4,C   2)    172.6696         0.010983   
    231. D(C  26,C  44,C   4,O   5)   -129.0332         0.010983   
    232. D(C  26,C  44,C   4,C   2)     49.9965         0.010983   
    233. D(O  48,N  49,C   8,C  11)   -104.9997         0.012548   
    234. D(O  48,N  49,C   8,C   6)     53.2534         0.012548   
    235. D(O  47,N  49,C   8,H  12)    -29.1818         0.012548   
    236. D(O  47,N  49,C   8,C  11)     72.8584         0.012548   
    237. D(O  47,N  49,C   8,C   6)   -128.8885         0.012548   
    -----------------------------------------------------------------

Number of atoms                         .... 50
Number of degrees of freedom            .... 237


         *************************************************************
         *                GEOMETRY OPTIMIZATION CYCLE   1            *
         *************************************************************
---------------------------------
CARTESIAN COORDINATES (ANGSTROEM)
---------------------------------
  C      1.929350    1.744682    1.125967
  H      1.788570    2.817023    1.019732
  C      1.199994    1.057529    2.014878
  H      1.371946    0.002979    2.214946
  C      0.133943    1.663852    2.839073
  O     -0.293409    1.074079    3.816587
  C      2.979534    1.181665    0.274325
  C      4.075275    1.960945   -0.078374
  C      3.005031   -0.167726   -0.146347
  C      5.120845    1.454418   -0.843422
  H      4.115596    2.990851    0.259989
  C      3.988713   -0.668338   -1.011069
  H      3.644809   -0.867012    1.465208
  C      5.081535    0.146992   -1.319608
  H      5.962548    2.089281   -1.102140
  O      6.033531   -0.391787   -2.116140
  H      6.730067    0.251840   -2.298393
  O      3.847376   -1.904156   -1.555208
  C      4.656772   -2.920790   -0.927806
  H      4.356480   -3.040904    0.114871
  H      4.463518   -3.837662   -1.479159
  H      5.713526   -2.659289   -0.994690
  C     -2.475497    1.249011    1.157297
  H     -2.354204    1.256722    2.238222
  C     -1.795064    2.137892    0.415797
  H     -1.906632    2.194086   -0.663220
  C     -0.856213    3.120951    0.975000
  O     -0.401342    4.011050    0.272027
  C     -3.408549    0.232736    0.665323
  C     -4.052782   -0.591774    1.590657
  C     -3.677796    0.042786   -0.698260
  C     -4.938034   -1.579785    1.176583
  H     -3.856251   -0.463633    2.650633
  C     -4.556072   -0.935532   -1.119784
  H     -3.199950    0.648044   -1.461450
  C     -5.193002   -1.761604   -0.178350
  H     -5.428407   -2.221185    1.903314
  O     -6.031801   -2.715846   -0.657819
  H     -6.398647   -3.236468    0.067785
  O     -4.768139   -1.134040   -2.462844
  C     -6.014484   -0.596517   -2.923557
  H     -6.033763    0.487493   -2.779161
  H     -6.076910   -0.826501   -3.985416
  H     -6.854221   -1.055842   -2.397889
  C     -0.434798    3.018238    2.438489
  H     -1.288029    3.222193    3.089853
  H      0.314211    3.794705    2.615854
  O      1.748576   -2.053183    0.416531
  O      0.796613   -0.489762   -0.720312
  N      1.746211   -0.970885   -0.132544

----------------------------
CARTESIAN COORDINATES (A.U.)
----------------------------
  NO LB      ZA    FRAG     MASS         X           Y           Z
   0 C     6.0000    0    12.011    3.645943    3.296971    2.127769
   1 H     1.0000    0     1.008    3.379907    5.323402    1.927014
   2 C     6.0000    0    12.011    2.267660    1.998440    3.807568
   3 H     1.0000    0     1.008    2.592602    0.005629    4.185641
   4 C     6.0000    0    12.011    0.253116    3.144225    5.365070
   5 O     8.0000    0    15.999   -0.554463    2.029715    7.212304
   6 C     6.0000    0    12.011    5.630503    2.233023    0.518399
   7 C     6.0000    0    12.011    7.701154    3.705649   -0.148105
   8 C     6.0000    0    12.011    5.678686   -0.316956   -0.276556
   9 C     6.0000    0    12.011    9.676995    2.748452   -1.593837
  10 H     1.0000    0     1.008    7.777349    5.651889    0.491308
  11 C     6.0000    0    12.011    7.537575   -1.262976   -1.910644
  12 H     1.0000    0     1.008    6.887691   -1.638415    2.768842
  13 C     6.0000    0    12.011    9.602709    0.277775   -2.493698
  14 H     1.0000    0     1.008   11.267583    3.948169   -2.082743
  15 O     8.0000    0    15.999   11.401721   -0.740370   -3.998925
  16 H     1.0000    0     1.008   12.717983    0.475909   -4.343333
  17 O     8.0000    0    15.999    7.270487   -3.598333   -2.938917
  18 C     6.0000    0    12.011    8.800024   -5.519493   -1.753299
  19 H     1.0000    0     1.008    8.232554   -5.746476    0.217075
  20 H     1.0000    0     1.008    8.434827   -7.252130   -2.795205
  21 H     1.0000    0     1.008   10.796999   -5.025328   -1.879692
  22 C     6.0000    0    12.011   -4.678011    2.360289    2.186974
  23 H     1.0000    0     1.008   -4.448801    2.374860    4.229627
  24 C     6.0000    0    12.011   -3.392179    4.040030    0.785742
  25 H     1.0000    0     1.008   -3.603012    4.146222   -1.253304
  26 C     6.0000    0    12.011   -1.618008    5.897743    1.842483
  27 O     8.0000    0    15.999   -0.758426    7.579786    0.514057
  28 C     6.0000    0    12.011   -6.441224    0.439807    1.257278
  29 C     6.0000    0    12.011   -7.658648   -1.118291    3.005906
  30 C     6.0000    0    12.011   -6.950027    0.080854   -1.319520
  31 C     6.0000    0    12.011   -9.331532   -2.985361    2.223420
  32 H     1.0000    0     1.008   -7.287258   -0.876139    5.008970
  33 C     6.0000    0    12.011   -8.609728   -1.767899   -2.116085
  34 H     1.0000    0     1.008   -6.047029    1.224626   -2.761740
  35 C     6.0000    0    12.011   -9.813352   -3.328949   -0.337033
  36 H     1.0000    0     1.008  -10.258203   -4.197431    3.596742
  37 O     8.0000    0    15.999  -11.398452   -5.132205   -1.243098
  38 H     1.0000    0     1.008  -12.091690   -6.116038    0.128095
  39 O     8.0000    0    15.999   -9.010477   -2.143025   -4.654101
  40 C     6.0000    0    12.011  -11.365728   -1.127254   -5.524722
  41 H     1.0000    0     1.008  -11.402160    0.921228   -5.251853
  42 H     1.0000    0     1.008  -11.483696   -1.561861   -7.531345
  43 H     1.0000    0     1.008  -12.952601   -1.995252   -4.531354
  44 C     6.0000    0    12.011   -0.821649    5.703643    4.608076
  45 H     1.0000    0     1.008   -2.434022    6.089062    5.838976
  46 H     1.0000    0     1.008    0.593773    7.170953    4.943248
  47 O     8.0000    0    15.999    3.304330   -3.879954    0.787130
  48 O     8.0000    0    15.999    1.505380   -0.925516   -1.361192
  49 N     7.0000    0    14.007    3.299861   -1.834707   -0.250472

--------------------------------
INTERNAL COORDINATES (ANGSTROEM)
--------------------------------
 C      0   0   0     0.000000000000     0.00000000     0.00000000
 H      1   0   0     1.086747488567     0.00000000     0.00000000
 C      1   2   0     1.339515653535   120.03452025     0.00000000
 H      3   1   2     1.087046639951   122.25283766   185.62247723
 C      3   1   2     1.477629761799   123.53738195     3.36661752
 O      5   3   1     1.219014168756   120.11107544   195.72956710
 C      1   2   3     1.464639434233   114.54164239   182.11060769
 C      7   1   2     1.390079940896   119.81728756    30.16061784
 C      7   1   2     1.413672911063   123.56544443   205.26426531
 C      8   7   1     1.391073207611   121.86288830   177.56905775
 H      8   7   1     1.084814118477   118.84129042   357.97923033
 C      9   7   1     1.402136508672   122.47777726   177.04407081
 H      9   7   1     1.869605925618    96.12462453   281.91525078
 C     10   8   7     1.391998968452   120.59163232     2.00580581
 H     10   8   7     1.085564356684   120.05986862   179.98905614
 O     14  10   8     1.353160161208   123.74331890   177.01511660
 H     16  14  10     0.965729915884   110.68034857     0.16373989
 O     12   9   7     1.357685356780   119.94210030   190.73224892
 C     18  12   9     1.443017617486   114.11912161   257.36866056
 H     19  18  12     1.091685845190   109.78504854    62.81790210
 H     19  18  12     1.087194326470   105.89946546   181.57740953
 H     19  18  12     1.090681098659   110.35769696   300.68549154
 C      5   3   1     3.132034591612   104.31339952    92.03428154
 H     23   5   3     1.087736322366    51.13851234   146.87412992
 C     23   5   3     1.342728844425    77.68099495   291.64933029
 H     25  23   5     1.086224134582   122.05730602   151.16771848
 C     25  23   5     1.469882373828   123.80223160   330.46273682
 O     27  25  23     1.222029007500   120.40050978   189.46399525
 C     23   5   3     1.464731827675   143.41524795    68.57145745
 C     29  23   5     1.396816347966   118.74064409    57.68258442
 C     29  23   5     1.402830548355   122.86717429   238.17174662
 C     30  29  23     1.389710083831   121.06890807   180.59171834
 H     30  29  23     1.085630540478   119.58001341     0.27663634
 C     31  29  23     1.380636564732   120.98489651   179.41847836
 H     31  29  23     1.084957613172   121.57935643     0.04340708
 C     32  30  29     1.390651021743   120.00314120     0.10949321
 H     32  30  29     1.086276937751   120.53121502   179.52490970
 O     36  32  30     1.357958791321   123.30777688   179.16446150
 H     38  36  32     0.965465907951   110.38158039   359.20396866
 O     34  31  29     1.374113533211   119.93075354   182.28966126
 C     40  34  31     1.433374794994   113.21441641   256.28287843
 H     41  40  34     1.093754801021   110.15477917    61.98008954
 H     41  40  34     1.088271189370   106.51376118   180.89568702
 H     41  40  34     1.092000243140   110.86629012   300.16027106
 C      5   3   1     1.522594924178   119.19244125    16.69412274
 H     45   5   3     1.092646256518   107.51096905   172.66962517
 H     45   5   3     1.093331526754   109.46004953   289.50603614
 O      9   7   1     2.334621791374   133.58517048   351.42007163
 O     48   9   7     2.154746106449    61.61382051    70.20772386
 N     48   9   7     1.213613575095    34.08015834    68.97479263

---------------------------
INTERNAL COORDINATES (A.U.)
---------------------------
 C      0   0   0     0.000000000000     0.00000000     0.00000000
 H      1   0   0     2.053655130118     0.00000000     0.00000000
 C      1   2   0     2.531317737282   120.03452025     0.00000000
 H      3   1   2     2.054220444306   122.25283766   185.62247723
 C      3   1   2     2.792315577132   123.53738195     3.36661752
 O      5   3   1     2.303602932319   120.11107544   195.72956710
 C      1   2   3     2.767767415641   114.54164239   182.11060769
 C      7   1   2     2.626870392551   119.81728756    30.16061784
 C      7   1   2     2.671454644853   123.56544443   205.26426531
 C      8   7   1     2.628747394620   121.86288830   177.56905775
 H      8   7   1     2.050001590132   118.84129042   357.97923033
 C      9   7   1     2.649654003763   122.47777726   177.04407081
 H      9   7   1     3.533043177774    96.12462453   281.91525078
 C     10   8   7     2.630496829076   120.59163232     2.00580581
 H     10   8   7     2.051419334879   120.05986862   179.98905614
 O     14  10   8     2.557102120016   123.74331890   177.01511660
 H     16  14  10     1.824965060356   110.68034857     0.16373989
 O     12   9   7     2.565653500349   119.94210030   190.73224892
 C     18  12   9     2.726908103473   114.11912161   257.36866056
 H     19  18  12     2.062987271688   109.78504854    62.81790210
 H     19  18  12     2.054499531382   105.89946546   181.57740953
 H     19  18  12     2.061088575911   110.35769696   300.68549154
 C      5   3   1     5.918687620115   104.31339952    92.03428154
 H     23   5   3     2.055523755191    51.13851234   146.87412992
 C     23   5   3     2.537389788079    77.68099495   291.64933029
 H     25  23   5     2.052666134416   122.05730602   151.16771848
 C     25  23   5     2.777675135613   123.80223160   330.46273682
 O     27  25  23     2.309300151882   120.40050978   189.46399525
 C     23   5   3     2.767942013944   143.41524795    68.57145745
 C     29  23   5     2.639600357040   118.74064409    57.68258442
 C     29  23   5     2.650965548690   122.86717429   238.17174662
 C     30  29  23     2.626171463989   121.06890807   180.59171834
 H     30  29  23     2.051544404124   119.58001341     0.27663634
 C     31  29  23     2.609024997822   120.98489651   179.41847836
 H     31  29  23     2.050272755808   121.57935643     0.04340708
 C     32  30  29     2.627949578951   120.00314120     0.10949321
 H     32  30  29     2.052765917944   120.53121502   179.52490970
 O     36  32  30     2.566170216747   123.30777688   179.16446150
 H     38  36  32     1.824466157665   110.38158039   359.20396866
 O     34  31  29     2.596698254683   119.93075354   182.28966126
 C     40  34  31     2.708685809803   113.21441641   256.28287843
 H     41  40  34     2.066897031592   110.15477917    61.98008954
 H     41  40  34     2.056534507346   106.51376118   180.89568702
 H     41  40  34     2.063581397710   110.86629012   300.16027106
 C      5   3   1     2.877287419595   119.19244125    16.69412274
 H     45   5   3     2.064802186073   107.51096905   172.66962517
 H     45   5   3     2.066097159148   109.46004953   289.50603614
 O      9   7   1     4.411795811981   133.58517048   351.42007163
 O     48   9   7     4.071880029323    61.61382051    70.20772386
 N     48   9   7     2.293397289338    34.08015834    68.97479263

---------------------
BASIS SET INFORMATION
---------------------
There are 4 groups of distinct atoms

 Group   1 Type C   : 12s6p1d contracted to 5s4p1d pattern {63111/3111/1}
 Group   2 Type H   : 5s contracted to 3s pattern {311}
 Group   3 Type O   : 12s6p1d contracted to 5s4p1d pattern {63111/3111/1}
 Group   4 Type N   : 12s6p1d contracted to 5s4p1d pattern {63111/3111/1}

Atom   0C    basis set group =>   1
Atom   1H    basis set group =>   2
Atom   2C    basis set group =>   1
Atom   3H    basis set group =>   2
Atom   4C    basis set group =>   1
Atom   5O    basis set group =>   3
Atom   6C    basis set group =>   1
Atom   7C    basis set group =>   1
Atom   8C    basis set group =>   1
Atom   9C    basis set group =>   1
Atom  10H    basis set group =>   2
Atom  11C    basis set group =>   1
Atom  12H    basis set group =>   2
Atom  13C    basis set group =>   1
Atom  14H    basis set group =>   2
Atom  15O    basis set group =>   3
Atom  16H    basis set group =>   2
Atom  17O    basis set group =>   3
Atom  18C    basis set group =>   1
Atom  19H    basis set group =>   2
Atom  20H    basis set group =>   2
Atom  21H    basis set group =>   2
Atom  22C    basis set group =>   1
Atom  23H    basis set group =>   2
Atom  24C    basis set group =>   1
Atom  25H    basis set group =>   2
Atom  26C    basis set group =>   1
Atom  27O    basis set group =>   3
Atom  28C    basis set group =>   1
Atom  29C    basis set group =>   1
Atom  30C    basis set group =>   1
Atom  31C    basis set group =>   1
Atom  32H    basis set group =>   2
Atom  33C    basis set group =>   1
Atom  34H    basis set group =>   2
Atom  35C    basis set group =>   1
Atom  36H    basis set group =>   2
Atom  37O    basis set group =>   3
Atom  38H    basis set group =>   2
Atom  39O    basis set group =>   3
Atom  40C    basis set group =>   1
Atom  41H    basis set group =>   2
Atom  42H    basis set group =>   2
Atom  43H    basis set group =>   2
Atom  44C    basis set group =>   1
Atom  45H    basis set group =>   2
Atom  46H    basis set group =>   2
Atom  47O    basis set group =>   3
Atom  48O    basis set group =>   3
Atom  49N    basis set group =>   4
---------------------------------
AUXILIARY/J BASIS SET INFORMATION
---------------------------------
There are 4 groups of distinct atoms

 Group   1 Type C   : 12s5p4d2f1g contracted to 6s4p3d1f1g pattern {711111/2111/211/2/1}
 Group   2 Type H   : 5s2p1d contracted to 3s1p1d pattern {311/2/1}
 Group   3 Type O   : 12s5p4d2f1g contracted to 6s4p3d1f1g pattern {711111/2111/211/2/1}
 Group   4 Type N   : 12s5p4d2f1g contracted to 6s4p3d1f1g pattern {711111/2111/211/2/1}

Atom   0C    basis set group =>   1
Atom   1H    basis set group =>   2
Atom   2C    basis set group =>   1
Atom   3H    basis set group =>   2
Atom   4C    basis set group =>   1
Atom   5O    basis set group =>   3
Atom   6C    basis set group =>   1
Atom   7C    basis set group =>   1
Atom   8C    basis set group =>   1
Atom   9C    basis set group =>   1
Atom  10H    basis set group =>   2
Atom  11C    basis set group =>   1
Atom  12H    basis set group =>   2
Atom  13C    basis set group =>   1
Atom  14H    basis set group =>   2
Atom  15O    basis set group =>   3
Atom  16H    basis set group =>   2
Atom  17O    basis set group =>   3
Atom  18C    basis set group =>   1
Atom  19H    basis set group =>   2
Atom  20H    basis set group =>   2
Atom  21H    basis set group =>   2
Atom  22C    basis set group =>   1
Atom  23H    basis set group =>   2
Atom  24C    basis set group =>   1
Atom  25H    basis set group =>   2
Atom  26C    basis set group =>   1
Atom  27O    basis set group =>   3
Atom  28C    basis set group =>   1
Atom  29C    basis set group =>   1
Atom  30C    basis set group =>   1
Atom  31C    basis set group =>   1
Atom  32H    basis set group =>   2
Atom  33C    basis set group =>   1
Atom  34H    basis set group =>   2
Atom  35C    basis set group =>   1
Atom  36H    basis set group =>   2
Atom  37O    basis set group =>   3
Atom  38H    basis set group =>   2
Atom  39O    basis set group =>   3
Atom  40C    basis set group =>   1
Atom  41H    basis set group =>   2
Atom  42H    basis set group =>   2
Atom  43H    basis set group =>   2
Atom  44C    basis set group =>   1
Atom  45H    basis set group =>   2
Atom  46H    basis set group =>   2
Atom  47O    basis set group =>   3
Atom  48O    basis set group =>   3
Atom  49N    basis set group =>   4
------------------------------------------------------------------------------
                             ORCA STARTUP CALCULATIONS
                           -- RI-GTO INTEGRALS CHOSEN --
------------------------------------------------------------------------------
------------------------------------------------------------------------------
                   ___                                                        
                  /   \      - P O W E R E D   B Y -                         
                 /     \                                                     
                 |  |  |   _    _      __       _____    __    __             
                 |  |  |  | |  | |    /  \     |  _  \  |  |  /  |          
                  \  \/   | |  | |   /    \    | | | |  |  | /  /          
                 / \  \   | |__| |  /  /\  \   | |_| |  |  |/  /          
                |  |  |   |  __  | /  /__\  \  |    /   |      \           
                |  |  |   | |  | | |   __   |  |    \   |  |\   \          
                \     /   | |  | | |  |  |  |  | |\  \  |  | \   \       
                 \___/    |_|  |_| |__|  |__|  |_| \__\ |__|  \__/        
                                                                              
                      - O R C A' S   B I G   F R I E N D -                    
                                      &                                       
                       - I N T E G R A L  F E E D E R -                       
                                                                              
 v1 FN, 2020, v2 2021, v3 2022-2024                                           
------------------------------------------------------------------------------


----------------------
SHARK INTEGRAL PACKAGE
----------------------

Number of atoms                             ...     50
Number of basis functions                   ...    720
Number of shells                            ...    360
Maximum angular momentum                    ...      2
Integral batch strategy                     ... SHARK/LIBINT Hybrid
RI-J (if used) integral strategy            ... SPLIT-RIJ (Revised 2003 algorithm where possible)
Printlevel                                  ...      1
Contraction scheme used                     ... SEGMENTED contraction
Prescreening option                         ... SCHWARTZ
   Thresh                                   ... 2.500e-11
   Tcut                                     ... 2.500e-12
   Tpresel                                  ... 2.500e-12 
Coulomb Range Separation                    ... NOT USED
Exchange Range Separation                   ... Long Range
   Mu parameter                             ... 3.000e-01
   Scaling (regular/separated)              ... 1.500e-01 8.500e-01
Multipole approximations                    ... NOT USED
Finite Nucleus Model                        ... NOT USED
CABS basis                                  ... NOT available
Auxiliary Coulomb fitting basis             ... AVAILABLE
   # of basis functions in Aux-J            ...   1690
   # of shells in Aux-J                     ...    550
   Maximum angular momentum in Aux-J        ...      4
Auxiliary J/K fitting basis                 ... NOT available
Auxiliary Correlation fitting basis         ... NOT available
Auxiliary 'external' fitting basis          ... NOT available

Checking pre-screening integrals            ... done (  0.0 sec) Dimension = 360
Check shell pair data                       ... done (  0.0 sec)
Shell pair information
Shell pair cut-off parameter TPreSel        ...   2.5e-12
Total number of shell pairs                 ...     64980
Shell pairs after pre-screening             ...     43420
Total number of primitive shell pairs       ...    225475
Primitive shell pairs kept                  ...     94764
          la=0 lb=0:  13891 shell pairs
          la=1 lb=0:  17830 shell pairs
          la=1 lb=1:   5636 shell pairs
          la=2 lb=0:   3495 shell pairs
          la=2 lb=1:   2343 shell pairs
          la=2 lb=2:    225 shell pairs

Calculating one electron integrals          ... done (  0.2 sec)
Calculating RI/J V-Matrix + Cholesky decomp.... done (  0.5 sec)
Calculating Nuclear repulsion               ... done (  0.0 sec) ENN=   2840.978424891374 Eh

Diagonalization of the overlap matrix:
Smallest eigenvalue                        ... 3.073e-07
Time for diagonalization                   ...    0.048 sec
Threshold for overlap eigenvalues          ... 1.000e-07
Number of eigenvalues below threshold      ... 0

IMPORTANT:
Smallest eigenvalue of S below the DiffSThresh (1.000e-06) while
Thresh>1e-12 and/or TCut>1e-13! In order to avoid SCF convergence issues,
Thresh will be set to at least 1e-12 and TCut to at least 1e-13.
This can be turned off by adding %SCF DiffSThresh -1 END to the input.

Time for construction of square roots      ...    0.064 sec
Total time needed                          ...    0.122 sec

-------------------
DFT GRID GENERATION
-------------------

General Integration Accuracy     IntAcc      ... 4.388
Radial Grid Type                 RadialGrid  ... OptM3 with GC (2021)
Angular Grid (max. ang.)         AngularGrid ... 4 (Lebedev-302)
Angular grid pruning method      GridPruning ... 4 (adaptive)
Weight generation scheme         WeightScheme... mBecke (2022)
Basis function cutoff            BFCut       ... 1.0000e-11
Integration weight cutoff        WCut        ... 1.0000e-14
Partially contracted basis set               ... off
Rotationally invariant grid construction     ... off
Angular grids for H and He will be reduced by one unit
Diffuse basis detected: some atoms will have their outermost
                        angular grid increased by 1.

Total number of grid points                  ...   250834
Total number of batches                      ...     3942
Average number of points per batch           ...       63
Average number of grid points per atom       ...     5017

------------------
NL GRID GENERATION
------------------

General Integration Accuracy     IntAcc      ... 4.004
Radial Grid Type                 RadialGrid  ... OptM3 with GC (2021)
Angular Grid (max. ang.)         AngularGrid ... 2 (Lebedev-110)
Angular grid pruning method      GridPruning ... 4 (adaptive)
Weight generation scheme         WeightScheme... mBecke (2022)
Basis function cutoff            BFCut       ... 1.0000e-10
Integration weight cutoff        WCut        ... 1.0000e-14
Partially contracted basis set               ... off
Rotationally invariant grid construction     ... off
Angular grids for H and He will be reduced by one unit
Diffuse basis detected: some atoms will have their outermost
                        angular grid increased by 1.

Total number of grid points                  ...    83231
Total number of batches                      ...     1323
Average number of points per batch           ...       62
Average number of grid points per atom       ...     1665
Initializing property integral containers    ... done (  0.0 sec)

SHARK setup successfully completed in   5.6 seconds

Maximum memory used throughout the entire STARTUP-calculation: 145.7 MB
-------------------------------------------------------------------------------
                                 ORCA GUESS
                   Start orbitals & Density for SCF / CASSCF
-------------------------------------------------------------------------------

------------
SCF SETTINGS
------------
Hamiltonian:
 Density Functional     Method          .... DFT(GTOs)
  Functional kind                       .... Exchange-Correlation
  Functional name                       .... wB97M-V exchange-correlation functional
  Functional family                     .... Hybrid MGGA
  Functional refs                              
    [ 0] N. Mardirossian and M. Head-Gordon.,  J. Chem. Phys. 144, 214110 (2016), doi: 10.1063/1.4952647
  Fraction of HF Exchange (short range) .... 0.1500
  Fraction of HF Exchange (long range)  .... 1.0000
  Range separation parameter mu         .... 0.3000
  Functional external parameters        .... 17
    Parameter  0 _cx00      =  8.500000e-01 : u^00 coefficient for exchange
    Parameter  1 _cx01      =  1.007000e+00 : u^01 coefficient for exchange
    Parameter  2 _cx10      =  2.590000e-01 : u^10 coefficient for exchange
    Parameter  3 _css00     =  4.430000e-01 : u^00 coefficient for same-spin correlation
    Parameter  4 _css04     = -1.437000e+00 : u^04 coefficient for same-spin correlation
    Parameter  5 _css10     = -4.535000e+00 : u^10 coefficient for same-spin correlation
    Parameter  6 _css20     = -3.390000e+00 : u^20 coefficient for same-spin correlation
    Parameter  7 _css43     =  4.278000e+00 : u^43 coefficient for same-spin correlation
    Parameter  8 _cos00     =  1.000000e+00 : u^00 coefficient for opposite-spin correlation
    Parameter  9 _cos10     =  1.358000e+00 : u^10 coefficient for opposite-spin correlation
    Parameter 10 _cos20     =  2.924000e+00 : u^20 coefficient for opposite-spin correlation
    Parameter 11 _cos21     = -8.812000e+00 : u^21 coefficient for opposite-spin correlation
    Parameter 12 _cos60     = -1.390000e+00 : u^60 coefficient for opposite-spin correlation
    Parameter 13 _cos61     =  9.142000e+00 : u^61 coefficient for opposite-spin correlation
    Parameter 14 _alpha     =  1.000000e+00 : fraction of HF exchange
    Parameter 15 _beta      = -8.500000e-01 : fraction of short-range exchange
    Parameter 16 _omega     =  3.000000e-01 : range-separation constant
 Long-range corrected/Screened/Range-Separated Hybrid DFT is turned on
   Amount of maximum screened exact exchange              ....  0.850000
   Range separation parameter mu (erf(mu*r12)/r12)        ....  0.300000
   NL short-range parameter             ....  6.000000
   NL long-range parameter              ....  0.010000
 RI-approximation to the Coulomb term is turned on
   Number of AuxJ basis functions       .... 1690
   RIJ-ON(X) (HFX calculated with O(N)) .... on


General Settings:
 Integral files         IntName         .... CURCUMIN-OPT-FREQ-TS-M06-2X-6-311+G-D-298-cont
 Hartree-Fock type      HFTyp           .... UHF
 Total Charge           Charge          ....    0
 Multiplicity           Mult            ....    2
 Number of Electrons    NEL             ....  217
 Basis Dimension        Dim             ....  720
 Nuclear Repulsion      ENuc            ....   2840.9784248914 Eh

Convergence Acceleration:
 AO-DIIS                CNVDIIS         .... on
   Start iteration      DIISMaxIt       ....    12
   Startup error        DIISStart       ....  0.200000
   # of expansion vecs  DIISMaxEq       ....     5
   Bias factor          DIISBfac        ....   1.050
   Max. coefficient     DIISMaxC        ....  10.000
 MO-DIIS                CNVKDIIS        .... off
 Trust-Rad. Augm. Hess. CNVTRAH         .... off
 SOSCF                  CNVSOSCF        .... on
   Start iteration      SOSCFMaxIt      ....   150
   Startup grad/error   SOSCFStart      ....  0.003300
   Hessian update       SOSCFHessUp     .... L-BFGS
 Level Shifting         CNVShift        .... on
   Level shift para.    LevelShift      ....    0.2500
   Turn off err/grad.   ShiftErr        ....    0.0010
 Zerner damping         CNVZerner       .... off
 Static damping         CNVDamp         .... on
   Fraction old density DampFac         ....    0.7000
   Max. Damping (<1)    DampMax         ....    0.9800
   Min. Damping (>=0)   DampMin         ....    0.0000
   Turn off err/grad.   DampErr         ....    0.1000

SCF Procedure:
 Maximum # iterations   MaxIter         ....   125
 SCF integral mode      SCFMode         .... Direct
   Integral package                     .... SHARK and LIBINT hybrid scheme
 Reset frequency        DirectResetFreq ....    20
 Integral Threshold     Thresh          ....  1.000e-12 Eh
 Primitive CutOff       TCut            ....  1.000e-13 Eh

Convergence Tolerance:
 Convergence Check Mode ConvCheckMode   .... Total+1el-Energy
 Convergence forced     ConvForced      .... 0
 Energy Change          TolE            ....  1.000e-08 Eh
 1-El. energy change                    ....  1.000e-05 Eh
 Orbital Gradient       TolG            ....  1.000e-05
 Orbital Rotation angle TolX            ....  1.000e-05
 DIIS Error             TolErr          ....  5.000e-07

------------------------------
INITIAL GUESS: MODEL POTENTIAL
------------------------------
Loading Hartree-Fock densities                     ... done
Calculating cut-offs                               ... done
Initializing the effective Hamiltonian             ... done
Setting up the integral package (SHARK)            ... done
Starting the Coulomb interaction                   ... done (   2.0 sec)
Making the grid                                    ... done (   0.8 sec)
Mapping shells                                     ... done
Starting the XC term evaluation                    ... done (   1.1 sec)
  promolecular density results
     # of electrons  =    216.991274037
     EX              =   -185.071218334
     EC              =     -7.320364570
     EX+EC           =   -192.391582903
Transforming the Hamiltonian                       ... done (   0.0 sec)
Diagonalizing the Hamiltonian                      ... done (   0.1 sec)
Back transforming the eigenvectors                 ... done (   0.1 sec)
Now organizing SCF variables                       ... done
                      ------------------
                      INITIAL GUESS DONE (   4.4 sec)
                      ------------------
             **** ENERGY FILE WAS UPDATED (CURCUMIN-OPT-FREQ-TS-M06-2X-6-311+G-D-298-cont.en.tmp) ****
Finished Guess after   5.2 sec
Maximum memory used throughout the entire GUESS-calculation: 97.4 MB

-------------------------------------------------------------------------------------------
                                      ORCA LEAN-SCF
                              memory conserving SCF solver
-------------------------------------------------------------------------------------------

--------------------
CPCM SOLVATION MODEL
--------------------
CPCM parameters:
  Epsilon                                         ...       7.0000
  Refrac                                          ...       1.8534
  Rsolv                                           ...       1.3000
  Surface type                                    ... GAUSSIAN VDW
  Discretization scheme                           ... Constant charge density
    Threshold for H atoms                         ...       5.0000 (charges/Ang^2)
    Threshold for non-H atoms                     ...       5.0000 (charges/Ang^2)
  Epsilon function type                           ...         CPCM
Solvent:                                          ... CUSTOM
Radii:
  Scheme                                          ... Element-dependent radii
  Radius for C  used is    3.8550 Bohr (=   2.0400 Ang.)
  Radius for H  used is    2.4944 Bohr (=   1.3200 Ang.)
  Radius for O  used is    3.4469 Bohr (=   1.8240 Ang.)
  Radius for N  used is    3.5149 Bohr (=   1.8600 Ang.)
Calculating surface                               ...        done! (  0.0s)
Cavity surface points                             ...         4253
Cavity Volume                                     ...    3199.4347
Cavity Surface-area                               ...    1634.5979
Calculating surface distance matrix               ...        done! (  0.1s)
Performing Cholesky decomposition & store         ...        done! (  1.8s)
Overall time for CPCM initialization              ...                 1.9s

----------------------------------------D-I-I-S--------------------------------------------
Iteration    Energy (Eh)           Delta-E    RMSDP     MaxDP     DIISErr   Damp  Time(sec)
-------------------------------------------------------------------------------------------
               ***  Starting incremental Fock matrix formation  ***
    1    -1467.6774902184556595     0.00e+00  2.20e-02  4.76e+00  1.49e-01  0.700 274.8
    2    -1467.9928194048177374    -3.15e-01  1.18e-02  2.55e+00  7.01e-02  0.700 250.5
                               ***Turning on AO-DIIS***
    3    -1468.1465437703775478    -1.54e-01  6.14e-03  1.21e+00  2.68e-02  0.700 250.0
    4    -1468.2414847431857652    -9.49e-02  2.04e-02  4.18e+00  1.78e-02  0.000 243.3
    5    -1468.4547964891710308    -2.13e-01  4.90e-03  1.12e+00  9.88e-03  0.000 249.9
    6    -1468.4581907185190630    -3.39e-03  3.45e-03  8.73e-01  6.24e-03  0.000 224.2
    7    -1468.4602003210713974    -2.01e-03  3.60e-03  1.03e+00  4.87e-03  0.000 219.9
                              *** Initializing SOSCF ***
---------------------------------------S-O-S-C-F--------------------------------------
Iteration    Energy (Eh)           Delta-E    RMSDP     MaxDP     MaxGrad    Time(sec)
--------------------------------------------------------------------------------------
    8    -1468.4618034686566261    -1.60e-03  1.94e-03  4.80e-01  2.59e-03   220.6
               *** Restarting incremental Fock matrix formation ***
    9    -1468.4624078782583183    -6.04e-04  1.08e-03  2.03e-01  4.02e-03   265.7
   10    -1468.4626216669253154    -2.14e-04  2.28e-03  4.80e-01  2.33e-03   209.3
   11    -1468.4627170268502141    -9.54e-05  7.22e-04  1.50e-01  7.15e-04   214.6
   12    -1468.4627568048420017    -3.98e-05  2.28e-04  2.87e-02  2.17e-04   203.4
   13    -1468.4627594399551072    -2.64e-06  3.08e-04  5.06e-02  1.81e-04   191.5
   14    -1468.4627615110516672    -2.07e-06  2.55e-04  3.32e-02  7.82e-05   182.0
   15    -1468.4627620802739330    -5.69e-07  2.32e-04  4.32e-02  6.18e-05   181.0
   16    -1468.4627625350142353    -4.55e-07  4.92e-04  8.72e-02  3.65e-05   175.6
   17    -1468.4627626878482261    -1.53e-07  1.65e-04  2.24e-02  1.92e-05   177.8
   18    -1468.4627627411898629    -5.33e-08  2.85e-04  5.30e-02  1.32e-05   172.7
   19    -1468.4627627408713124     3.19e-10  2.24e-04  4.34e-02  8.71e-06   173.8
                 **** Energy Check signals convergence ****

               *****************************************************
               *                     SUCCESS                       *
               *           SCF CONVERGED AFTER  19 CYCLES          *
               *****************************************************

             **** ENERGY FILE WAS UPDATED (CURCUMIN-OPT-FREQ-TS-M06-2X-6-311+G-D-298-cont.en.tmp) ****

----------------
TOTAL SCF ENERGY
----------------

Total Energy       :      -1468.46276274087131 Eh          -39958.90325 eV

Components:
Nuclear Repulsion  :       2840.97842489137383 Eh           77306.95315 eV
Electronic Energy  :      -4310.20654458044010 Eh         -117286.68282 eV
One Electron Energy:      -7651.35628403013015 Eh         -208203.98937 eV
Two Electron Energy:       3341.14973944968960 Eh           90917.30656 eV
CPCM Dielectric    :         -0.04759632281109 Eh              -1.29516 eV

Virial components:
Potential Energy   :      -2933.15328746917658 Eh          -79815.15868 eV
Kinetic Energy     :       1464.69052472830526 Eh           39856.25543 eV
Virial Ratio       :          2.00257545054664

DFT components:
N(Alpha)           :      108.999910666242 electrons
N(Beta)            :      107.999921406206 electrons
N(Total)           :      216.999832072448 electrons
NL Energy, E(C,NL) :        0.812953271007 Eh       
E(XC)              :     -139.440664461488 Eh       

CPCM Solvation Model Properties:
Surface-charge          :         -0.03945641930419
Corrected charge        :          0.00000000000000
Outlying charge corr.   :          0.00006272958926 Eh               0.00171 eV
Free-energy (cav+disp)  :  This term is not implemented in the current solvation scheme

---------------
SCF CONVERGENCE
---------------

  Last Energy change         ...   -3.1855e-10  Tolerance :   1.0000e-08
  Last MAX-Density change    ...    4.3419e-02  Tolerance :   1.0000e-07
  Last RMS-Density change    ...    2.2395e-04  Tolerance :   5.0000e-09
  Last DIIS Error            ...    2.5921e-03  Tolerance :   5.0000e-07
  Last Orbital Gradient      ...    8.7085e-06  Tolerance :   1.0000e-05
  Last Orbital Rotation      ...    6.0240e-05  Tolerance :   1.0000e-05


----------------------
UHF SPIN CONTAMINATION
----------------------

Warning: in a DFT calculation there is little theoretical justification to 
         calculate <S**2> as in Hartree-Fock theory. We will do it anyways
         but you should keep in mind that the values have only limited relevance

Expectation value of <S**2>     :     0.772569
Ideal value S*(S+1) for S=0.5   :     0.750000
Deviation                       :     0.022569

----------------
ORBITAL ENERGIES
----------------
                 SPIN UP ORBITALS
  NO   OCC          E(Eh)            E(eV) 
   0   1.0000     -19.394076      -527.7396 
   1   1.0000     -19.393721      -527.7300 
   2   1.0000     -19.386044      -527.5211 
   3   1.0000     -19.375925      -527.2457 
   4   1.0000     -19.375236      -527.2270 
   5   1.0000     -19.356451      -526.7158 
   6   1.0000     -19.341328      -526.3043 
   7   1.0000     -19.335084      -526.1344 
   8   1.0000     -14.774832      -402.0436 
   9   1.0000     -10.458146      -284.5806 
  10   1.0000     -10.452976      -284.4399 
  11   1.0000     -10.443982      -284.1952 
  12   1.0000     -10.442333      -284.1503 
  13   1.0000     -10.441563      -284.1294 
  14   1.0000     -10.426372      -283.7160 
  15   1.0000     -10.410582      -283.2863 
  16   1.0000     -10.396455      -282.9019 
  17   1.0000     -10.392022      -282.7813 
  18   1.0000     -10.389066      -282.7009 
  19   1.0000     -10.384021      -282.5636 
  20   1.0000     -10.380815      -282.4763 
  21   1.0000     -10.379574      -282.4426 
  22   1.0000     -10.378197      -282.4051 
  23   1.0000     -10.368323      -282.1364 
  24   1.0000     -10.367501      -282.1140 
  25   1.0000     -10.362691      -281.9832 
  26   1.0000     -10.362645      -281.9819 
  27   1.0000     -10.360698      -281.9289 
  28   1.0000     -10.358159      -281.8598 
  29   1.0000     -10.356014      -281.8015 
  30   1.0000      -1.398802       -38.0633 
  31   1.0000      -1.229466       -33.4555 
  32   1.0000      -1.219907       -33.1954 
  33   1.0000      -1.214284       -33.0424 
  34   1.0000      -1.204828       -32.7850 
  35   1.0000      -1.193701       -32.4823 
  36   1.0000      -1.186049       -32.2740 
  37   1.0000      -1.185804       -32.2674 
  38   1.0000      -1.037243       -28.2248 
  39   1.0000      -1.002573       -27.2814 
  40   1.0000      -0.961739       -26.1703 
  41   1.0000      -0.948406       -25.8074 
  42   1.0000      -0.943980       -25.6870 
  43   1.0000      -0.911630       -24.8067 
  44   1.0000      -0.889294       -24.1989 
  45   1.0000      -0.887337       -24.1457 
  46   1.0000      -0.863824       -23.5059 
  47   1.0000      -0.848351       -23.0848 
  48   1.0000      -0.823580       -22.4107 
  49   1.0000      -0.812500       -22.1092 
  50   1.0000      -0.787277       -21.4229 
  51   1.0000      -0.782999       -21.3065 
  52   1.0000      -0.751594       -20.4519 
  53   1.0000      -0.745573       -20.2881 
  54   1.0000      -0.737656       -20.0726 
  55   1.0000      -0.707494       -19.2519 
  56   1.0000      -0.706277       -19.2188 
  57   1.0000      -0.693705       -18.8767 
  58   1.0000      -0.677631       -18.4393 
  59   1.0000      -0.670101       -18.2344 
  60   1.0000      -0.657276       -17.8854 
  61   1.0000      -0.653784       -17.7904 
  62   1.0000      -0.646585       -17.5945 
  63   1.0000      -0.639300       -17.3962 
  64   1.0000      -0.630170       -17.1478 
  65   1.0000      -0.628206       -17.0944 
  66   1.0000      -0.620537       -16.8857 
  67   1.0000      -0.606163       -16.4945 
  68   1.0000      -0.598724       -16.2921 
  69   1.0000      -0.597393       -16.2559 
  70   1.0000      -0.587125       -15.9765 
  71   1.0000      -0.579539       -15.7701 
  72   1.0000      -0.571111       -15.5407 
  73   1.0000      -0.565603       -15.3908 
  74   1.0000      -0.563160       -15.3244 
  75   1.0000      -0.554469       -15.0879 
  76   1.0000      -0.548189       -14.9170 
  77   1.0000      -0.547215       -14.8905 
  78   1.0000      -0.544028       -14.8038 
  79   1.0000      -0.538791       -14.6612 
  80   1.0000      -0.532304       -14.4847 
  81   1.0000      -0.528840       -14.3905 
  82   1.0000      -0.525147       -14.2900 
  83   1.0000      -0.519067       -14.1245 
  84   1.0000      -0.512967       -13.9585 
  85   1.0000      -0.511068       -13.9069 
  86   1.0000      -0.497407       -13.5351 
  87   1.0000      -0.495530       -13.4841 
  88   1.0000      -0.485685       -13.2162 
  89   1.0000      -0.484461       -13.1829 
  90   1.0000      -0.475214       -12.9312 
  91   1.0000      -0.474159       -12.9025 
  92   1.0000      -0.469700       -12.7812 
  93   1.0000      -0.467868       -12.7313 
  94   1.0000      -0.447008       -12.1637 
  95   1.0000      -0.443352       -12.0642 
  96   1.0000      -0.440573       -11.9886 
  97   1.0000      -0.438927       -11.9438 
  98   1.0000      -0.408956       -11.1283 
  99   1.0000      -0.405576       -11.0363 
 100   1.0000      -0.401368       -10.9218 
 101   1.0000      -0.396289       -10.7836 
 102   1.0000      -0.389457       -10.5977 
 103   1.0000      -0.386532       -10.5181 
 104   1.0000      -0.363493        -9.8912 
 105   1.0000      -0.350312        -9.5325 
 106   1.0000      -0.333829        -9.0840 
 107   1.0000      -0.310223        -8.4416 
 108   1.0000      -0.307693        -8.3727 
 109   0.0000      -0.019464        -0.5297 
 110   0.0000      -0.006903        -0.1878 
 111   0.0000      -0.002366        -0.0644 
 112   0.0000       0.032162         0.8752 
 113   0.0000       0.036128         0.9831 
 114   0.0000       0.037819         1.0291 
 115   0.0000       0.041381         1.1260 
 116   0.0000       0.047293         1.2869 
 117   0.0000       0.049484         1.3465 
 118   0.0000       0.050809         1.3826 
 119   0.0000       0.054230         1.4757 

                 SPIN DOWN ORBITALS
  NO   OCC          E(Eh)            E(eV) 
   0   1.0000     -19.393952      -527.7363 
   1   1.0000     -19.393673      -527.7287 
   2   1.0000     -19.386382      -527.5303 
   3   1.0000     -19.375925      -527.2457 
   4   1.0000     -19.374931      -527.2187 
   5   1.0000     -19.356451      -526.7158 
   6   1.0000     -19.341023      -526.2960 
   7   1.0000     -19.335090      -526.1345 
   8   1.0000     -14.774507      -402.0348 
   9   1.0000     -10.458223      -284.5827 
  10   1.0000     -10.452974      -284.4399 
  11   1.0000     -10.445296      -284.2309 
  12   1.0000     -10.443268      -284.1758 
  13   1.0000     -10.439077      -284.0617 
  14   1.0000     -10.426371      -283.7160 
  15   1.0000     -10.410582      -283.2863 
  16   1.0000     -10.394325      -282.8440 
  17   1.0000     -10.391772      -282.7745 
  18   1.0000     -10.389512      -282.7130 
  19   1.0000     -10.384021      -282.5636 
  20   1.0000     -10.380812      -282.4763 
  21   1.0000     -10.380534      -282.4687 
  22   1.0000     -10.376587      -282.3613 
  23   1.0000     -10.367696      -282.1194 
  24   1.0000     -10.367502      -282.1141 
  25   1.0000     -10.362690      -281.9831 
  26   1.0000     -10.362644      -281.9819 
  27   1.0000     -10.360697      -281.9289 
  28   1.0000     -10.358159      -281.8598 
  29   1.0000     -10.356013      -281.8015 
  30   1.0000      -1.398549       -38.0565 
  31   1.0000      -1.229431       -33.4545 
  32   1.0000      -1.219753       -33.1912 
  33   1.0000      -1.214284       -33.0423 
  34   1.0000      -1.204295       -32.7705 
  35   1.0000      -1.193252       -32.4700 
  36   1.0000      -1.186024       -32.2734 
  37   1.0000      -1.185804       -32.2674 
  38   1.0000      -1.035655       -28.1816 
  39   1.0000      -1.002572       -27.2814 
  40   1.0000      -0.960920       -26.1480 
  41   1.0000      -0.948171       -25.8011 
  42   1.0000      -0.943736       -25.6804 
  43   1.0000      -0.910739       -24.7825 
  44   1.0000      -0.889230       -24.1972 
  45   1.0000      -0.886853       -24.1325 
  46   1.0000      -0.863562       -23.4987 
  47   1.0000      -0.846316       -23.0294 
  48   1.0000      -0.822442       -22.3798 
[...]
108:   1367.48   0.011617   58.71  0.002651  (-0.036369  0.031503  0.018324)
109:   1379.41   0.020259  102.38  0.004583  ( 0.035605  0.039732  0.041674)
110:   1444.37   0.008048   40.67  0.001739  (-0.006196 -0.034213 -0.023018)
111:   1449.84   0.000959    4.85  0.000206  ( 0.009726  0.007256 -0.007693)
112:   1463.61   0.036777  185.85  0.007841  (-0.074938 -0.047171 -0.000701)
113:   1467.98   0.001198    6.06  0.000255  ( 0.008321  0.004207  0.012955)
114:   1478.64   0.000909    4.59  0.000192  (-0.002550  0.012027 -0.006378)
115:   1482.42   0.003103   15.68  0.000653  ( 0.011644  0.019331 -0.012000)
116:   1484.10   0.003608   18.23  0.000759  (-0.019692 -0.004516  0.018721)
117:   1486.87   0.004416   22.32  0.000927  ( 0.011288  0.024526  0.014069)
118:   1493.15   0.001993   10.07  0.000416  (-0.001284 -0.010210 -0.017623)
119:   1495.38   0.008864   44.80  0.001850  (-0.022232 -0.014643 -0.033781)
120:   1551.71   0.048601  245.61  0.009774  (-0.046135  0.041861  0.076768)
121:   1558.42   0.077303  390.66  0.015479  (-0.070648 -0.080254 -0.063621)
122:   1622.44   0.126405  638.80  0.024313  ( 0.093811 -0.111637  0.055224)
123:   1637.72   0.025824  130.50  0.004921  ( 0.019660  0.041765 -0.052820)
124:   1658.06   0.028567  144.37  0.005377  ( 0.047041 -0.024278 -0.050738)
125:   1666.03   0.002390   12.08  0.000448  (-0.006587  0.001894 -0.020016)
126:   1679.78   0.098483  497.69  0.018296  (-0.073824 -0.111654  0.019476)
127:   1716.58   0.073565  371.77  0.013374  ( 0.064669  0.095185  0.011465)
128:   1717.49   0.031604  159.72  0.005742  ( 0.011627 -0.072914  0.017050)
129:   1725.40   0.211084  1066.73  0.038178  (-0.105661 -0.103737  0.127483)
130:   1751.91   0.053454  270.13  0.009522  (-0.037482  0.006880  0.089830)
131:   3043.69   0.013502   68.23  0.001384  (-0.028113  0.017517 -0.016946)
132:   3062.66   0.009031   45.64  0.000920  (-0.015285  0.024103 -0.010277)
133:   3079.70   0.000021    0.10  0.000002  ( 0.000348  0.000102  0.001396)
134:   3120.78   0.008495   42.93  0.000849  ( 0.015636  0.024590  0.000584)
135:   3134.13   0.001082    5.47  0.000108  ( 0.010188 -0.000836  0.001807)
136:   3145.52   0.005671   28.66  0.000563  ( 0.017929 -0.000544 -0.015519)
137:   3166.59   0.007235   36.56  0.000713  (-0.003082  0.006229  0.025781)
138:   3177.67   0.000653    3.30  0.000064  ( 0.001345  0.004029  0.006786)
139:   3183.57   0.000456    2.31  0.000045  (-0.004733  0.004320 -0.001915)
140:   3183.84   0.003099   15.66  0.000304  (-0.009659 -0.013436 -0.005474)
141:   3184.27   0.004747   23.99  0.000465  ( 0.006093  0.016910  0.011924)
142:   3190.58   0.000249    1.26  0.000024  ( 0.001235  0.004609  0.001272)
143:   3191.50   0.001408    7.11  0.000138  ( 0.005674  0.001965  0.010078)
144:   3192.19   0.001983   10.02  0.000194  ( 0.009955 -0.006517 -0.007230)
145:   3198.88   0.002589   13.08  0.000253  (-0.004301 -0.005409  0.014310)
146:   3208.82   0.000678    3.42  0.000066  (-0.003300 -0.007396  0.000553)
147:   3209.75   0.001021    5.16  0.000099  (-0.000056  0.001436 -0.009859)
148:   3796.56   0.041684  210.65  0.003426  ( 0.048764  0.014897 -0.028748)
149:   3799.80   0.036310  183.50  0.002982  (-0.032004 -0.041251  0.016003)

* The epsilon (eps) is given for a Dirac delta lineshape.
** The dipole moment derivative (T) already includes vibrational overlap.

The first frequency considered to be a vibration is 7
The total number of vibrations considered is 143


--------------------------
THERMOCHEMISTRY AT 298.15K
--------------------------

Temperature         ...   298.15 K
Pressure            ...     1.00 atm
Total Mass          ...   414.39 AMU
Quasi RRHO          ...     True
Cut-Off Frequency   ...     1.00 cm^-1

Throughout the following assumptions are being made:
  (1) The electronic state is orbitally nondegenerate
      but the spin degeneracy is treated
  (2) There are no thermally accessible electronically excited states
  (3) Hindered rotations indicated by low frequency modes are not
      treated as such but are treated as vibrations and this may
      cause some error
  (4) All equations used are the standard statistical mechanics
      equations for an ideal gas
  (5) All vibrations are strictly harmonic

freq.       5.82  E(vib)   ...       0.58 
freq.      17.75  E(vib)   ...       0.57 
freq.      25.86  E(vib)   ...       0.56 
freq.      30.04  E(vib)   ...       0.55 
freq.      42.34  E(vib)   ...       0.53 
freq.      53.18  E(vib)   ...       0.52 
freq.      65.88  E(vib)   ...       0.50 
freq.      67.27  E(vib)   ...       0.50 
freq.      80.31  E(vib)   ...       0.49 
freq.      86.08  E(vib)   ...       0.48 
freq.      92.53  E(vib)   ...       0.47 
freq.     103.35  E(vib)   ...       0.46 
freq.     107.98  E(vib)   ...       0.45 
freq.     121.73  E(vib)   ...       0.44 
freq.     135.54  E(vib)   ...       0.42 
freq.     143.17  E(vib)   ...       0.41 
freq.     153.51  E(vib)   ...       0.40 
freq.     161.92  E(vib)   ...       0.39 
freq.     173.15  E(vib)   ...       0.38 
freq.     182.26  E(vib)   ...       0.37 
freq.     203.72  E(vib)   ...       0.35 
freq.     207.14  E(vib)   ...       0.34 
freq.     225.03  E(vib)   ...       0.33 
freq.     227.11  E(vib)   ...       0.33 
freq.     274.56  E(vib)   ...       0.28 
freq.     294.49  E(vib)   ...       0.27 
freq.     307.33  E(vib)   ...       0.26 
freq.     315.27  E(vib)   ...       0.25 
freq.     327.38  E(vib)   ...       0.24 
freq.     339.06  E(vib)   ...       0.23 
freq.     344.20  E(vib)   ...       0.23 
freq.     379.73  E(vib)   ...       0.21 
freq.     383.86  E(vib)   ...       0.20 
freq.     393.79  E(vib)   ...       0.20 
freq.     405.06  E(vib)   ...       0.19 
freq.     426.80  E(vib)   ...       0.18 
freq.     441.90  E(vib)   ...       0.17 
freq.     449.94  E(vib)   ...       0.17 
freq.     466.05  E(vib)   ...       0.16 
freq.     479.17  E(vib)   ...       0.15 
freq.     487.97  E(vib)   ...       0.15 
freq.     500.03  E(vib)   ...       0.14 
freq.     526.36  E(vib)   ...       0.13 
freq.     531.49  E(vib)   ...       0.13 
freq.     561.70  E(vib)   ...       0.11 
freq.     570.53  E(vib)   ...       0.11 
freq.     581.54  E(vib)   ...       0.11 
freq.     597.80  E(vib)   ...       0.10 
freq.     605.08  E(vib)   ...       0.10 
freq.     620.07  E(vib)   ...       0.09 
freq.     626.29  E(vib)   ...       0.09 
freq.     646.96  E(vib)   ...       0.09 
freq.     684.90  E(vib)   ...       0.07 
freq.     721.79  E(vib)   ...       0.07 
freq.     733.52  E(vib)   ...       0.06 
freq.     753.84  E(vib)   ...       0.06 
freq.     769.67  E(vib)   ...       0.05 
freq.     773.51  E(vib)   ...       0.05 
freq.     813.06  E(vib)   ...       0.05 
freq.     819.85  E(vib)   ...       0.05 
freq.     828.95  E(vib)   ...       0.04 
freq.     838.15  E(vib)   ...       0.04 
freq.     840.73  E(vib)   ...       0.04 
freq.     852.26  E(vib)   ...       0.04 
freq.     877.51  E(vib)   ...       0.04 
freq.     889.12  E(vib)   ...       0.04 
freq.     914.02  E(vib)   ...       0.03 
freq.     924.83  E(vib)   ...       0.03 
freq.     958.24  E(vib)   ...       0.03 
freq.     967.30  E(vib)   ...       0.03 
freq.     970.13  E(vib)   ...       0.03 
freq.     977.37  E(vib)   ...       0.03 
freq.     985.80  E(vib)   ...       0.02 
freq.    1005.82  E(vib)   ...       0.02 
freq.    1008.99  E(vib)   ...       0.02 
freq.    1016.21  E(vib)   ...       0.02 
freq.    1057.84  E(vib)   ...       0.02 
freq.    1094.26  E(vib)   ...       0.02 
freq.    1140.36  E(vib)   ...       0.01 
freq.    1160.11  E(vib)   ...       0.01 
freq.    1164.77  E(vib)   ...       0.01 
freq.    1171.05  E(vib)   ...       0.01 
freq.    1174.75  E(vib)   ...       0.01 
freq.    1185.17  E(vib)   ...       0.01 
freq.    1189.81  E(vib)   ...       0.01 
freq.    1200.96  E(vib)   ...       0.01 
freq.    1207.21  E(vib)   ...       0.01 
freq.    1219.79  E(vib)   ...       0.01 
freq.    1238.61  E(vib)   ...       0.01 
freq.    1254.01  E(vib)   ...       0.01 
freq.    1271.36  E(vib)   ...       0.01 
freq.    1287.94  E(vib)   ...       0.01 
freq.    1291.43  E(vib)   ...       0.01 
freq.    1307.01  E(vib)   ...       0.01 
freq.    1310.72  E(vib)   ...       0.01 
freq.    1315.99  E(vib)   ...       0.01 
freq.    1318.35  E(vib)   ...       0.01 
freq.    1330.03  E(vib)   ...       0.01 
freq.    1340.83  E(vib)   ...       0.01 
freq.    1351.37  E(vib)   ...       0.01 
freq.    1363.71  E(vib)   ...       0.01 
freq.    1367.48  E(vib)   ...       0.01 
freq.    1379.41  E(vib)   ...       0.01 
freq.    1444.37  E(vib)   ...       0.00 
freq.    1449.84  E(vib)   ...       0.00 
freq.    1463.61  E(vib)   ...       0.00 
freq.    1467.98  E(vib)   ...       0.00 
freq.    1478.64  E(vib)   ...       0.00 
freq.    1482.42  E(vib)   ...       0.00 
freq.    1484.10  E(vib)   ...       0.00 
freq.    1486.87  E(vib)   ...       0.00 
freq.    1493.15  E(vib)   ...       0.00 
freq.    1495.38  E(vib)   ...       0.00 
freq.    1551.71  E(vib)   ...       0.00 
freq.    1558.42  E(vib)   ...       0.00 
freq.    1622.44  E(vib)   ...       0.00 
freq.    1637.72  E(vib)   ...       0.00 
freq.    1658.06  E(vib)   ...       0.00 
freq.    1666.03  E(vib)   ...       0.00 
freq.    1679.78  E(vib)   ...       0.00 
freq.    1716.58  E(vib)   ...       0.00 
freq.    1717.49  E(vib)   ...       0.00 
freq.    1725.40  E(vib)   ...       0.00 
freq.    1751.91  E(vib)   ...       0.00 
freq.    3043.69  E(vib)   ...       0.00 
freq.    3062.66  E(vib)   ...       0.00 
freq.    3079.70  E(vib)   ...       0.00 
freq.    3120.78  E(vib)   ...       0.00 
freq.    3134.13  E(vib)   ...       0.00 
freq.    3145.52  E(vib)   ...       0.00 
freq.    3166.59  E(vib)   ...       0.00 
freq.    3177.67  E(vib)   ...       0.00 
freq.    3183.57  E(vib)   ...       0.00 
freq.    3183.84  E(vib)   ...       0.00 
freq.    3184.27  E(vib)   ...       0.00 
freq.    3190.58  E(vib)   ...       0.00 
freq.    3191.50  E(vib)   ...       0.00 
freq.    3192.19  E(vib)   ...       0.00 
freq.    3198.88  E(vib)   ...       0.00 
freq.    3208.82  E(vib)   ...       0.00 
freq.    3209.75  E(vib)   ...       0.00 
freq.    3796.56  E(vib)   ...       0.00 
freq.    3799.80  E(vib)   ...       0.00 

------------
INNER ENERGY
------------

The inner energy is: U= E(el) + E(ZPE) + E(vib) + E(rot) + E(trans)
    E(el)   - is the total energy from the electronic structure calculation
              = E(kin-el) + E(nuc-el) + E(el-el) + E(nuc-nuc)
    E(ZPE)  - the the zero temperature vibrational energy from the frequency calculation
    E(vib)  - the the finite temperature correction to E(ZPE) due to population
              of excited vibrational states
    E(rot)  - is the rotational thermal energy
    E(trans)- is the translational thermal energy

Summary of contributions to the inner energy U:
Electronic energy                ...  -1468.46282827 Eh
Zero point energy                ...      0.37480280 Eh     235.19 kcal/mol
Thermal vibrational correction   ...      0.02679280 Eh      16.81 kcal/mol
Thermal rotational correction    ...      0.00141627 Eh       0.89 kcal/mol
Thermal translational correction ...      0.00141627 Eh       0.89 kcal/mol
-----------------------------------------------------------------------
Total thermal energy                  -1468.05840013 Eh


Summary of corrections to the electronic energy:
(perhaps to be used in another calculation)
Total thermal correction                  0.02962534 Eh      18.59 kcal/mol
Non-thermal (ZPE) correction              0.37480280 Eh     235.19 kcal/mol
-----------------------------------------------------------------------
Total correction                          0.40442815 Eh     253.78 kcal/mol


--------
ENTHALPY
--------

The enthalpy is H = U + kB*T
                kB is Boltzmann's constant
Total thermal energy              ...  -1468.05840013 Eh 
Thermal Enthalpy correction       ...      0.00094421 Eh       0.59 kcal/mol
-----------------------------------------------------------------------
Total Enthalpy                    ...  -1468.05745592 Eh


Note: Only C1 symmetry has been detected, increase convergence thresholds 
      if your molecule has a higher symmetry. Symmetry factor of 1.0 is   
      used for the rotational entropy correction. 
 

Note: Rotational entropy computed according to Herzberg 
Infrared and Raman Spectra, Chapter V,1, Van Nostrand Reinhold, 1945 
Point Group:  C1, Symmetry Number:   1  
Rotational constants in cm-1:     0.006921     0.002808     0.002340 

Vibrational entropy computed according to the QRRHO of S. Grimme
Chem.Eur.J. 2012 18 9955 using a reference frequency of 100.0 cm-1


-------
ENTROPY
-------

The entropy contributions are T*S = T*(S(el)+S(vib)+S(rot)+S(trans))
     S(el)   - electronic entropy
     S(vib)  - vibrational entropy
     S(rot)  - rotational entropy
     S(trans)- translational entropy
The entropies will be listed as multiplied by the temperature to get
units of energy

Electronic entropy                ...      0.00065446 Eh      0.41 kcal/mol
Vibrational entropy               ...      0.04926703 Eh     30.92 kcal/mol
Rotational entropy                ...      0.01749194 Eh     10.98 kcal/mol
Translational entropy             ...      0.02088467 Eh     13.11 kcal/mol
-----------------------------------------------------------------------
Final entropy term                ...      0.08829810 Eh     55.41 kcal/mol

In case the symmetry of your molecule has not been determined correctly
or in case you have a reason to use a different symmetry number we print 
out the resulting rotational entropy values for sn=1,12:

 non-linear molecules -----------------------------------
|  sn= 1 | S(rot)=       0.01749194 Eh     10.98 kcal/mol|
|  sn= 2 | S(rot)=       0.01683748 Eh     10.57 kcal/mol|
|  sn= 3 | S(rot)=       0.01645465 Eh     10.33 kcal/mol|
|  sn= 4 | S(rot)=       0.01618303 Eh     10.15 kcal/mol|
|  sn= 5 | S(rot)=       0.01597234 Eh     10.02 kcal/mol|
|  sn= 6 | S(rot)=       0.01580019 Eh      9.91 kcal/mol|
|  sn= 7 | S(rot)=       0.01565465 Eh      9.82 kcal/mol|
|  sn= 8 | S(rot)=       0.01552857 Eh      9.74 kcal/mol|
|  sn= 9 | S(rot)=       0.01541736 Eh      9.67 kcal/mol|
|  sn=10 | S(rot)=       0.01531788 Eh      9.61 kcal/mol|
|  sn=11 | S(rot)=       0.01522789 Eh      9.56 kcal/mol|
|  sn=12 | S(rot)=       0.01514574 Eh      9.50 kcal/mol|
 linear molecules ---------------------------------------
|  Dinfh | S(rot)=       0.01104529 Eh      6.93 kcal/mol|
|  Cinfv | S(rot)=       0.01169975 Eh      7.34 kcal/mol|
 --------------------------------------------------------


-------------------
GIBBS FREE ENERGY
-------------------

The Gibbs free energy is G = H - T*S

Total enthalpy                    ...  -1468.05745592 Eh 
Total entropy correction          ...     -0.08829810 Eh    -55.41 kcal/mol
-----------------------------------------------------------------------
Final Gibbs free energy         ...  -1468.14575401 Eh

For completeness - the Gibbs free energy minus the electronic energy
G-E(el)                           ...      0.31707426 Eh    198.97 kcal/mol



--------------------------------
SUGGESTED CITATIONS FOR THIS RUN
--------------------------------

Below you find a list of papers that are relevant to this ORCA run
We neither can nor want to force you to cite these papers, but we appreciate if you do
You receive ORCA, which is the product of decades of hard work by many enthusiastic individuals, for free
The only thing we kindly ask in return is that you cite our papers,
We deeply appreciate it, if you show your appreciation for ORCA by not just citing the generic ORCA reference.

Please note that relegating all ORCA citations to the supporting information does *not* help us.
SI sections are not indexed - citations you put there will not count into any citation statistics
But we need these citations in order to attract the funding resources that allow us to do what we are doing

Therefore, if you are a happy ORCA user, please consider citing a few of the papers listed below in the main body of your paper

In addition to the list printed below, the program has created the file CURCUMIN-OPT-FREQ-TS-M06-2X-6-311+G-D-298-cont.bibtex that contains the list in bibtex format
You can import this file easily into all common literature databanks and citation aid programs


List of essential papers. We consider these as the minimum necessary citations

  1. Neese,F.
     Software update: the ORCA program system, version 5.0
     WIRES Comput. Molec. Sci., 2022 12(1)e1606
     doi.org/10.1002/wcms.1606

List of papers to cite with high priority. The work reported in these papers was absolutely
necessary for this run to complete.
Our perspective: the developers of density functionals and basis sets usually get cited in chemistry papers
Good! But without the algorithms to do something with them, the functionals or basis sets would not do anything.
Hence, in our opinion, the algorithm design and method developments papers are equally worthy of getting cited

  1. Neese,F.
     An improvement of the resolution of the identity approximation for the formation of the Coulomb matrix
     J. Comp. Chem., 2003 24(14)1740-1747
     doi.org/10.1002/jcc.10318
  2. Bykov,D.; Petrenko,T.; Izsak,R.; Kossmann,S.; Becker,U.; Valeev,E.; Neese,F.
     Efficient implementation of the analytic second derivatives of Hartree-Fock and hybrid DFT energies: a detailed analysis of different approximations
     Molec. Phys., 2015 113 1961-1977
     doi.org/10.1080/00268976.2015.1025114
  3. Garcia-Rates,M.; Neese,F.
     Effect of the Solute Cavity on the Solvation Energy and its Derivatives within the Framework of the Gaussian Charge Scheme
     J. Comput. Chem., 2020 41 922-939
     doi.org/10.1002/jcc.26139
  4. Neese,F.
     The SHARK Integral Generation and Digestion System
     J. Comp. Chem., 2022  1-16
     doi.org/10.1002/jcc.26942
  5. Lehtola,S.; Steigemann,C.; Oliveira,M.; Marques,M.
     Recent developments in Libxc - A comprehensive library of functionals for density functional theory
     Software X, 2018 7 
     doi.org/10.1016/j.softx.2017.11.002

List of suggested additional citations. These are papers that are important in the 'surrounding' of 
of this run, or papers that preceded the highly important papers. If you like your results we are grateful for a citation.

  1. Neese,F.
     The ORCA program system
     WIRES Comput. Molec. Sci., 2012 2(1)73-78
     doi.org/10.1002/wcms.81
  2. Neese,F.
     Software update: the ORCA program system, version 4.0
     WIRES Comput. Molec. Sci., 2018 8(1)1-6
     doi.org/10.1002/wcms.1327
  3. Neese,F.; Wennmohs,F.; Becker,U.; Riplinger,C.
     The ORCA quantum chemistry program package
     J. Chem. Phys., 2020 152 Art. No. L224108
     doi.org/10.1063/5.0004608

List of optional additional citations

  1. Neese,F.
     Approximate second-order SCF convergence for spin unrestricted wavefunctions
     Chem. Phys. Lett., 2000 325(1-3)93-98
     doi.org/10.1016/s0009-2614(00)00662-x

Timings for individual modules:

Sum of individual times          ...   791224.259 sec (=13187.071 min)
Startup calculation              ...      211.956 sec (=   3.533 min)   0.0 %
SCF iterations                   ...    90378.993 sec (=1506.317 min)  11.4 %
Property calculations            ...        0.674 sec (=   0.011 min)   0.0 %
SCF Gradient evaluation          ...    22598.789 sec (= 376.646 min)   2.9 %
Geometry relaxation              ...        3.288 sec (=   0.055 min)   0.0 %
Numerical frequency calculation  ...   678030.558 sec (=11300.509 min)  85.7 %
                             ****ORCA TERMINATED NORMALLY****
TOTAL RUN TIME: 9 days 3 hours 26 minutes 22 seconds 797 msec
