 Entering Gaussian System, Link 0=g16
 Initial command:
 /sw/cluster/pub/apps//g16/l1.exe "/data/mmaximo/25405/Gau-1410295.inp" -scrdir="/data/mmaximo/25405/"
 Entering Link 1 = /sw/cluster/pub/apps//g16/l1.exe PID=   1410296.
  
 Copyright (c) 1988,1990,1992,1993,1995,1998,2003,2009,2016,
            Gaussian, Inc.  All Rights Reserved.
  
 This is part of the Gaussian(R) 16 program.  It is based on
 the Gaussian(R) 09 system (copyright 2009, Gaussian, Inc.),
 the Gaussian(R) 03 system (copyright 2003, Gaussian, Inc.),
 the Gaussian(R) 98 system (copyright 1998, Gaussian, Inc.),
 the Gaussian(R) 94 system (copyright 1995, Gaussian, Inc.),
 the Gaussian 92(TM) system (copyright 1992, Gaussian, Inc.),
 the Gaussian 90(TM) system (copyright 1990, Gaussian, Inc.),
 the Gaussian 88(TM) system (copyright 1988, Gaussian, Inc.),
 the Gaussian 86(TM) system (copyright 1986, Carnegie Mellon
 University), and the Gaussian 82(TM) system (copyright 1983,
 Carnegie Mellon University). Gaussian is a federally registered
 trademark of Gaussian, Inc.
  
 This software contains proprietary and confidential information,
 including trade secrets, belonging to Gaussian, Inc.
  
 This software is provided under written license and may be
 used, copied, transmitted, or stored only in accord with that
 written license.
  
 The following legend is applicable only to US Government
 contracts under FAR:
  
                    RESTRICTED RIGHTS LEGEND
  
 Use, reproduction and disclosure by the US Government is
 subject to restrictions as set forth in subparagraphs (a)
 and (c) of the Commercial Computer Software - Restricted
 Rights clause in FAR 52.227-19.
  
 Gaussian, Inc.
 340 Quinnipiac St., Bldg. 40, Wallingford CT 06492
  
  
 ---------------------------------------------------------------
 Warning -- This program may not be used in any manner that
 competes with the business of Gaussian, Inc. or will provide
 assistance to any competitor of Gaussian, Inc.  The licensee
 of this program is prohibited from giving any competitor of
 Gaussian, Inc. access to this program.  By using this program,
 the user acknowledges that Gaussian, Inc. is engaged in the
 business of creating and licensing software in the field of
 computational chemistry and represents and warrants to the
 licensee that it is not a competitor of Gaussian, Inc. and that
 it will not use this program in any manner prohibited above.
 ---------------------------------------------------------------
  

 Cite this work as:
 Gaussian 16, Revision A.03,
 M. J. Frisch, G. W. Trucks, H. B. Schlegel, G. E. Scuseria, 
 M. A. Robb, J. R. Cheeseman, G. Scalmani, V. Barone, 
 G. A. Petersson, H. Nakatsuji, X. Li, M. Caricato, A. V. Marenich, 
 J. Bloino, B. G. Janesko, R. Gomperts, B. Mennucci, H. P. Hratchian, 
 J. V. Ortiz, A. F. Izmaylov, J. L. Sonnenberg, D. Williams-Young, 
 F. Ding, F. Lipparini, F. Egidi, J. Goings, B. Peng, A. Petrone, 
 T. Henderson, D. Ranasinghe, V. G. Zakrzewski, J. Gao, N. Rega, 
 G. Zheng, W. Liang, M. Hada, M. Ehara, K. Toyota, R. Fukuda, 
 J. Hasegawa, M. Ishida, T. Nakajima, Y. Honda, O. Kitao, H. Nakai, 
 T. Vreven, K. Throssell, J. A. Montgomery, Jr., J. E. Peralta, 
 F. Ogliaro, M. J. Bearpark, J. J. Heyd, E. N. Brothers, K. N. Kudin, 
 V. N. Staroverov, T. A. Keith, R. Kobayashi, J. Normand, 
 K. Raghavachari, A. P. Rendell, J. C. Burant, S. S. Iyengar, 
 J. Tomasi, M. Cossi, J. M. Millam, M. Klene, C. Adamo, R. Cammi, 
 J. W. Ochterski, R. L. Martin, K. Morokuma, O. Farkas, 
 J. B. Foresman, and D. J. Fox, Gaussian, Inc., Wallingford CT, 2016.
 
 ******************************************
 Gaussian 16:  ES64L-G16RevA.03 25-Dec-2016
                 6-Nov-2024 
 ******************************************
 %chk=CURCUMIN-OPT-FREQ-Reag-M06-2X-6-311+G-D-298.chk
 ----------------------------------------------------------------------
 # opt=(calcfc) freq=noraman M062X/6-311+g(d) scrf=(smd,solvent=generic
 ,read) temperature=298.15
 ----------------------------------------------------------------------
 1/10=4,18=20,19=15,26=3,38=1,40=2,112=298150/1,3;
 2/9=110,12=2,17=6,18=5,40=1/2;
 3/5=4,6=6,7=11,11=2,25=1,30=1,70=32203,71=2,72=-2,74=-55,140=1/1,2,3;
 4//1;
 5/5=2,38=5/2;
 8/6=4,10=90,11=11/1;
 11/6=1,8=1,9=11,15=111,16=1/1,2,10;
 10/6=1,13=1/2;
 6/7=2,8=2,9=2,10=2,28=1/1;
 7/10=1,18=20,25=1/1,2,3,16;
 1/10=4,18=20,19=15,26=3/3(2);
 2/9=110/2;
 99//99;
 2/9=110/2;
 3/5=4,6=6,7=11,11=2,25=1,30=1,70=32205,71=1,72=-2,74=-55/1,2,3;
 4/5=5,16=3,69=1/1;
 5/5=2,38=5/2;
 7//1,2,3,16;
 1/18=20,19=15,26=3/3(-5);
 2/9=110/2;
 6/7=2,8=2,9=2,10=2,19=2,28=1/1;
 99/9=1/99;
 ---
 XXX
 ---
 Symbolic Z-matrix:
 Charge =  0 Multiplicity = 2
 C                    -2.75164   0.25606  -0.31256 
 H                    -2.34134   0.67513  -1.22823 
 C                    -1.99828   0.29842   0.80551 
 H                    -2.36468  -0.09134   1.75099 
 C                    -0.64395   0.8619    0.89769 
 O                    -0.06041   0.88736   1.97146 
 C                    -4.09393  -0.29383  -0.45735 
 C                    -4.73016  -0.20751  -1.70536 
 C                    -4.79089  -0.92173   0.59389 
 C                    -6.01094  -0.71145  -1.89517 
 H                    -4.2179    0.26762  -2.53569 
 C                    -6.06701  -1.42918   0.41989 
 H                    -4.35005  -1.01921   1.57953 
 C                    -6.69403  -1.31893  -0.84156 
 H                    -6.49382  -0.62467  -2.86491 
 O                    -7.95473  -1.80672  -0.96221 
 H                    -8.27358  -1.66812  -1.86524 
 O                    -6.72311  -1.97209   1.49262 
 C                    -6.94453  -3.38999   1.43455 
 H                    -5.99345  -3.92558   1.34812 
 H                    -7.42535  -3.65879   2.37468 
 H                    -7.59748  -3.6599    0.60258 
 C                     2.69831  -0.00374  -0.18498 
 H                     1.79247  -0.57805  -0.36315 
 C                     2.59408   1.33235  -0.0305 
 H                     3.46827   1.94796   0.16107 
 C                     1.34582   2.09857  -0.08687 
 O                     1.36892   3.31277   0.08208 
 C                     3.91252  -0.8088   -0.13937 
 C                     3.81516  -2.19482  -0.3384 
 C                     5.19313  -0.26582   0.08483 
 C                     4.94238  -3.00637  -0.30506 
 H                     2.84295  -2.6433   -0.5157 
 C                     6.32496  -1.06167   0.12327 
 H                     5.33034   0.79686   0.24858 
 C                     6.20215  -2.45606  -0.06848 
 H                     4.84811  -4.0789   -0.45268 
 O                     7.3329   -3.20354   0.00246 
 H                     7.11712  -4.13604  -0.13948 
 O                     7.53527  -0.48905   0.41232 
 C                     8.48497  -0.46287  -0.66454 
 H                     8.07863   0.07982  -1.52439 
 H                     9.35778   0.06692  -0.28389 
 H                     8.77537  -1.47051  -0.96749 
 C                     0.01859   1.4061   -0.37251 
 H                     0.1303    0.59051  -1.09246 
 H                    -0.64062   2.14511  -0.83242 
 O                    -1.3567    4.80617  -0.82251 
 O                    -0.2857    5.93241   0.72862 
 N                    -0.81926   4.98889   0.23143 
 
 Add virtual bond connecting atoms O48        and H47        Dist= 5.21D+00.
 Add virtual bond connecting atoms N50        and O28        Dist= 5.22D+00.

 GradGradGradGradGradGradGradGradGradGradGradGradGradGradGradGradGradGrad
 Berny optimization.
 Initialization pass.
                           ----------------------------
                           !    Initial Parameters    !
                           ! (Angstroms and Degrees)  !
 --------------------------                            --------------------------
 ! Name  Definition              Value          Derivative Info.                !
 --------------------------------------------------------------------------------
 ! R1    R(1,2)                  1.0874         calculate D2E/DX2 analytically  !
 ! R2    R(1,3)                  1.3489         calculate D2E/DX2 analytically  !
 ! R3    R(1,7)                  1.4578         calculate D2E/DX2 analytically  !
 ! R4    R(3,4)                  1.0863         calculate D2E/DX2 analytically  !
 ! R5    R(3,5)                  1.4698         calculate D2E/DX2 analytically  !
 ! R6    R(5,6)                  1.2224         calculate D2E/DX2 analytically  !
 ! R7    R(5,45)                 1.5325         calculate D2E/DX2 analytically  !
 ! R8    R(7,8)                  1.4035         calculate D2E/DX2 analytically  !
 ! R9    R(7,9)                  1.4089         calculate D2E/DX2 analytically  !
 ! R10   R(8,10)                 1.3894         calculate D2E/DX2 analytically  !
 ! R11   R(8,11)                 1.0852         calculate D2E/DX2 analytically  !
 ! R12   R(9,12)                 1.3843         calculate D2E/DX2 analytically  !
 ! R13   R(9,13)                 1.0841         calculate D2E/DX2 analytically  !
 ! R14   R(10,14)                1.3949         calculate D2E/DX2 analytically  !
 ! R15   R(10,15)                1.0868         calculate D2E/DX2 analytically  !
 ! R16   R(12,14)                1.413          calculate D2E/DX2 analytically  !
 ! R17   R(12,18)                1.3697         calculate D2E/DX2 analytically  !
 ! R18   R(14,16)                1.3572         calculate D2E/DX2 analytically  !
 ! R19   R(16,17)                0.9676         calculate D2E/DX2 analytically  !
 ! R20   R(18,19)                1.4363         calculate D2E/DX2 analytically  !
 ! R21   R(19,20)                1.0949         calculate D2E/DX2 analytically  !
 ! R22   R(19,21)                1.0896         calculate D2E/DX2 analytically  !
 ! R23   R(19,22)                1.0915         calculate D2E/DX2 analytically  !
 ! R24   R(23,24)                1.0873         calculate D2E/DX2 analytically  !
 ! R25   R(23,25)                1.349          calculate D2E/DX2 analytically  !
 ! R26   R(23,29)                1.4576         calculate D2E/DX2 analytically  !
 ! R27   R(25,26)                1.0862         calculate D2E/DX2 analytically  !
 ! R28   R(25,27)                1.4657         calculate D2E/DX2 analytically  !
 ! R29   R(27,28)                1.2261         calculate D2E/DX2 analytically  !
 ! R30   R(27,45)                1.524          calculate D2E/DX2 analytically  !
 ! R31   R(28,50)                2.7604         calculate D2E/DX2 analytically  !
 ! R32   R(29,30)                1.4036         calculate D2E/DX2 analytically  !
 ! R33   R(29,31)                1.4089         calculate D2E/DX2 analytically  !
 ! R34   R(30,32)                1.3894         calculate D2E/DX2 analytically  !
 ! R35   R(30,33)                1.0853         calculate D2E/DX2 analytically  !
 ! R36   R(31,34)                1.3842         calculate D2E/DX2 analytically  !
 ! R37   R(31,35)                1.0839         calculate D2E/DX2 analytically  !
 ! R38   R(32,36)                1.3949         calculate D2E/DX2 analytically  !
 ! R39   R(32,37)                1.0867         calculate D2E/DX2 analytically  !
 ! R40   R(34,36)                1.4129         calculate D2E/DX2 analytically  !
 ! R41   R(34,40)                1.3698         calculate D2E/DX2 analytically  !
 ! R42   R(36,38)                1.3573         calculate D2E/DX2 analytically  !
 ! R43   R(38,39)                0.9676         calculate D2E/DX2 analytically  !
 ! R44   R(40,41)                1.436          calculate D2E/DX2 analytically  !
 ! R45   R(41,42)                1.095          calculate D2E/DX2 analytically  !
 ! R46   R(41,43)                1.0897         calculate D2E/DX2 analytically  !
 ! R47   R(41,44)                1.0915         calculate D2E/DX2 analytically  !
 ! R48   R(45,46)                1.0936         calculate D2E/DX2 analytically  !
 ! R49   R(45,47)                1.0919         calculate D2E/DX2 analytically  !
 ! R50   R(47,48)                2.7558         calculate D2E/DX2 analytically  !
 ! R51   R(48,50)                1.1971         calculate D2E/DX2 analytically  !
 ! R52   R(49,50)                1.1925         calculate D2E/DX2 analytically  !
 ! A1    A(2,1,3)              118.3696         calculate D2E/DX2 analytically  !
 ! A2    A(2,1,7)              114.1532         calculate D2E/DX2 analytically  !
 ! A3    A(3,1,7)              127.4769         calculate D2E/DX2 analytically  !
 ! A4    A(1,3,4)              121.4522         calculate D2E/DX2 analytically  !
 ! A5    A(1,3,5)              125.3572         calculate D2E/DX2 analytically  !
 ! A6    A(4,3,5)              113.189          calculate D2E/DX2 analytically  !
 ! A7    A(3,5,6)              120.1968         calculate D2E/DX2 analytically  !
 ! A8    A(3,5,45)             118.8509         calculate D2E/DX2 analytically  !
 ! A9    A(6,5,45)             120.9516         calculate D2E/DX2 analytically  !
 ! A10   A(1,7,8)              118.8507         calculate D2E/DX2 analytically  !
 ! A11   A(1,7,9)              123.332          calculate D2E/DX2 analytically  !
 ! A12   A(8,7,9)              117.8157         calculate D2E/DX2 analytically  !
 ! A13   A(7,8,10)             121.1351         calculate D2E/DX2 analytically  !
 ! A14   A(7,8,11)             119.5598         calculate D2E/DX2 analytically  !
 ! A15   A(10,8,11)            119.3033         calculate D2E/DX2 analytically  !
 ! A16   A(7,9,12)             121.7085         calculate D2E/DX2 analytically  !
 ! A17   A(7,9,13)             121.1486         calculate D2E/DX2 analytically  !
 ! A18   A(12,9,13)            117.1405         calculate D2E/DX2 analytically  !
 ! A19   A(8,10,14)            120.4111         calculate D2E/DX2 analytically  !
 ! A20   A(8,10,15)            120.1672         calculate D2E/DX2 analytically  !
 ! A21   A(14,10,15)           119.4179         calculate D2E/DX2 analytically  !
 ! A22   A(9,12,14)            119.5172         calculate D2E/DX2 analytically  !
 ! A23   A(9,12,18)            119.2387         calculate D2E/DX2 analytically  !
 ! A24   A(14,12,18)           121.1695         calculate D2E/DX2 analytically  !
 ! A25   A(10,14,12)           119.4062         calculate D2E/DX2 analytically  !
 ! A26   A(10,14,16)           122.9754         calculate D2E/DX2 analytically  !
 ! A27   A(12,14,16)           117.6154         calculate D2E/DX2 analytically  !
 ! A28   A(14,16,17)           109.7296         calculate D2E/DX2 analytically  !
 ! A29   A(12,18,19)           115.6901         calculate D2E/DX2 analytically  !
 ! A30   A(18,19,20)           110.6207         calculate D2E/DX2 analytically  !
 ! A31   A(18,19,21)           106.0627         calculate D2E/DX2 analytically  !
 ! A32   A(18,19,22)           111.541          calculate D2E/DX2 analytically  !
 ! A33   A(20,19,21)           109.3129         calculate D2E/DX2 analytically  !
 ! A34   A(20,19,22)           109.7848         calculate D2E/DX2 analytically  !
 ! A35   A(21,19,22)           109.4313         calculate D2E/DX2 analytically  !
 ! A36   A(24,23,25)           118.5254         calculate D2E/DX2 analytically  !
 ! A37   A(24,23,29)           114.043          calculate D2E/DX2 analytically  !
 ! A38   A(25,23,29)           127.4314         calculate D2E/DX2 analytically  !
 ! A39   A(23,25,26)           121.2873         calculate D2E/DX2 analytically  !
 ! A40   A(23,25,27)           125.3891         calculate D2E/DX2 analytically  !
 ! A41   A(26,25,27)           113.322          calculate D2E/DX2 analytically  !
 ! A42   A(25,27,28)           119.757          calculate D2E/DX2 analytically  !
 ! A43   A(25,27,45)           120.7535         calculate D2E/DX2 analytically  !
 ! A44   A(28,27,45)           119.4842         calculate D2E/DX2 analytically  !
 ! A45   A(27,28,50)           126.4286         calculate D2E/DX2 analytically  !
 ! A46   A(23,29,30)           118.8937         calculate D2E/DX2 analytically  !
 ! A47   A(23,29,31)           123.3187         calculate D2E/DX2 analytically  !
 ! A48   A(30,29,31)           117.7855         calculate D2E/DX2 analytically  !
 ! A49   A(29,30,32)           121.1388         calculate D2E/DX2 analytically  !
 ! A50   A(29,30,33)           119.5629         calculate D2E/DX2 analytically  !
 ! A51   A(32,30,33)           119.2973         calculate D2E/DX2 analytically  !
 ! A52   A(29,31,34)           121.7404         calculate D2E/DX2 analytically  !
 ! A53   A(29,31,35)           121.1259         calculate D2E/DX2 analytically  !
 ! A54   A(34,31,35)           117.1286         calculate D2E/DX2 analytically  !
 ! A55   A(30,32,36)           120.4205         calculate D2E/DX2 analytically  !
 ! A56   A(30,32,37)           120.1883         calculate D2E/DX2 analytically  !
 ! A57   A(36,32,37)           119.3879         calculate D2E/DX2 analytically  !
 ! A58   A(31,34,36)           119.5121         calculate D2E/DX2 analytically  !
 ! A59   A(31,34,40)           119.2097         calculate D2E/DX2 analytically  !
 ! A60   A(36,34,40)           121.1993         calculate D2E/DX2 analytically  !
 ! A61   A(32,36,34)           119.3974         calculate D2E/DX2 analytically  !
 ! A62   A(32,36,38)           122.9538         calculate D2E/DX2 analytically  !
 ! A63   A(34,36,38)           117.645          calculate D2E/DX2 analytically  !
 ! A64   A(36,38,39)           109.711          calculate D2E/DX2 analytically  !
 ! A65   A(34,40,41)           115.7039         calculate D2E/DX2 analytically  !
 ! A66   A(40,41,42)           110.6388         calculate D2E/DX2 analytically  !
 ! A67   A(40,41,43)           106.0587         calculate D2E/DX2 analytically  !
 ! A68   A(40,41,44)           111.5456         calculate D2E/DX2 analytically  !
 ! A69   A(42,41,43)           109.3045         calculate D2E/DX2 analytically  !
 ! A70   A(42,41,44)           109.774          calculate D2E/DX2 analytically  !
 ! A71   A(43,41,44)           109.4317         calculate D2E/DX2 analytically  !
 ! A72   A(5,45,27)            112.489          calculate D2E/DX2 analytically  !
 ! A73   A(5,45,46)            108.9643         calculate D2E/DX2 analytically  !
 ! A74   A(5,45,47)            109.1752         calculate D2E/DX2 analytically  !
 ! A75   A(27,45,46)           111.918          calculate D2E/DX2 analytically  !
 ! A76   A(27,45,47)           107.2896         calculate D2E/DX2 analytically  !
 ! A77   A(46,45,47)           106.8058         calculate D2E/DX2 analytically  !
 ! A78   A(45,47,48)           143.9917         calculate D2E/DX2 analytically  !
 ! A79   A(47,48,50)            91.9423         calculate D2E/DX2 analytically  !
 ! A80   A(28,50,48)           102.4495         calculate D2E/DX2 analytically  !
 ! A81   A(28,50,49)            98.5286         calculate D2E/DX2 analytically  !
 ! A82   A(48,50,49)           133.5277         calculate D2E/DX2 analytically  !
 ! D1    D(2,1,3,4)            179.0277         calculate D2E/DX2 analytically  !
 ! D2    D(2,1,3,5)             -0.4599         calculate D2E/DX2 analytically  !
 ! D3    D(7,1,3,4)             -0.733          calculate D2E/DX2 analytically  !
 ! D4    D(7,1,3,5)            179.7794         calculate D2E/DX2 analytically  !
 ! D5    D(2,1,7,8)             -1.6017         calculate D2E/DX2 analytically  !
 ! D6    D(2,1,7,9)            177.9243         calculate D2E/DX2 analytically  !
 ! D7    D(3,1,7,8)            178.1676         calculate D2E/DX2 analytically  !
 ! D8    D(3,1,7,9)             -2.3064         calculate D2E/DX2 analytically  !
 ! D9    D(1,3,5,6)            177.798          calculate D2E/DX2 analytically  !
 ! D10   D(1,3,5,45)            -2.5058         calculate D2E/DX2 analytically  !
 ! D11   D(4,3,5,6)             -1.7265         calculate D2E/DX2 analytically  !
 ! D12   D(4,3,5,45)           177.9698         calculate D2E/DX2 analytically  !
 ! D13   D(3,5,45,27)          173.3671         calculate D2E/DX2 analytically  !
 ! D14   D(3,5,45,46)          -61.921          calculate D2E/DX2 analytically  !
 ! D15   D(3,5,45,47)           54.3859         calculate D2E/DX2 analytically  !
 ! D16   D(6,5,45,27)           -6.939          calculate D2E/DX2 analytically  !
 ! D17   D(6,5,45,46)          117.7729         calculate D2E/DX2 analytically  !
 ! D18   D(6,5,45,47)         -125.9202         calculate D2E/DX2 analytically  !
 ! D19   D(1,7,8,10)          -179.7635         calculate D2E/DX2 analytically  !
 ! D20   D(1,7,8,11)            -0.2558         calculate D2E/DX2 analytically  !
 ! D21   D(9,7,8,10)             0.6843         calculate D2E/DX2 analytically  !
 ! D22   D(9,7,8,11)          -179.8081         calculate D2E/DX2 analytically  !
 ! D23   D(1,7,9,12)           179.817          calculate D2E/DX2 analytically  !
 ! D24   D(1,7,9,13)             0.3845         calculate D2E/DX2 analytically  !
 ! D25   D(8,7,9,12)            -0.6524         calculate D2E/DX2 analytically  !
 ! D26   D(8,7,9,13)           179.9151         calculate D2E/DX2 analytically  !
 ! D27   D(7,8,10,14)           -0.0743         calculate D2E/DX2 analytically  !
 ! D28   D(7,8,10,15)          179.2069         calculate D2E/DX2 analytically  !
 ! D29   D(11,8,10,14)        -179.5832         calculate D2E/DX2 analytically  !
 ! D30   D(11,8,10,15)          -0.3021         calculate D2E/DX2 analytically  !
 ! D31   D(7,9,12,14)            0.0104         calculate D2E/DX2 analytically  !
 ! D32   D(7,9,12,18)         -176.8873         calculate D2E/DX2 analytically  !
 ! D33   D(13,9,12,14)         179.4646         calculate D2E/DX2 analytically  !
 ! D34   D(13,9,12,18)           2.5669         calculate D2E/DX2 analytically  !
 ! D35   D(8,10,14,12)          -0.5855         calculate D2E/DX2 analytically  !
 ! D36   D(8,10,14,16)         178.7685         calculate D2E/DX2 analytically  !
 ! D37   D(15,10,14,12)       -179.8719         calculate D2E/DX2 analytically  !
 ! D38   D(15,10,14,16)         -0.518          calculate D2E/DX2 analytically  !
 ! D39   D(9,12,14,10)           0.6151         calculate D2E/DX2 analytically  !
 ! D40   D(9,12,14,16)        -178.7732         calculate D2E/DX2 analytically  !
 ! D41   D(18,12,14,10)        177.4513         calculate D2E/DX2 analytically  !
 ! D42   D(18,12,14,16)         -1.937          calculate D2E/DX2 analytically  !
 ! D43   D(9,12,18,19)        -112.2189         calculate D2E/DX2 analytically  !
 ! D44   D(14,12,18,19)         70.9363         calculate D2E/DX2 analytically  !
 ! D45   D(10,14,16,17)          0.3145         calculate D2E/DX2 analytically  !
 ! D46   D(12,14,16,17)        179.6793         calculate D2E/DX2 analytically  !
 ! D47   D(12,18,19,20)         58.8178         calculate D2E/DX2 analytically  !
 ! D48   D(12,18,19,21)        177.2466         calculate D2E/DX2 analytically  !
 ! D49   D(12,18,19,22)        -63.6857         calculate D2E/DX2 analytically  !
 ! D50   D(24,23,25,26)        179.272          calculate D2E/DX2 analytically  !
 ! D51   D(24,23,25,27)         -0.246          calculate D2E/DX2 analytically  !
 ! D52   D(29,23,25,26)         -0.5669         calculate D2E/DX2 analytically  !
 ! D53   D(29,23,25,27)        179.9152         calculate D2E/DX2 analytically  !
 ! D54   D(24,23,29,30)          0.7998         calculate D2E/DX2 analytically  !
 ! D55   D(24,23,29,31)       -179.7458         calculate D2E/DX2 analytically  !
 ! D56   D(25,23,29,30)       -179.3552         calculate D2E/DX2 analytically  !
 ! D57   D(25,23,29,31)          0.0991         calculate D2E/DX2 analytically  !
 ! D58   D(23,25,27,28)        179.2472         calculate D2E/DX2 analytically  !
 ! D59   D(23,25,27,45)         -1.6            calculate D2E/DX2 analytically  !
 ! D60   D(26,25,27,28)         -0.3042         calculate D2E/DX2 analytically  !
 ! D61   D(26,25,27,45)        178.8486         calculate D2E/DX2 analytically  !
 ! D62   D(25,27,28,50)       -174.8557         calculate D2E/DX2 analytically  !
 ! D63   D(45,27,28,50)          5.9806         calculate D2E/DX2 analytically  !
 ! D64   D(25,27,45,5)          86.757          calculate D2E/DX2 analytically  !
 ! D65   D(25,27,45,46)        -36.3159         calculate D2E/DX2 analytically  !
 ! D66   D(25,27,45,47)       -153.1653         calculate D2E/DX2 analytically  !
 ! D67   D(28,27,45,5)         -94.0879         calculate D2E/DX2 analytically  !
 ! D68   D(28,27,45,46)        142.8393         calculate D2E/DX2 analytically  !
 ! D69   D(28,27,45,47)         25.9899         calculate D2E/DX2 analytically  !
 ! D70   D(27,28,50,48)        -58.6347         calculate D2E/DX2 analytically  !
 ! D71   D(27,28,50,49)        163.096          calculate D2E/DX2 analytically  !
 ! D72   D(23,29,30,32)        179.9832         calculate D2E/DX2 analytically  !
 ! D73   D(23,29,30,33)         -0.3846         calculate D2E/DX2 analytically  !
 ! D74   D(31,29,30,32)          0.4985         calculate D2E/DX2 analytically  !
 ! D75   D(31,29,30,33)       -179.8693         calculate D2E/DX2 analytically  !
 ! D76   D(23,29,31,34)        179.9197         calculate D2E/DX2 analytically  !
 ! D77   D(23,29,31,35)          0.7704         calculate D2E/DX2 analytically  !
 ! D78   D(30,29,31,34)         -0.6203         calculate D2E/DX2 analytically  !
 ! D79   D(30,29,31,35)       -179.7696         calculate D2E/DX2 analytically  !
 ! D80   D(29,30,32,36)          0.1405         calculate D2E/DX2 analytically  !
 ! D81   D(29,30,32,37)        179.4727         calculate D2E/DX2 analytically  !
 ! D82   D(33,30,32,36)       -179.4927         calculate D2E/DX2 analytically  !
 ! D83   D(33,30,32,37)         -0.1604         calculate D2E/DX2 analytically  !
 ! D84   D(29,31,34,36)          0.1018         calculate D2E/DX2 analytically  !
 ! D85   D(29,31,34,40)       -176.7072         calculate D2E/DX2 analytically  !
 ! D86   D(35,31,34,36)        179.2835         calculate D2E/DX2 analytically  !
 ! D87   D(35,31,34,40)          2.4746         calculate D2E/DX2 analytically  !
 ! D88   D(30,32,36,34)         -0.6715         calculate D2E/DX2 analytically  !
 ! D89   D(30,32,36,38)        178.5964         calculate D2E/DX2 analytically  !
 ! D90   D(37,32,36,34)        179.9909         calculate D2E/DX2 analytically  !
 ! D91   D(37,32,36,38)         -0.7411         calculate D2E/DX2 analytically  !
 ! D92   D(31,34,36,32)          0.5503         calculate D2E/DX2 analytically  !
 ! D93   D(31,34,36,38)       -178.7563         calculate D2E/DX2 analytically  !
 ! D94   D(40,34,36,32)        177.294          calculate D2E/DX2 analytically  !
 ! D95   D(40,34,36,38)         -2.0126         calculate D2E/DX2 analytically  !
 ! D96   D(31,34,40,41)       -112.2504         calculate D2E/DX2 analytically  !
 ! D97   D(36,34,40,41)         70.9963         calculate D2E/DX2 analytically  !
 ! D98   D(32,36,38,39)          0.3675         calculate D2E/DX2 analytically  !
 ! D99   D(34,36,38,39)        179.6475         calculate D2E/DX2 analytically  !
 ! D100  D(34,40,41,42)         58.6036         calculate D2E/DX2 analytically  !
 ! D101  D(34,40,41,43)        177.0297         calculate D2E/DX2 analytically  !
 ! D102  D(34,40,41,44)        -63.902          calculate D2E/DX2 analytically  !
 ! D103  D(5,45,47,48)          86.0647         calculate D2E/DX2 analytically  !
 ! D104  D(27,45,47,48)        -36.1018         calculate D2E/DX2 analytically  !
 ! D105  D(46,45,47,48)       -156.2606         calculate D2E/DX2 analytically  !
 ! D106  D(45,47,48,50)        -15.5683         calculate D2E/DX2 analytically  !
 ! D107  D(47,48,50,28)         34.9596         calculate D2E/DX2 analytically  !
 ! D108  D(47,48,50,49)        149.7421         calculate D2E/DX2 analytically  !
 --------------------------------------------------------------------------------
 Trust Radius=3.00D-01 FncErr=1.00D-07 GrdErr=1.00D-06 EigMax=2.50D+02 EigMin=1.00D-04
 Number of steps in this run=    252 maximum allowed number of steps=    300.
 GradGradGradGradGradGradGradGradGradGradGradGradGradGradGradGradGradGrad

                          Input orientation:                          
 ---------------------------------------------------------------------
 Center     Atomic      Atomic             Coordinates (Angstroms)
 Number     Number       Type             X           Y           Z
 ---------------------------------------------------------------------
      1          6           0       -2.751635    0.256058   -0.312564
      2          1           0       -2.341337    0.675132   -1.228229
      3          6           0       -1.998279    0.298418    0.805510
      4          1           0       -2.364682   -0.091341    1.750987
      5          6           0       -0.643946    0.861900    0.897689
      6          8           0       -0.060407    0.887355    1.971457
      7          6           0       -4.093930   -0.293825   -0.457346
      8          6           0       -4.730160   -0.207514   -1.705364
      9          6           0       -4.790893   -0.921728    0.593892
     10          6           0       -6.010944   -0.711446   -1.895166
     11          1           0       -4.217903    0.267623   -2.535693
     12          6           0       -6.067014   -1.429181    0.419890
     13          1           0       -4.350054   -1.019209    1.579525
     14          6           0       -6.694027   -1.318931   -0.841558
     15          1           0       -6.493820   -0.624671   -2.864908
     16          8           0       -7.954729   -1.806719   -0.962212
     17          1           0       -8.273583   -1.668120   -1.865243
     18          8           0       -6.723111   -1.972090    1.492617
     19          6           0       -6.944534   -3.389985    1.434552
     20          1           0       -5.993450   -3.925579    1.348123
     21          1           0       -7.425351   -3.658790    2.374681
     22          1           0       -7.597478   -3.659899    0.602582
     23          6           0        2.698306   -0.003742   -0.184978
     24          1           0        1.792465   -0.578045   -0.363154
     25          6           0        2.594082    1.332352   -0.030504
     26          1           0        3.468268    1.947962    0.161071
     27          6           0        1.345820    2.098566   -0.086866
     28          8           0        1.368921    3.312774    0.082083
     29          6           0        3.912516   -0.808800   -0.139369
     30          6           0        3.815157   -2.194816   -0.338400
     31          6           0        5.193132   -0.265822    0.084827
     32          6           0        4.942378   -3.006369   -0.305057
     33          1           0        2.842945   -2.643303   -0.515701
     34          6           0        6.324963   -1.061673    0.123272
     35          1           0        5.330341    0.796862    0.248582
     36          6           0        6.202153   -2.456064   -0.068483
     37          1           0        4.848112   -4.078902   -0.452677
     38          8           0        7.332900   -3.203542    0.002458
     39          1           0        7.117122   -4.136044   -0.139478
     40          8           0        7.535273   -0.489053    0.412317
     41          6           0        8.484971   -0.462874   -0.664542
     42          1           0        8.078633    0.079824   -1.524393
     43          1           0        9.357780    0.066918   -0.283886
     44          1           0        8.775369   -1.470507   -0.967492
     45          6           0        0.018587    1.406103   -0.372506
     46          1           0        0.130300    0.590509   -1.092464
     47          1           0       -0.640617    2.145105   -0.832419
     48          8           0       -1.356703    4.806173   -0.822513
     49          8           0       -0.285703    5.932410    0.728617
     50          7           0       -0.819257    4.988892    0.231428
 ---------------------------------------------------------------------
                    Distance matrix (angstroms):
                    1          2          3          4          5
     1  C    0.000000
     2  H    1.087387   0.000000
     3  C    1.348862   2.096592   0.000000
     4  H    2.128065   3.076321   1.086319   0.000000
     5  C    2.504817   2.726820   1.469771   2.144229   0.000000
     6  O    3.585805   3.935184   2.337012   2.513192   1.222352
     7  C    1.457769   2.145861   2.517401   2.812123   3.882552
     8  C    2.463605   2.590984   3.744814   4.189910   4.961520
     9  C    2.523374   3.445346   3.054870   2.813345   4.524466
    10  C    3.750172   3.979123   4.941149   5.193668   6.251410
    11  H    2.663152   2.323150   4.011398   4.683899   4.991437
    12  C    3.790548   4.585313   4.437106   4.155586   5.906523
    13  H    2.785902   3.845675   2.804654   2.198190   4.211735
    14  C    4.278186   4.803302   5.232466   5.193409   6.662168
    15  H    4.614552   4.648798   5.876559   6.216165   7.112528
    16  O    5.634650   6.143331   6.560163   6.446130   8.001769
    17  H    6.050222   6.410005   7.097861   7.104820   8.499774
    18  O    4.898565   5.797476   5.286905   4.753933   6.733624
    19  C    5.824641   6.693654   6.202052   5.652984   7.619984
    20  H    5.545569   6.414208   5.839347   5.294491   7.193055
    21  H    6.662653   7.590194   6.897456   6.223026   8.282850
    22  H    6.297174   7.054883   6.860064   6.437049   8.299721
    23  C    5.457621   5.191074   4.809395   5.421207   3.618308
    24  H    4.620296   4.405352   4.062475   4.689173   3.098268
    25  C    5.460280   5.121020   4.780975   5.458017   3.401131
    26  H    6.463286   6.107517   5.746254   6.380431   4.316531
    27  C    4.498323   4.113879   3.901265   4.684146   2.541232
    28  O    5.145701   4.737097   4.576868   5.320999   3.274695
    29  C    6.750913   6.519076   6.087382   6.594802   4.962668
    30  C    7.009294   6.850607   6.428124   6.854236   5.545722
    31  C    7.971800   7.705695   7.249424   7.741259   6.000332
    32  C    8.357112   8.213294   7.767091   8.131287   6.900516
    33  H    6.304513   6.196490   5.816938   6.226537   5.142230
    34  C    9.182102   8.941353   8.461185   8.893870   7.270870
    35  H    8.119464   7.813478   7.366633   7.890469   6.009798
    36  C    9.358713   9.172820   8.694718   9.071552   7.668862
    37  H    8.750295   8.653930   8.222958   8.531188   7.509841
    38  O   10.666111  10.495216   9.998976  10.333743   8.997740
    39  H   10.803374  10.667485  10.180766  10.480367   9.289205
    40  O   10.339300  10.079392   9.574097   9.997966   8.304233
    41  C   11.265082  10.900539  10.613159  11.121501   9.355892
    42  H   10.899279  10.441163  10.345066  10.946243   9.086336
    43  H   12.110926  11.752917  11.410541  11.898818  10.102606
    44  H   11.673979  11.324880  11.060928  11.549587   9.881423
    45  C    3.000054   2.614540   2.585041   3.525838   1.532482
    46  H    3.004272   2.476809   2.866788   3.843835   2.152631
    47  H    2.880129   2.282528   2.817146   3.827281   2.154043
    48  O    4.786380   4.266100   4.835487   5.623572   4.361698
    49  O    6.275815   5.974433   5.889032   6.453911   5.085961
    50  N    5.140985   4.801651   4.870340   5.523239   4.184101
                    6          7          8          9         10
     6  O    0.000000
     7  C    4.854233   0.000000
     8  C    6.043537   1.403491   0.000000
     9  C    5.248615   1.408943   2.408395   0.000000
    10  C    7.274327   2.432422   1.389381   2.779956   0.000000
    11  H    6.163055   2.156414   1.085177   3.396642   2.140992
    12  C    6.622162   2.439598   2.792195   1.384294   2.424412
    13  H    4.710591   2.177298   3.404971   1.084119   3.863515
    14  C    7.535626   2.821164   2.416233   2.416652   1.394894
    15  H    8.189350   3.415448   2.151525   3.866717   1.086784
    16  O    8.842215   4.177261   3.675266   3.635179   2.418331
    17  H    9.418438   4.619563   3.835985   4.328230   2.456757
    18  O    7.266178   3.678522   4.160849   2.375802   3.684220
    19  C    8.122506   4.614264   4.989053   3.381889   4.374149
    20  H    7.665108   4.478564   4.974303   3.322368   4.566167
    21  H    8.664434   5.517403   5.985159   4.195603   5.377637
    22  H    8.908354   4.972801   5.046493   3.921043   4.177225
    23  C    3.613138   6.803881   7.585196   7.585344   8.903742
    24  H    3.321286   5.894005   6.669592   6.661431   7.953493
    25  C    3.354427   6.896097   7.669476   7.746522   9.038835
    26  H    4.105354   7.911693   8.680085   8.754210  10.057635
    27  C    2.771498   5.954131   6.697393   6.873489   8.080105
    28  O    3.390482   6.568202   7.265410   7.492414   8.635176
    29  C    4.807977   8.029289   8.803961   8.734973  10.078063
    30  C    5.463992   8.135206   8.879212   8.749515  10.058636
    31  C    5.699900   9.302917  10.083646  10.018489  11.386407
    32  C    6.735834   9.435886  10.166240   9.994519  11.303556
    33  H    5.203936   7.324185   8.043649   7.903828   9.166589
    34  C    6.927297  10.463271  11.237849  11.126694  12.504853
    35  H    5.660093   9.513402  10.297590  10.271912  11.640249
    36  C    7.386438  10.527859  11.280551  11.119352  12.471576
    37  H    7.391461   9.710146  10.406736  10.196738  11.460350
    38  O    8.676023  11.800437  12.546324  12.350823  13.706557
    39  H    9.011521  11.855436  12.579485  12.355990  13.680513
    40  O    7.875263  11.663310  12.450088  12.335094  13.743141
    41  C    9.044064  12.581743  13.258514  13.343267  14.550181
    42  H    8.894776  12.224954  12.813294  13.081091  14.116648
    43  H    9.719153  13.457664  14.162131  14.210308  15.472548
    44  H    9.605617  12.933046  13.584510  13.666841  14.834817
    45  C    2.401979   4.450814   5.189496   5.429901   6.569456
    46  H    3.084169   4.362286   4.963523   5.417453   6.328846
    47  H    3.127347   4.244341   4.798042   5.353935   6.174927
    48  O    4.984354   5.799633   6.107102   6.827057   7.297716
    49  O    5.200768   7.394262   7.960913   8.203298   9.154422
    50  N    4.519531   6.253398   6.785938   7.130267   7.998117
                   11         12         13         14         15
    11  H    0.000000
    12  C    3.877348   0.000000
    13  H    4.313748   2.112056   0.000000
    14  C    3.393882   1.412994   3.383147   0.000000
    15  H    2.466651   3.408709   4.950190   2.148494   0.000000
    16  O    4.554405   2.369854   4.480433   1.357153   2.674275
    17  H    4.543693   3.185572   5.261330   1.914383   2.292525
    18  O    5.245919   1.369656   2.558698   2.424012   4.566852
    19  C    6.047765   2.375780   3.517517   3.087506   5.131809
    20  H    5.984943   2.664401   3.346832   3.475647   5.375499
    21  H    7.058060   3.261509   4.130026   4.044004   6.125922
    22  H    6.057700   2.711420   4.298072   2.895150   4.738582
    23  C    7.309819   8.901044   7.336486   9.506668   9.594934
    24  H    6.446674   7.944117   6.457489   8.532194   8.655834
    25  C    7.335718   9.101841   7.506201   9.693094   9.718732
    26  H    8.317049  10.118976   8.481879  10.721478  10.724653
    27  C    6.348553   8.225078   6.703757   8.768579   8.751771
    28  O    6.880283   8.825723   7.329058   9.344353   9.274208
    29  C    8.544283  10.014423   8.442093  10.641995  10.758917
    30  C    8.684570   9.940750   8.469425  10.557618  10.729567
    31  C    9.783622  11.325041   9.688865  11.969619  12.058796
    32  C    9.980256  11.145393   9.687608  11.770353  11.958760
    33  H    7.899964   9.040840   7.665956   9.634001   9.837115
    34  C   10.953956  12.400973  10.773972  13.057227  13.169715
    35  H    9.959982  11.613971   9.938791  12.257667  12.309564
    36  C   11.049125  12.321747  10.776342  12.969278  13.128660
    37  H   10.267612  11.265983   9.904435  11.873906  12.099173
    38  O   12.325269  13.523324  11.989573  14.178110  14.354461
    39  H   12.394229  13.470762  12.006905  14.113004  14.318361
    40  O   12.140859  13.634739  11.954264  14.308525  14.407430
    41  C   12.860709  14.624295  13.041595  15.204149  15.140408
    42  H   12.339481  14.358157  12.857466  14.854436  14.650928
    43  H   13.762634  15.513152  13.876480  16.121169  16.075235
    44  H   13.202480  14.907142  13.377881  15.470651  15.409859
    45  C    4.891151   6.760271   5.364475   7.259821   7.262751
    46  H    4.592824   6.691268   5.459330   7.090864   6.963992
    47  H    4.384411   6.617370   5.439695   6.974482   6.786947
    48  O    5.632041   7.912663   6.976031   8.124302   7.749543
    49  O    7.629399   9.365463   8.097407   9.803775   9.718511
    50  N    6.441905   8.292535   7.097969   8.686360   8.561545
                   16         17         18         19         20
    16  O    0.000000
    17  H    0.967648   0.000000
    18  O    2.751439   3.711009   0.000000
    19  C    3.044947   3.952194   1.436254   0.000000
    20  H    3.697814   4.541018   2.090312   1.094939   0.000000
    21  H    3.852955   4.760170   2.028826   1.089625   1.781948
    22  H    2.451629   3.242601   2.098900   1.091496   1.788665
    23  C   10.832450  11.223894   9.769945  10.347651   9.658045
    24  H    9.842576  10.235715   8.826227   9.352749   8.646093
    25  C   11.045328  11.422576  10.002466  10.743931  10.163275
    26  H   12.076599  12.452030  11.000183  11.770381  11.199629
    27  C   10.125102  10.482531   9.174566  10.058274   9.602833
    28  O   10.687853  11.026299   9.767312  10.764278  10.401977
    29  C   11.937521  12.337669  10.822808  11.270106  10.490715
    30  C   11.792793  12.196159  10.698473  10.970084  10.101914
    31  C   13.279191  13.679241  12.119821  12.605756  11.837625
    32  C   12.969440  13.374854  11.848418  12.019654  11.098211
    33  H   10.839235  11.240527   9.797617  10.007785   9.121401
    34  C   14.340257  14.745830  13.151281  13.535880  12.706121
    35  H   13.591826  13.986105  12.429820  13.023393  12.318226
    36  C   14.199919  14.608085  13.028189  13.265244  12.365233
    37  H   13.012885  13.415890  11.921243  11.962556  10.991172
    38  O   15.381590  15.792661  14.188322  14.350288  13.413566
    39  H   15.272961  15.682561  14.103137  14.169133  13.196376
    40  O   15.606593  16.015536  14.375951  14.802877  13.989703
    41  C   16.497220  16.844686  15.434274  15.844362  15.022178
    42  H   16.153755  16.448904  15.244813  15.700015  14.910336
    43  H   17.426807  17.786962  16.306703  16.753168  15.945650
    44  H   16.733477  17.073716  15.700529  16.017789  15.149504
    45  C    8.616481   8.968790   7.767970   8.645980   8.217785
    46  H    8.433941   8.736352   7.760077   8.501966   7.990734
    47  H    8.314445   8.594741   7.704143   8.689980   8.382171
    48  O    9.342580   9.531368   8.950029  10.173259  10.121985
    49  O   11.025742  11.327065  10.222771  11.478041  11.407985
    50  N    9.925727  10.211700   9.214193  10.448546  10.367597
                   21         22         23         24         25
    21  H    0.000000
    22  H    1.780439   0.000000
    23  C   11.063438  10.954036   0.000000
    24  H   10.097270   9.929829   1.087253   0.000000
    25  C   11.449255  11.366233   1.349026   2.098300   0.000000
    26  H   12.450168  12.413451   2.126438   3.076335   1.086222
    27  C   10.776818  10.659167   2.501708   2.727650   1.465748
    28  O   11.454166  11.370374   3.582997   3.939048   2.331473
    29  C   11.957848  11.881045   1.457568   2.144282   2.516873
    30  C   11.655602  11.544702   2.464082   2.589564   3.745229
    31  C   13.265812  13.243396   2.523021   3.444228   3.053281
    32  C   12.671518  12.589635   3.750473   3.977698   4.941090
    33  H   10.715569  10.549240   2.664128   2.322083   4.012877
    34  C   14.173390  14.170917   3.790366   4.584108   4.435592
    35  H   13.677749  13.679055   2.785058   3.844627   2.802098
    36  C   13.896923  13.868286   4.278364   4.801993   5.231798
    37  H   12.601918  12.497274   4.615220   4.647687   5.877121
    38  O   14.954620  14.949401   5.635008   6.141932   6.559864
    39  H   14.765916  14.740991   6.050118   6.407914   7.097402
    40  O   15.418118  15.462555   4.897809   5.795612   5.284787
    41  C   16.510273  16.446025   5.824627   6.700279   6.190914
    42  H   16.418086  16.255768   5.545172   6.426288   5.820724
    43  H   17.396045  17.382628   6.660583   7.593171   6.885720
    44  H   16.685983  16.593031   6.300351   7.065597   6.851443
    45  C    9.413415   9.198892   3.033764   2.661498   2.599150
    46  H    9.336246   8.980963   2.787709   2.158751   2.783579
    47  H    9.487007   9.173615   4.023075   3.681799   3.430293
    48  O   10.895235  10.613790   6.323356   6.254444   5.320095
    49  O   12.069599  12.061937   6.706479   6.920749   5.479960
    50  N   11.091277  10.994709   6.121522   6.177816   5.008970
                   26         27         28         29         30
    26  H    0.000000
    27  C    2.142181   0.000000
    28  O    2.505236   1.226123   0.000000
    29  C    2.808444   3.878590   4.848328   0.000000
    30  C    4.187172   4.959236   6.041062   1.403614   0.000000
    31  C    2.807456   4.519029   5.237456   1.408924   2.408102
    32  C    5.189959   6.248456   7.269872   2.432566   1.389373
    33  H    4.682816   4.991052   6.164815   2.156620   1.085252
    34  C    4.149703   5.901113   6.610585   2.439841   2.792182
    35  H    2.190891   4.205159   4.695784   2.176898   3.404478
    36  C    5.188667   6.658000   7.527436   2.821514   2.416372
    37  H    6.213191   7.110624   8.187039   3.415709   2.151705
    38  O    6.441935   7.997841   8.833898   4.177790   3.675354
    39  H    7.100676   8.495944   9.411471   4.619529   3.835480
    40  O    4.747915   6.727130   7.251678   3.678446   4.160825
    41  C    5.626818   7.606718   8.090188   4.615497   4.991308
    42  H    5.252256   7.174439   7.619250   4.479339   4.975720
    43  H    6.198602   8.267884   8.630839   5.517125   5.986575
    44  H    6.412870   8.289269   8.879012   4.977046   5.052137
    45  C    3.532508   1.524022   2.380220   4.485848   5.232755
    46  H    3.815240   2.182419   3.213171   4.143865   4.680258
    47  H    4.231882   2.122250   2.497600   5.471462   6.239623
    48  O    5.693606   3.895631   3.236906   7.730412   8.717588
    49  O    5.503656   4.245614   3.165167   7.988889   9.165554
    50  N    5.256907   3.625307   2.760398   7.492690   8.567856
                   31         32         33         34         35
    31  C    0.000000
    32  C    2.779476   0.000000
    33  H    3.396532   2.140983   0.000000
    34  C    1.384160   2.424221   3.877408   0.000000
    35  H    1.083946   3.862848   4.313468   2.111665   0.000000
    36  C    2.416358   1.394932   3.394015   1.412862   3.382619
    37  H    3.866203   1.086740   2.466903   3.408295   4.949483
    38  O    3.635325   2.418272   4.554344   2.370261   4.480408
    39  H    4.327894   2.456236   4.542952   3.185641   5.260869
    40  O    2.375438   3.684374   5.245946   1.369778   2.557755
    41  C    3.381802   4.375907   6.050527   2.375888   3.517445
    42  H    3.321924   4.565902   5.987095   2.663301   3.348237
    43  H    4.194158   5.379713   7.059895   3.261514   4.127542
    44  H    3.923145   4.182046   6.064093   2.713190   4.299769
    45  C    5.457142   6.611972   4.939149   6.790147   5.382532
    46  H    5.267977   6.059178   4.260122   6.525455   5.374143
    47  H    6.378600   7.614829   5.929955   7.727618   6.216000
    48  O    8.333591  10.048980   8.557212   9.712575   7.870094
    49  O    8.297601  10.406877   9.213014   9.642849   7.625237
    50  N    7.986384   9.869572   8.498254   9.362741   7.442511
                   36         37         38         39         40
    36  C    0.000000
    37  H    2.148170   0.000000
    38  O    1.357330   2.673495   0.000000
    39  H    1.914299   2.291237   0.967608   0.000000
    40  O    2.424358   4.566844   2.752706   3.712125   0.000000
    41  C    3.088584   5.132961   3.046870   3.954603   1.436049
    42  H    3.474418   5.373997   3.697010   4.540489   2.090384
    43  H    4.045963   6.128084   3.857206   4.765112   2.028629
    44  H    2.898444   4.742584   2.454573   3.246610   2.098800
    45  C    7.296934   7.308626   8.653820   9.008823   7.791542
    46  H    6.870047   6.668619   8.214081   8.489062   7.633050
    47  H    8.281175   8.307142   9.637532  10.005774   8.679478
    48  O   10.509279  10.843480  11.846743  12.338375  10.422642
    49  O   10.634573  11.312731  11.917887  12.527137  10.124372
    50  N   10.238043  10.715034  11.559674  12.099097   9.991935
                   41         42         43         44         45
    41  C    0.000000
    42  H    1.094977   0.000000
    43  H    1.089667   1.781921   0.000000
    44  H    1.091528   1.788604   1.780504   0.000000
    45  C    8.675138   8.249255   9.435136   9.236348   0.000000
    46  H    8.431682   7.976425   9.277625   8.888229   1.093624
    47  H    9.492423   8.987187  10.226812  10.087204   1.091876
    48  O   11.164513  10.576227  11.728205  11.919589   3.695187
    49  O   10.943732  10.454230  11.332516  11.822986   4.668246
    50  N   10.820960  10.312822  11.316513  11.628331   3.728686
                   46         47         48         49         50
    46  H    0.000000
    47  H    1.754624   0.000000
    48  O    4.478379   2.755750   0.000000
    49  O    5.659090   4.111749   2.195781   0.000000
    50  N    4.690429   3.041514   1.197091   1.192520   0.000000
 Stoichiometry    C21H20NO8(2)
 Framework group  C1[X(C21H20NO8)]
 Deg. of freedom   144
 Full point group                 C1      NOp   1
 Largest Abelian subgroup         C1      NOp   1
 Largest concise Abelian subgroup C1      NOp   1
                         Standard orientation:                         
 ---------------------------------------------------------------------
 Center     Atomic      Atomic             Coordinates (Angstroms)
 Number     Number       Type             X           Y           Z
 ---------------------------------------------------------------------
      1          6           0       -2.751635    0.256058   -0.312564
      2          1           0       -2.341337    0.675132   -1.228229
      3          6           0       -1.998279    0.298418    0.805510
      4          1           0       -2.364682   -0.091341    1.750987
      5          6           0       -0.643946    0.861900    0.897689
      6          8           0       -0.060407    0.887355    1.971457
      7          6           0       -4.093930   -0.293825   -0.457346
      8          6           0       -4.730160   -0.207514   -1.705364
      9          6           0       -4.790893   -0.921728    0.593892
     10          6           0       -6.010944   -0.711446   -1.895166
     11          1           0       -4.217903    0.267623   -2.535693
     12          6           0       -6.067014   -1.429181    0.419890
     13          1           0       -4.350054   -1.019209    1.579525
     14          6           0       -6.694027   -1.318931   -0.841558
     15          1           0       -6.493820   -0.624671   -2.864908
     16          8           0       -7.954729   -1.806719   -0.962212
     17          1           0       -8.273583   -1.668120   -1.865243
     18          8           0       -6.723111   -1.972090    1.492617
     19          6           0       -6.944534   -3.389985    1.434552
     20          1           0       -5.993450   -3.925579    1.348123
     21          1           0       -7.425351   -3.658790    2.374681
     22          1           0       -7.597478   -3.659899    0.602582
     23          6           0        2.698306   -0.003742   -0.184978
     24          1           0        1.792465   -0.578045   -0.363154
     25          6           0        2.594082    1.332352   -0.030504
     26          1           0        3.468268    1.947962    0.161071
     27          6           0        1.345820    2.098566   -0.086866
     28          8           0        1.368921    3.312774    0.082083
     29          6           0        3.912516   -0.808800   -0.139369
     30          6           0        3.815157   -2.194816   -0.338400
     31          6           0        5.193132   -0.265822    0.084827
     32          6           0        4.942378   -3.006369   -0.305057
     33          1           0        2.842945   -2.643303   -0.515701
     34          6           0        6.324963   -1.061673    0.123272
     35          1           0        5.330341    0.796862    0.248582
     36          6           0        6.202153   -2.456064   -0.068483
     37          1           0        4.848112   -4.078902   -0.452677
     38          8           0        7.332900   -3.203542    0.002458
     39          1           0        7.117122   -4.136044   -0.139478
     40          8           0        7.535273   -0.489053    0.412317
     41          6           0        8.484971   -0.462874   -0.664542
     42          1           0        8.078633    0.079824   -1.524393
     43          1           0        9.357780    0.066918   -0.283886
     44          1           0        8.775369   -1.470507   -0.967492
     45          6           0        0.018587    1.406103   -0.372506
     46          1           0        0.130300    0.590509   -1.092464
     47          1           0       -0.640617    2.145105   -0.832419
     48          8           0       -1.356703    4.806173   -0.822513
     49          8           0       -0.285703    5.932410    0.728617
     50          7           0       -0.819257    4.988892    0.231428
 ---------------------------------------------------------------------
 Rotational constants (GHZ):           0.1839381           0.0485142           0.0403748
 Standard basis: 6-311+G(d) (5D, 7F)
 There are   750 symmetry adapted cartesian basis functions of A   symmetry.
 There are   720 symmetry adapted basis functions of A   symmetry.
   720 basis functions,  1180 primitive gaussians,   750 cartesian basis functions
   109 alpha electrons      108 beta electrons
       nuclear repulsion energy      2550.8499212606 Hartrees.
 NAtoms=   50 NActive=   50 NUniq=   50 SFac= 1.00D+00 NAtFMM=   60 NAOKFM=F Big=F
 Integral buffers will be    131072 words long.
 Raffenetti 2 integral format.
 Two-electron integral symmetry is turned on.
 Force inversion solution in PCM.
 Using the following non-standard input for PCM:
 Eps=7
 EpsInf=1.85341
 HbondAcidity=0
 HbondBasicity=0.48
 SurfaceTensionAtInterface=60.62
 CarbonAromaticity=0
 ElectronegativeHalogenicity=0
 --- end of non-standard input.
 Force inversion solution in PCM.
 ------------------------------------------------------------------------------
 Polarizable Continuum Model (PCM)
 =================================
 Model                : PCM.
 Atomic radii         : SMD-Coulomb.
 Polarization charges : Total charges.
 Charge compensation  : None.
 Solution method      : Matrix inversion.
 Cavity type          : VdW (van der Waals Surface) (Alpha=1.000).
 Cavity algorithm     : GePol (No added spheres)
                        Default sphere list used, NSphG=   50.
                        Lebedev-Laikov grids with approx.  5.0 points / Ang**2.
                        Smoothing algorithm: York/Karplus (Gamma=1.0000).
                        Polarization charges: spherical gaussians, with
                                              point-specific exponents (IZeta= 3).
                        Self-potential: point-specific (ISelfS= 7).
                        Self-field    : sphere-specific E.n sum rule (ISelfD= 2).
 1st derivatives      : Analytical E(r).r(x)/FMM algorithm (CHGder, D1EAlg=3).
                        Cavity 1st derivative terms included.
 2nd derivatives      : Analytical E(r).r(xy)/FMM algorithm (CHGder, D2EAlg=3).
                        Cavity 2nd derivative terms included.
 Solvent              : Generic,
                        Eps                           =   7.000000
                        Eps(infinity)                 =   1.853410
                        RSolv                         =   0.000000 Ang.
                        Molar volume                  =   0.000000 cm**3/mol
                        Thermal expansion coefficient =   0.000000 K**-1
                        Absolute temperature          = 298.150000 K
                        Numeral density               =   0.000000 Ang**-3
                        Hydrogen bond acidity         =   0.000000
                        Hydrogen bond basicity        =   0.480000
                        Surface tension at interface  =  60.620000 (cal/mol)*Ang**-2
                        Carbon aromaticity            =   0.000000
                        Electronegative halogenicity  =   0.000000
 ------------------------------------------------------------------------------
 ------------------------------------------------------------------------------
 Atomic radii for non-electrostatic terms: SMD-CDS.
 ------------------------------------------------------------------------------
 Nuclear repulsion after PCM non-electrostatic terms =     2550.8469744720 Hartrees.
 One-electron integrals computed using PRISM.
 NBasis=   720 RedAO= T EigKep=  1.22D-06  NBF=   720
 NBsUse=   715 1.00D-06 EigRej=  8.78D-07 NBFU=   715
 ExpMin= 4.38D-02 ExpMax= 8.59D+03 ExpMxC= 1.30D+03 IAcc=3 IRadAn=         5 AccDes= 0.00D+00
 Harris functional with IExCor= 1009 and IRadAn=       5 diagonalized for initial guess.
 HarFok:  IExCor= 1009 AccDes= 0.00D+00 IRadAn=         5 IDoV= 1 UseB2=F ITyADJ=14
 ICtDFT=  3500011 ScaDFX=  1.000000  1.000000  1.000000  1.000000
 FoFCou: FMM=F IPFlag=           0 FMFlag=      100000 FMFlg1=           0
         NFxFlg=           0 DoJE=T BraDBF=F KetDBF=T FulRan=T
         wScrn=  0.000000 ICntrl=       500 IOpCl=  0 I1Cent=   200000004 NGrid=           0
         NMat0=    1 NMatS0=      1 NMatT0=    0 NMatD0=    1 NMtDS0=    0 NMtDT0=    0
 Petite list used in FoFCou.
 Initial guess <Sx>= 0.0000 <Sy>= 0.0000 <Sz>= 0.5000 <S**2>= 0.7500 S= 0.5000
 Requested convergence on RMS density matrix=1.00D-08 within 128 cycles.
 Requested convergence on MAX density matrix=1.00D-06.
 Requested convergence on             energy=1.00D-06.
 No special actions if energy rises.
 Inv3:  Mode=1 IEnd=    57605772.
 Iteration    1 A*A^-1 deviation from unit magnitude is 3.33D-15 for   3630.
 Iteration    1 A*A^-1 deviation from orthogonality  is 2.07D-15 for   1739     28.
 Iteration    1 A^-1*A deviation from unit magnitude is 3.33D-15 for   3630.
 Iteration    1 A^-1*A deviation from orthogonality  is 6.47D-15 for   1864   1803.
 Restarting incremental Fock formation.
 Error on total polarization charges =  0.03872
 SCF Done:  E(UM062X) =  -1468.44883400     A.U. after   23 cycles
            NFock= 23  Conv=0.36D-08     -V/T= 2.0037
 <Sx>= 0.0000 <Sy>= 0.0000 <Sz>= 0.5000 <S**2>= 0.7553 S= 0.5026
 <L.S>=  0.00000000000    
 SMD-CDS (non-electrostatic) energy       (kcal/mol) =      -1.85
 (included in total energy above)
 Annihilation of the first spin contaminant:
 S**2 before annihilation     0.7553,   after     0.7500
 DoSCS=F DFT=T ScalE2(SS,OS)=  1.000000  1.000000
 Range of M.O.s used for correlation:     1   715
 NBasis=   720 NAE=   109 NBE=   108 NFC=     0 NFV=     0
 NROrb=    715 NOA=   109 NOB=   108 NVA=   606 NVB=   607

 **** Warning!!: The largest alpha MO coefficient is  0.12200173D+03


 **** Warning!!: The largest beta MO coefficient is  0.11665358D+03

 Symmetrizing basis deriv contribution to polar:
 IMax=3 JMax=2 DiffMx= 0.00D+00
 G2DrvN: will do    26 centers at a time, making    2 passes.
 Calling FoFCou, ICntrl=  3107 FMM=F I1Cent=   0 AccDes= 0.00D+00.
 Calling FoFCou, ICntrl=  3107 FMM=F I1Cent=   0 AccDes= 0.00D+00.
 NEqPCM:  Using equilibrium solvation (IEInf=0, Eps=   7.0000, EpsInf=   1.8534)
 G2PCM: DoFxE=T DoFxN=T DoGrad=T DoDP/DQ/DG/TGxP=FFFF NFrqRd=   0 IEInf=0 SqF1=F DoCFld=F IF1Alg=4.
 End of G2Drv F.D. properties file   721 does not exist.
 End of G2Drv F.D. properties file   722 does not exist.
 End of G2Drv F.D. properties file   788 does not exist.
          IDoAtm=11111111111111111111111111111111111111111111111111
 NEqPCM:  Using equilibrium solvation (IEInf=0, Eps=   7.0000, EpsInf=   1.8534)
          Differentiating once with respect to nuclear coordinates.
 CalDSu exits because no D1Ps are significant.
          There are   153 degrees of freedom in the 1st order CPHF.  IDoFFX=6 NUNeed=     0.
    150 vectors produced by pass  0 Test12= 1.32D-13 1.00D-09 XBig12= 5.36D-01 1.25D-01.
 AX will form    30 AO Fock derivatives at one time.
    150 vectors produced by pass  1 Test12= 1.32D-13 1.00D-09 XBig12= 2.68D-02 4.04D-02.
    147 vectors produced by pass  2 Test12= 1.32D-13 1.00D-09 XBig12= 8.15D-04 3.50D-03.
    147 vectors produced by pass  3 Test12= 1.32D-13 1.00D-09 XBig12= 7.49D-06 5.37D-04.
    147 vectors produced by pass  4 Test12= 1.32D-13 1.00D-09 XBig12= 1.23D-07 8.55D-05.
    147 vectors produced by pass  5 Test12= 1.32D-13 1.00D-09 XBig12= 1.48D-09 4.89D-06.
    139 vectors produced by pass  6 Test12= 1.32D-13 1.00D-09 XBig12= 1.32D-11 5.08D-07.
     91 vectors produced by pass  7 Test12= 1.32D-13 1.00D-09 XBig12= 1.89D-13 5.18D-08.
     57 vectors produced by pass  8 Test12= 1.32D-13 1.00D-09 XBig12= 8.39D-14 1.10D-08.
     56 vectors produced by pass  9 Test12= 1.32D-13 1.00D-09 XBig12= 8.06D-14 1.26D-08.
     47 vectors produced by pass 10 Test12= 1.32D-13 1.00D-09 XBig12= 4.99D-14 1.02D-08.
     38 vectors produced by pass 11 Test12= 1.32D-13 1.00D-09 XBig12= 7.36D-14 1.15D-08.
     37 vectors produced by pass 12 Test12= 1.32D-13 1.00D-09 XBig12= 4.89D-14 8.15D-09.
     35 vectors produced by pass 13 Test12= 1.32D-13 1.00D-09 XBig12= 4.14D-14 6.79D-09.
     33 vectors produced by pass 14 Test12= 1.32D-13 1.00D-09 XBig12= 4.05D-14 6.67D-09.
     33 vectors produced by pass 15 Test12= 1.32D-13 1.00D-09 XBig12= 7.05D-14 9.73D-09.
     33 vectors produced by pass 16 Test12= 1.32D-13 1.00D-09 XBig12= 1.26D-13 1.11D-08.
     22 vectors produced by pass 17 Test12= 1.32D-13 1.00D-09 XBig12= 3.46D-14 7.16D-09.
     21 vectors produced by pass 18 Test12= 1.32D-13 1.00D-09 XBig12= 3.91D-14 6.13D-09.
     21 vectors produced by pass 19 Test12= 1.32D-13 1.00D-09 XBig12= 6.20D-14 8.08D-09.
     21 vectors produced by pass 20 Test12= 1.32D-13 1.00D-09 XBig12= 7.13D-14 8.93D-09.
     21 vectors produced by pass 21 Test12= 1.32D-13 1.00D-09 XBig12= 6.37D-14 9.72D-09.
     20 vectors produced by pass 22 Test12= 1.32D-13 1.00D-09 XBig12= 3.66D-14 6.29D-09.
     20 vectors produced by pass 23 Test12= 1.32D-13 1.00D-09 XBig12= 5.05D-14 7.47D-09.
     20 vectors produced by pass 24 Test12= 1.32D-13 1.00D-09 XBig12= 7.41D-14 8.69D-09.
     17 vectors produced by pass 25 Test12= 1.32D-13 1.00D-09 XBig12= 4.45D-14 7.00D-09.
     15 vectors produced by pass 26 Test12= 1.32D-13 1.00D-09 XBig12= 4.68D-14 6.66D-09.
     14 vectors produced by pass 27 Test12= 1.32D-13 1.00D-09 XBig12= 5.13D-14 8.01D-09.
     12 vectors produced by pass 28 Test12= 1.32D-13 1.00D-09 XBig12= 2.89D-14 5.79D-09.
     12 vectors produced by pass 29 Test12= 1.32D-13 1.00D-09 XBig12= 5.80D-14 7.03D-09.
     12 vectors produced by pass 30 Test12= 1.32D-13 1.00D-09 XBig12= 5.08D-14 7.30D-09.
     12 vectors produced by pass 31 Test12= 1.32D-13 1.00D-09 XBig12= 5.28D-14 7.87D-09.
     12 vectors produced by pass 32 Test12= 1.32D-13 1.00D-09 XBig12= 5.92D-14 7.27D-09.
     11 vectors produced by pass 33 Test12= 1.32D-13 1.00D-09 XBig12= 2.98D-14 5.46D-09.
     11 vectors produced by pass 34 Test12= 1.32D-13 1.00D-09 XBig12= 9.28D-14 1.07D-08.
     11 vectors produced by pass 35 Test12= 1.32D-13 1.00D-09 XBig12= 5.48D-14 7.19D-09.
     11 vectors produced by pass 36 Test12= 1.32D-13 1.00D-09 XBig12= 6.36D-14 8.97D-09.
     11 vectors produced by pass 37 Test12= 1.32D-13 1.00D-09 XBig12= 4.51D-14 6.30D-09.
     11 vectors produced by pass 38 Test12= 1.32D-13 1.00D-09 XBig12= 6.61D-14 7.86D-09.
     10 vectors produced by pass 39 Test12= 1.32D-13 1.00D-09 XBig12= 3.05D-14 5.91D-09.
     10 vectors produced by pass 40 Test12= 1.32D-13 1.00D-09 XBig12= 6.98D-14 8.23D-09.
     10 vectors produced by pass 41 Test12= 1.32D-13 1.00D-09 XBig12= 5.08D-14 8.52D-09.
     10 vectors produced by pass 42 Test12= 1.32D-13 1.00D-09 XBig12= 5.65D-14 6.68D-09.
     10 vectors produced by pass 43 Test12= 1.32D-13 1.00D-09 XBig12= 3.83D-14 6.49D-09.
     10 vectors produced by pass 44 Test12= 1.32D-13 1.00D-09 XBig12= 5.77D-14 8.17D-09.
      3 vectors produced by pass 45 Test12= 1.32D-13 1.00D-09 XBig12= 1.28D-14 3.58D-09.
      3 vectors produced by pass 46 Test12= 1.32D-13 1.00D-09 XBig12= 3.72D-14 5.74D-09.
      3 vectors produced by pass 47 Test12= 1.32D-13 1.00D-09 XBig12= 2.26D-14 4.72D-09.
      3 vectors produced by pass 48 Test12= 1.32D-13 1.00D-09 XBig12= 5.73D-14 7.42D-09.
      3 vectors produced by pass 49 Test12= 1.32D-13 1.00D-09 XBig12= 6.47D-14 8.34D-09.
      3 vectors produced by pass 50 Test12= 1.32D-13 1.00D-09 XBig12= 6.26D-14 7.98D-09.
      3 vectors produced by pass 51 Test12= 1.32D-13 1.00D-09 XBig12= 2.81D-14 5.52D-09.
      3 vectors produced by pass 52 Test12= 1.32D-13 1.00D-09 XBig12= 3.86D-14 7.00D-09.
      3 vectors produced by pass 53 Test12= 1.32D-13 1.00D-09 XBig12= 8.67D-14 1.16D-08.
      3 vectors produced by pass 54 Test12= 1.32D-13 1.00D-09 XBig12= 4.68D-14 7.55D-09.
      3 vectors produced by pass 55 Test12= 1.32D-13 1.00D-09 XBig12= 3.51D-14 5.38D-09.
      3 vectors produced by pass 56 Test12= 1.32D-13 1.00D-09 XBig12= 8.28D-14 9.54D-09.
      3 vectors produced by pass 57 Test12= 1.32D-13 1.00D-09 XBig12= 5.91D-14 7.57D-09.
      3 vectors produced by pass 58 Test12= 1.32D-13 1.00D-09 XBig12= 6.31D-14 9.73D-09.
      3 vectors produced by pass 59 Test12= 1.32D-13 1.00D-09 XBig12= 4.41D-14 6.64D-09.
      3 vectors produced by pass 60 Test12= 1.32D-13 1.00D-09 XBig12= 3.89D-14 5.65D-09.
      3 vectors produced by pass 61 Test12= 1.32D-13 1.00D-09 XBig12= 3.22D-14 5.89D-09.
      3 vectors produced by pass 62 Test12= 1.32D-13 1.00D-09 XBig12= 4.02D-14 5.99D-09.
      3 vectors produced by pass 63 Test12= 1.32D-13 1.00D-09 XBig12= 8.03D-14 8.78D-09.
      3 vectors produced by pass 64 Test12= 1.32D-13 1.00D-09 XBig12= 4.33D-14 6.25D-09.
      3 vectors produced by pass 65 Test12= 1.32D-13 1.00D-09 XBig12= 3.69D-14 5.90D-09.
      3 vectors produced by pass 66 Test12= 1.32D-13 1.00D-09 XBig12= 4.08D-14 7.55D-09.
      3 vectors produced by pass 67 Test12= 1.32D-13 1.00D-09 XBig12= 3.52D-14 5.79D-09.
      3 vectors produced by pass 68 Test12= 1.32D-13 1.00D-09 XBig12= 3.42D-14 5.84D-09.
      3 vectors produced by pass 69 Test12= 1.32D-13 1.00D-09 XBig12= 3.77D-14 6.82D-09.
      3 vectors produced by pass 70 Test12= 1.32D-13 1.00D-09 XBig12= 2.10D-14 4.50D-09.
      3 vectors produced by pass 71 Test12= 1.32D-13 1.00D-09 XBig12= 7.44D-14 8.40D-09.
      3 vectors produced by pass 72 Test12= 1.32D-13 1.00D-09 XBig12= 2.49D-14 5.41D-09.
      3 vectors produced by pass 73 Test12= 1.32D-13 1.00D-09 XBig12= 5.60D-14 7.33D-09.
      3 vectors produced by pass 74 Test12= 1.32D-13 1.00D-09 XBig12= 5.30D-14 8.29D-09.
      3 vectors produced by pass 75 Test12= 1.32D-13 1.00D-09 XBig12= 3.75D-14 5.49D-09.
      3 vectors produced by pass 76 Test12= 1.32D-13 1.00D-09 XBig12= 4.00D-14 5.47D-09.
      3 vectors produced by pass 77 Test12= 1.32D-13 1.00D-09 XBig12= 7.83D-14 8.81D-09.
      3 vectors produced by pass 78 Test12= 1.32D-13 1.00D-09 XBig12= 4.48D-14 6.44D-09.
      3 vectors produced by pass 79 Test12= 1.32D-13 1.00D-09 XBig12= 4.32D-14 8.62D-09.
      3 vectors produced by pass 80 Test12= 1.32D-13 1.00D-09 XBig12= 4.51D-14 7.31D-09.
      3 vectors produced by pass 81 Test12= 1.32D-13 1.00D-09 XBig12= 3.48D-14 5.98D-09.
      3 vectors produced by pass 82 Test12= 1.32D-13 1.00D-09 XBig12= 5.06D-14 6.97D-09.
      3 vectors produced by pass 83 Test12= 1.32D-13 1.00D-09 XBig12= 4.64D-14 7.05D-09.
      3 vectors produced by pass 84 Test12= 1.32D-13 1.00D-09 XBig12= 6.02D-14 6.92D-09.
      3 vectors produced by pass 85 Test12= 1.32D-13 1.00D-09 XBig12= 1.73D-14 4.67D-09.
      3 vectors produced by pass 86 Test12= 1.32D-13 1.00D-09 XBig12= 4.33D-14 7.13D-09.
      3 vectors produced by pass 87 Test12= 1.32D-13 1.00D-09 XBig12= 3.89D-14 6.25D-09.
      3 vectors produced by pass 88 Test12= 1.32D-13 1.00D-09 XBig12= 2.02D-14 4.83D-09.
      3 vectors produced by pass 89 Test12= 1.32D-13 1.00D-09 XBig12= 2.91D-14 6.00D-09.
      3 vectors produced by pass 90 Test12= 1.32D-13 1.00D-09 XBig12= 2.15D-14 4.47D-09.
      3 vectors produced by pass 91 Test12= 1.32D-13 1.00D-09 XBig12= 3.99D-14 6.00D-09.
      3 vectors produced by pass 92 Test12= 1.32D-13 1.00D-09 XBig12= 9.86D-14 9.48D-09.
      3 vectors produced by pass 93 Test12= 1.32D-13 1.00D-09 XBig12= 2.34D-14 4.80D-09.
      3 vectors produced by pass 94 Test12= 1.32D-13 1.00D-09 XBig12= 3.11D-14 5.28D-09.
      3 vectors produced by pass 95 Test12= 1.32D-13 1.00D-09 XBig12= 6.41D-14 8.76D-09.
      3 vectors produced by pass 96 Test12= 1.32D-13 1.00D-09 XBig12= 4.11D-14 6.08D-09.
      3 vectors produced by pass 97 Test12= 1.32D-13 1.00D-09 XBig12= 3.27D-14 5.48D-09.
      3 vectors produced by pass 98 Test12= 1.32D-13 1.00D-09 XBig12= 2.98D-14 5.15D-09.
      3 vectors produced by pass 99 Test12= 1.32D-13 1.00D-09 XBig12= 3.04D-14 5.60D-09.
      3 vectors produced by pass100 Test12= 1.32D-13 1.00D-09 XBig12= 1.99D-14 4.08D-09.
      3 vectors produced by pass101 Test12= 1.32D-13 1.00D-09 XBig12= 3.38D-14 6.12D-09.
      3 vectors produced by pass102 Test12= 1.32D-13 1.00D-09 XBig12= 7.00D-14 7.35D-09.
      3 vectors produced by pass103 Test12= 1.32D-13 1.00D-09 XBig12= 2.68D-14 5.39D-09.
      3 vectors produced by pass104 Test12= 1.32D-13 1.00D-09 XBig12= 2.10D-14 5.54D-09.
      3 vectors produced by pass105 Test12= 1.32D-13 1.00D-09 XBig12= 2.08D-14 4.97D-09.
      3 vectors produced by pass106 Test12= 1.32D-13 1.00D-09 XBig12= 3.78D-14 5.79D-09.
      3 vectors produced by pass107 Test12= 1.32D-13 1.00D-09 XBig12= 2.96D-14 5.54D-09.
      3 vectors produced by pass108 Test12= 1.32D-13 1.00D-09 XBig12= 2.99D-14 6.08D-09.
      3 vectors produced by pass109 Test12= 1.32D-13 1.00D-09 XBig12= 3.23D-14 5.99D-09.
      3 vectors produced by pass110 Test12= 1.32D-13 1.00D-09 XBig12= 2.11D-14 4.76D-09.
      3 vectors produced by pass111 Test12= 1.32D-13 1.00D-09 XBig12= 3.40D-14 5.67D-09.
      3 vectors produced by pass112 Test12= 1.32D-13 1.00D-09 XBig12= 4.82D-14 8.19D-09.
      3 vectors produced by pass113 Test12= 1.32D-13 1.00D-09 XBig12= 2.55D-14 5.52D-09.
      3 vectors produced by pass114 Test12= 1.32D-13 1.00D-09 XBig12= 3.05D-14 6.17D-09.
      3 vectors produced by pass115 Test12= 1.32D-13 1.00D-09 XBig12= 4.59D-14 7.04D-09.
      3 vectors produced by pass116 Test12= 1.32D-13 1.00D-09 XBig12= 2.54D-14 4.79D-09.
      3 vectors produced by pass117 Test12= 1.32D-13 1.00D-09 XBig12= 4.36D-14 6.11D-09.
      3 vectors produced by pass118 Test12= 1.32D-13 1.00D-09 XBig12= 2.67D-14 4.64D-09.
      3 vectors produced by pass119 Test12= 1.32D-13 1.00D-09 XBig12= 3.78D-14 5.97D-09.
      3 vectors produced by pass120 Test12= 1.32D-13 1.00D-09 XBig12= 2.35D-14 4.32D-09.
      3 vectors produced by pass121 Test12= 1.32D-13 1.00D-09 XBig12= 5.85D-14 7.52D-09.
      3 vectors produced by pass122 Test12= 1.32D-13 1.00D-09 XBig12= 2.51D-14 5.93D-09.
      3 vectors produced by pass123 Test12= 1.32D-13 1.00D-09 XBig12= 5.92D-14 9.32D-09.
      3 vectors produced by pass124 Test12= 1.32D-13 1.00D-09 XBig12= 4.39D-14 6.95D-09.
      3 vectors produced by pass125 Test12= 1.32D-13 1.00D-09 XBig12= 5.35D-14 7.38D-09.
      3 vectors produced by pass126 Test12= 1.32D-13 1.00D-09 XBig12= 5.22D-14 6.82D-09.
      3 vectors produced by pass127 Test12= 1.32D-13 1.00D-09 XBig12= 3.93D-14 6.37D-09.
      3 vectors produced by pass128 Test12= 1.32D-13 1.00D-09 XBig12= 2.61D-14 4.88D-09.
      3 vectors produced by pass129 Test12= 1.32D-13 1.00D-09 XBig12= 4.94D-14 6.65D-09.
      3 vectors produced by pass130 Test12= 1.32D-13 1.00D-09 XBig12= 4.62D-14 6.44D-09.
      3 vectors produced by pass131 Test12= 1.32D-13 1.00D-09 XBig12= 5.81D-14 7.33D-09.
      3 vectors produced by pass132 Test12= 1.32D-13 1.00D-09 XBig12= 2.83D-14 4.95D-09.
      3 vectors produced by pass133 Test12= 1.32D-13 1.00D-09 XBig12= 4.28D-14 7.00D-09.
      3 vectors produced by pass134 Test12= 1.32D-13 1.00D-09 XBig12= 1.55D-14 3.67D-09.
      3 vectors produced by pass135 Test12= 1.32D-13 1.00D-09 XBig12= 4.58D-14 6.77D-09.
      2 vectors produced by pass136 Test12= 1.32D-13 1.00D-09 XBig12= 1.45D-14 3.65D-09.
 InvSVY:  IOpt=1 It=  1 EMax= 1.11D-15
 Solved reduced A of dimension  2160 with   153 vectors.
 End of Minotr F.D. properties file   721 does not exist.
 End of Minotr F.D. properties file   722 does not exist.
 End of Minotr F.D. properties file   788 does not exist.

 **********************************************************************

            Population analysis using the SCF density.

 **********************************************************************

 Orbital symmetries:
 Alpha Orbitals:
       Occupied  (A) (A) (A) (A) (A) (A) (A) (A) (A) (A) (A) (A)
                 (A) (A) (A) (A) (A) (A) (A) (A) (A) (A) (A) (A)
                 (A) (A) (A) (A) (A) (A) (A) (A) (A) (A) (A) (A)
                 (A) (A) (A) (A) (A) (A) (A) (A) (A) (A) (A) (A)
                 (A) (A) (A) (A) (A) (A) (A) (A) (A) (A) (A) (A)
                 (A) (A) (A) (A) (A) (A) (A) (A) (A) (A) (A) (A)
                 (A) (A) (A) (A) (A) (A) (A) (A) (A) (A) (A) (A)
                 (A) (A) (A) (A) (A) (A) (A) (A) (A) (A) (A) (A)
                 (A) (A) (A) (A) (A) (A) (A) (A) (A) (A) (A) (A)
                 (A)
       Virtual   (A) (A) (A) (A) (A) (A) (A) (A) (A) (A) (A) (A)
                 (A) (A) (A) (A) (A) (A) (A) (A) (A) (A) (A) (A)
                 (A) (A) (A) (A) (A) (A) (A) (A) (A) (A) (A) (A)
                 (A) (A) (A) (A) (A) (A) (A) (A) (A) (A) (A) (A)
                 (A) (A) (A) (A) (A) (A) (A) (A) (A) (A) (A) (A)
                 (A) (A) (A) (A) (A) (A) (A) (A) (A) (A) (A) (A)
                 (A) (A) (A) (A) (A) (A) (A) (A) (A) (A) (A) (A)
                 (A) (A) (A) (A) (A) (A) (A) (A) (A) (A) (A) (A)
                 (A) (A) (A) (A) (A) (A) (A) (A) (A) (A) (A) (A)
                 (A) (A) (A) (A) (A) (A) (A) (A) (A) (A) (A) (A)
                 (A) (A) (A) (A) (A) (A) (A) (A) (A) (A) (A) (A)
                 (A) (A) (A) (A) (A) (A) (A) (A) (A) (A) (A) (A)
                 (A) (A) (A) (A) (A) (A) (A) (A) (A) (A) (A) (A)
                 (A) (A) (A) (A) (A) (A) (A) (A) (A) (A) (A) (A)
                 (A) (A) (A) (A) (A) (A) (A) (A) (A) (A) (A) (A)
                 (A) (A) (A) (A) (A) (A) (A) (A) (A) (A) (A) (A)
                 (A) (A) (A) (A) (A) (A) (A) (A) (A) (A) (A) (A)
                 (A) (A) (A) (A) (A) (A) (A) (A) (A) (A) (A) (A)
                 (A) (A) (A) (A) (A) (A) (A) (A) (A) (A) (A) (A)
                 (A) (A) (A) (A) (A) (A) (A) (A) (A) (A) (A) (A)
                 (A) (A) (A) (A) (A) (A) (A) (A) (A) (A) (A) (A)
                 (A) (A) (A) (A) (A) (A) (A) (A) (A) (A) (A) (A)
                 (A) (A) (A) (A) (A) (A) (A) (A) (A) (A) (A) (A)
                 (A) (A) (A) (A) (A) (A) (A) (A) (A) (A) (A) (A)
                 (A) (A) (A) (A) (A) (A) (A) (A) (A) (A) (A) (A)
                 (A) (A) (A) (A) (A) (A) (A) (A) (A) (A) (A) (A)
                 (A) (A) (A) (A) (A) (A) (A) (A) (A) (A) (A) (A)
                 (A) (A) (A) (A) (A) (A) (A) (A) (A) (A) (A) (A)
                 (A) (A) (A) (A) (A) (A) (A) (A) (A) (A) (A) (A)
                 (A) (A) (A) (A) (A) (A) (A) (A) (A) (A) (A) (A)
                 (A) (A) (A) (A) (A) (A) (A) (A) (A) (A) (A) (A)
                 (A) (A) (A) (A) (A) (A) (A) (A) (A) (A) (A) (A)
                 (A) (A) (A) (A) (A) (A) (A) (A) (A) (A) (A) (A)
                 (A) (A) (A) (A) (A) (A) (A) (A) (A) (A) (A) (A)
                 (A) (A) (A) (A) (A) (A) (A) (A) (A) (A) (A) (A)
                 (A) (A) (A) (A) (A) (A) (A) (A) (A) (A) (A) (A)
                 (A) (A) (A) (A) (A) (A) (A) (A) (A) (A) (A) (A)
                 (A) (A) (A) (A) (A) (A) (A) (A) (A) (A) (A) (A)
                 (A) (A) (A) (A) (A) (A) (A) (A) (A) (A) (A) (A)
                 (A) (A) (A) (A) (A) (A) (A) (A) (A) (A) (A) (A)
                 (A) (A) (A) (A) (A) (A) (A) (A) (A) (A) (A) (A)
                 (A) (A) (A) (A) (A) (A) (A) (A) (A) (A) (A) (A)
                 (A) (A) (A) (A) (A) (A) (A) (A) (A) (A) (A) (A)
                 (A) (A) (A) (A) (A) (A) (A) (A) (A) (A) (A) (A)
                 (A) (A) (A) (A) (A) (A) (A) (A) (A) (A) (A) (A)
                 (A) (A) (A) (A) (A) (A) (A) (A) (A) (A) (A) (A)
                 (A) (A) (A) (A) (A) (A) (A) (A) (A) (A) (A) (A)
                 (A) (A) (A) (A) (A) (A) (A) (A) (A) (A) (A) (A)
                 (A) (A) (A) (A) (A) (A) (A) (A) (A) (A) (A) (A)
                 (A) (A) (A) (A) (A) (A) (A) (A) (A) (A) (A) (A)
                 (A) (A) (A) (A) (A) (A)
 Beta  Orbitals:
       Occupied  (A) (A) (A) (A) (A) (A) (A) (A) (A) (A) (A) (A)
                 (A) (A) (A) (A) (A) (A) (A) (A) (A) (A) (A) (A)
                 (A) (A) (A) (A) (A) (A) (A) (A) (A) (A) (A) (A)
                 (A) (A) (A) (A) (A) (A) (A) (A) (A) (A) (A) (A)
                 (A) (A) (A) (A) (A) (A) (A) (A) (A) (A) (A) (A)
                 (A) (A) (A) (A) (A) (A) (A) (A) (A) (A) (A) (A)
                 (A) (A) (A) (A) (A) (A) (A) (A) (A) (A) (A) (A)
                 (A) (A) (A) (A) (A) (A) (A) (A) (A) (A) (A) (A)
                 (A) (A) (A) (A) (A) (A) (A) (A) (A) (A) (A) (A)
       Virtual   (A) (A) (A) (A) (A) (A) (A) (A) (A) (A) (A) (A)
                 (A) (A) (A) (A) (A) (A) (A) (A) (A) (A) (A) (A)
                 (A) (A) (A) (A) (A) (A) (A) (A) (A) (A) (A) (A)
                 (A) (A) (A) (A) (A) (A) (A) (A) (A) (A) (A) (A)
                 (A) (A) (A) (A) (A) (A) (A) (A) (A) (A) (A) (A)
                 (A) (A) (A) (A) (A) (A) (A) (A) (A) (A) (A) (A)
                 (A) (A) (A) (A) (A) (A) (A) (A) (A) (A) (A) (A)
                 (A) (A) (A) (A) (A) (A) (A) (A) (A) (A) (A) (A)
                 (A) (A) (A) (A) (A) (A) (A) (A) (A) (A) (A) (A)
                 (A) (A) (A) (A) (A) (A) (A) (A) (A) (A) (A) (A)
                 (A) (A) (A) (A) (A) (A) (A) (A) (A) (A) (A) (A)
                 (A) (A) (A) (A) (A) (A) (A) (A) (A) (A) (A) (A)
                 (A) (A) (A) (A) (A) (A) (A) (A) (A) (A) (A) (A)
                 (A) (A) (A) (A) (A) (A) (A) (A) (A) (A) (A) (A)
                 (A) (A) (A) (A) (A) (A) (A) (A) (A) (A) (A) (A)
                 (A) (A) (A) (A) (A) (A) (A) (A) (A) (A) (A) (A)
                 (A) (A) (A) (A) (A) (A) (A) (A) (A) (A) (A) (A)
                 (A) (A) (A) (A) (A) (A) (A) (A) (A) (A) (A) (A)
                 (A) (A) (A) (A) (A) (A) (A) (A) (A) (A) (A) (A)
                 (A) (A) (A) (A) (A) (A) (A) (A) (A) (A) (A) (A)
                 (A) (A) (A) (A) (A) (A) (A) (A) (A) (A) (A) (A)
                 (A) (A) (A) (A) (A) (A) (A) (A) (A) (A) (A) (A)
                 (A) (A) (A) (A) (A) (A) (A) (A) (A) (A) (A) (A)
                 (A) (A) (A) (A) (A) (A) (A) (A) (A) (A) (A) (A)
                 (A) (A) (A) (A) (A) (A) (A) (A) (A) (A) (A) (A)
                 (A) (A) (A) (A) (A) (A) (A) (A) (A) (A) (A) (A)
                 (A) (A) (A) (A) (A) (A) (A) (A) (A) (A) (A) (A)
                 (A) (A) (A) (A) (A) (A) (A) (A) (A) (A) (A) (A)
[...]
 00000783,-0.00002457,0.00000122,0.00000637,-0.00001386,-0.00010687,-0.
 00004067,0.00001343,0.00003117,-0.00000278,-0.00002329,0.00000374,-0.0
 0000336,0.00007582,0.00005003,0.00006099,0.00001112,0.00002575,0.00001
 686,0.00006473,-0.00000103,-0.00004569,-0.00000012,-0.00000300,0.00000
 463,-0.00003448,-0.00002244,0.00000238,-0.00000099,0.00004193,0.000002
 72,-0.00001436,-0.00001626,-0.00002009,-0.00000920,-0.00000217,0.00001
 102,0.00000175,-0.00000108,-0.00000760,-0.00000042,0.00000089,0.000001
 69,-0.00000603,0.00000022,0.00000160,0.11268036,-0.16481823,0.08117141
 ,0.01389917,-0.01498962,0.01110889,-0.11786210,0.17813936,-0.00013283,
 0.00002493,0.00051677,-0.00031068,-0.00028849,-0.00007140,0.00077030,-
 0.00191826,0.00022421,-0.00009751,-0.00030238,-0.00007789,-0.02098009,
 0.01858607,-0.01253082,0.00406896,-0.00080988,-0.00554911,0.00013456,0
 .00011269,0.00005311,-0.00004388,0.00001593,0.00000628,-0.00006169,-0.
 00006866,0.00003246,-0.00000661,-0.00000511,-0.00001770,-0.00000570,-0
 .00001150,-0.00001468,0.00000073,0.00003049,0.00000991,0.00000409,-0.0
 0000947,-0.00002643,0.00001517,0.00001548,-0.00000585,-0.00001177,-0.0
 0000819,-0.00001360,-0.00000894,-0.00000619,0.00000683,-0.00000424,-0.
 00000504,-0.00000821,-0.00000417,-0.00000436,-0.00000086,-0.00000225,0
 .00000245,0.00000289,0.00000088,-0.00000003,0.00000046,0.00000170,-0.0
 0000008,-0.00000153,-0.00000197,-0.00000255,-0.00000113,0.00029433,-0.
 00065730,-0.00002631,0.00021469,0.00022934,-0.00005056,-0.00022034,-0.
 00035816,0.00045421,-0.00008860,0.00008382,0.00014942,-0.00192099,0.00
 481100,-0.00227804,0.00126686,-0.00078245,0.00019298,0.00005764,0.0002
 0026,0.00002651,-0.00000465,-0.00001694,-0.00000029,0.00004456,-0.0000
 6618,-0.00001327,-0.00001197,0.00001041,-0.00000132,-0.00000922,0.0000
 0053,-0.00000028,0.00003679,0.00001907,0.00000562,0.00000225,0.0000022
 9,0.00001237,0.00003453,-0.00000048,-0.00000780,0.00000142,-0.00000261
 ,0.00000221,-0.00001959,-0.00000405,-0.00000247,0.00000175,0.00001355,
 0.00000316,0.00000220,-0.00000542,-0.00000834,-0.00000350,-0.00000228,
 0.00001091,-0.00000085,0.00000127,-0.00000394,0.00000018,-0.00000054,-
 0.00000015,-0.00000082,-0.00000068,0.00000059,-0.07775477,0.08133281,-
 0.09518610,0.01315019,-0.01367140,0.01060752,0.08183605,-0.08584431,0.
 10474334,0.00009520,0.00009020,-0.00031980,-0.00008166,0.00006951,0.00
 015932,0.00033821,-0.00039318,0.00000776,-0.00005123,0.00008698,0.0000
 7276,-0.00074222,0.00016818,-0.00227365,0.00030331,0.00134342,0.001425
 01,-0.00028846,0.00024017,0.00020394,-0.00007813,-0.00025951,-0.000264
 30,0.00011050,0.00029176,-0.00005505,0.00029036,-0.00014597,0.00018104
 ,0.00001456,0.00003108,0.00004368,0.00043481,-0.00033401,-0.00047109,-
 0.00000037,0.00001902,-0.00004206,-0.00031228,0.00026521,0.00020701,-0
 .00000407,-0.00002186,-0.00001674,-0.00026141,-0.00014288,0.00001560,0
 .00007202,0.00008182,-0.00001495,-0.00016564,-0.00004640,0.00026858,0.
 00007395,0.00011609,0.00000629,0.00003416,0.00000648,-0.00006208,-0.00
 003743,-0.00003752,-0.00001929,-0.00000262,0.00001204,-0.00000808,0.00
 000456,-0.00020238,0.00023082,0.00008782,0.00008097,-0.00003365,0.0001
 0645,0.00021193,-0.00012091,0.00003254,-0.00005064,0.00002260,-0.00096
 260,-0.00069448,-0.00019842,0.00006545,0.00083676,0.00058710,0.0000876
 9,0.00051576,-0.00039437,-0.00000473,0.00005513,0.00004998,-0.00011600
 ,0.00006066,0.00026678,-0.00020736,0.00004016,-0.00001945,-0.00001257,
 -0.00001934,0.00002183,0.00013857,-0.00031125,-0.00071152,0.00006401,-
 0.00000560,-0.00004934,-0.00006944,0.00004928,0.00057012,-0.00001270,0
 .00000092,-0.00005178,-0.00009213,0.00011501,-0.00011193,0.00008934,-0
 .00007834,0.00002655,-0.00004907,0.00005710,0.00012690,0.00006101,-0.0
 0002546,0.00002812,-0.00004157,0.00002884,-0.00000476,0.00001189,-0.00
 002931,0.00000453,0.00004048,-0.00002903,0.00001676,-0.00047780,0.0000
 1920,-0.00000550,0.00016730,-0.00019867,0.00007560,-0.00059665,0.00075
 525,0.00069498,0.33720777,0.00036358,-0.00001526,0.00035752,0.00004387
 ,0.00004848,-0.00000559,-0.00024284,-0.00019437,-0.00032317,-0.0000465
 0,0.00000181,0.00000142,0.00050938,0.00086761,0.00036517,-0.00024746,-
 0.00082656,-0.00034007,-0.00003598,-0.00004196,-0.00005927,0.00003152,
 0.00006161,0.00014332,-0.00000414,-0.00005466,-0.00004650,-0.00013712,
 0.00000729,-0.00000490,0.00000453,-0.00000693,-0.00000812,-0.00011547,
 0.00009649,0.00001274,0.00001192,0.00000464,0.00000705,0.00018981,-0.0
 0002611,-0.00003662,-0.00000672,0.00000164,0.00000438,-0.00009321,-0.0
 0002247,-0.00003720,-0.00000108,-0.00001688,0.00002509,0.00000476,-0.0
 0002877,-0.00002287,-0.00001121,0.00000411,-0.00000560,-0.00000793,-0.
 00000477,0.00001435,0.00000697,0.00000526,0.00000949,0.00000088,-0.000
 00251,-0.00000066,-0.00006000,0.00026695,-0.00004161,-0.00003102,0.000
 01576,0.00002688,0.00015188,-0.00038676,0.00017159,0.00003534,0.000006
 81,-0.00000096,-0.00039779,0.00099051,0.00024185,0.00088179,-0.0004269
 5,-0.00119076,0.00006989,-0.00019237,0.00005807,0.00001572,0.00004887,
 -0.00001454,-0.00000633,-0.00004198,-0.00005760,0.00011310,-0.00001654
 ,0.00001880,0.00000140,0.00000977,-0.00000432,-0.00007326,-0.00001268,
 0.00015704,-0.00002222,0.00000012,0.00001028,-0.00007487,0.00005111,-0
 .00014428,0.00000759,-0.00000768,0.00001381,0.00012811,-0.00010219,0.0
 0004056,-0.00002529,0.00002866,-0.00000784,0.00007828,0.00000647,-0.00
 003711,-0.00003236,0.00000677,0.00001691,0.00000874,-0.00000648,-0.000
 00145,0.00000201,0.00000841,-0.00000248,-0.00000991,0.00000439,-0.0000
 0540,0.00010062,-0.00003839,-0.00054745,0.00017392,-0.00011655,0.00011
 619,0.00050104,-0.00124570,-0.00005210,-0.10540532,0.10044121,0.000216
 95,0.00012270,-0.00006965,-0.00005028,0.00008757,0.00016187,0.00035181
 ,-0.00044270,0.00003967,-0.00005046,0.00005323,0.00006964,-0.00065389,
 0.00062526,-0.00215049,0.00049776,0.00097404,0.00133999,-0.00031094,0.
 00013130,0.00019850,-0.00005833,-0.00023109,-0.00025252,0.00006559,0.0
 0026719,-0.00003033,0.00021823,-0.00012946,0.00019218,0.00002881,0.000
 03302,0.00003006,0.00039279,-0.00029380,-0.00050914,-0.00000340,0.0000
 0567,-0.00007271,-0.00013441,0.00029553,0.00020436,-0.00003602,-0.0000
 2921,-0.00007921,-0.00032482,-0.00016542,0.00005523,0.00005697,0.00006
 685,-0.00005360,-0.00020099,-0.00008553,0.00032513,0.00006229,0.000130
 91,0.00001407,0.00003697,0.00000380,-0.00005673,-0.00003064,-0.0000374
 3,-0.00001916,-0.00000457,0.00000118,-0.00001327,-0.00002336,-0.000045
 81,0.00023138,0.00008312,0.00012452,-0.00005078,0.00026679,-0.00001896
 ,-0.00030879,0.00004848,-0.00005286,0.00000647,-0.00070467,-0.00139698
 ,-0.00056020,0.00083654,0.00061616,0.00236321,0.00013647,0.00043254,-0
 .00029417,-0.00001537,0.00008139,0.00005224,-0.00020056,-0.00001872,0.
 00021554,-0.00015184,0.00009810,-0.00000965,-0.00004338,-0.00002591,0.
 00001111,0.00021141,-0.00031168,-0.00059675,0.00005918,0.00000940,-0.0
 0004923,0.00000013,0.00006806,0.00047993,-0.00001142,-0.00000741,-0.00
 004720,-0.00009124,0.00003299,-0.00010185,0.00008918,-0.00000711,0.000
 02649,-0.00007210,0.00004148,0.00009545,0.00004369,-0.00002456,0.00003
 802,-0.00003767,0.00002567,-0.00001393,0.00001212,-0.00002624,0.000007
 69,0.00002848,-0.00002949,0.00001890,-0.00084112,-0.00026117,-0.000731
 25,0.00049708,-0.00034973,0.00027994,-0.00000833,-0.00012432,0.0007760
 1,0.38306730,-0.09467958,0.45306341,-0.00002744,0.00007283,-0.00023397
 ,-0.00004870,0.00002171,0.00011835,0.00028270,-0.00018507,0.00018701,-
 0.00001974,0.00002373,0.00005552,-0.00051025,-0.00023198,-0.00201670,0
 .00020389,0.00085715,0.00136670,-0.00016081,0.00015050,0.00015358,-0.0
 0007881,-0.00019640,-0.00024614,0.00006736,0.00026342,-0.00001964,0.00
 026741,-0.00011206,0.00012617,0.00000994,0.00001687,0.00002981,0.00035
 621,-0.00030074,-0.00030050,-0.00000014,0.00000082,-0.00002239,-0.0003
 5576,0.00018642,0.00015060,0.00000816,-0.00001957,-0.00000331,-0.00011
 441,-0.00007371,0.00002181,0.00005162,0.00006215,-0.00001562,-0.000098
 25,0.00001554,0.00016906,0.00005758,0.00005152,0.00000818,0.00002370,0
 .00000948,-0.00005094,-0.00002903,-0.00002639,-0.00001914,-0.00000145,
 0.00001370,-0.00000290,0.00006254,-0.00031683,0.00021428,0.00007118,0.
 00006003,-0.00004211,-0.00005916,0.00030397,-0.00029349,0.00001546,-0.
 00002710,0.00001979,-0.00049717,-0.00111803,-0.00016232,0.00074989,0.0
 0181203,0.00189162,0.00000878,0.00045064,-0.00030066,0.00000269,0.0000
 0764,0.00002241,-0.00005601,0.00007201,0.00021276,-0.00020508,0.000019
 85,-0.00001643,-0.00000312,-0.00001438,0.00002047,0.00010586,-0.000211
 70,-0.00058484,0.00005305,-0.00000862,-0.00003802,-0.00003284,0.000018
 33,0.00047586,-0.00001139,0.00000407,-0.00004255,-0.00011017,0.0001332
 8,-0.00010034,0.00007247,-0.00008061,0.00002421,-0.00005393,0.00004066
 ,0.00010562,0.00005655,-0.00002083,0.00001646,-0.00003260,0.00002339,-
 0.00000082,0.00000742,-0.00002397,0.00000314,0.00003347,-0.00002261,0.
 00001277,-0.00031745,0.00004097,0.00002905,0.00020494,-0.00016251,0.00
 012731,-0.00013815,0.00036329,0.00062930,-0.05558232,-0.02568074,-0.08
 027828,0.19024790,0.00034312,0.00002852,0.00020324,-0.00000465,0.00005
 091,0.00010646,-0.00026393,-0.00028875,-0.00027763,-0.00004337,-0.0000
 1160,0.00003008,0.00026129,0.00135894,-0.00057079,0.00000375,-0.000680
 09,0.00030094,-0.00016593,-0.00001937,0.00005293,0.00001537,-0.0000619
 4,-0.00000679,0.00002669,0.00005314,-0.00005617,-0.00000668,-0.0000613
 2,0.00008863,0.00001512,0.00002218,0.00001766,0.00008241,-0.00003766,-
 0.00024603,0.00000332,0.00000891,-0.00002947,0.00012693,0.00012653,0.0
 0007040,-0.00002458,-0.00000500,-0.00003683,-0.00023639,-0.00010449,0.
 00000188,0.00002600,0.00002141,-0.00000760,-0.00010427,-0.00009422,0.0
 0015936,0.00001753,0.00008538,-0.00000038,0.00001315,-0.00000511,-0.00
 001464,-0.00000939,-0.00001471,0.00000028,-0.00000119,-0.00000380,-0.0
 0000769,-0.00007527,0.00023522,0.00006929,0.00001086,0.00007606,0.0000
 0155,0.00025614,-0.00043564,0.00007008,0.00005198,-0.00002248,-0.00001
 677,-0.00098538,0.00063835,-0.00017523,0.00193479,-0.00034360,0.000060
 53,0.00014593,0.00001390,-0.00008999,0.00000641,0.00008818,0.00000933,
 -0.00011622,-0.00005962,0.00004870,0.00004047,0.00003875,0.00002053,-0
 .00002077,-0.00000267,-0.00000275,0.00004437,-0.00016102,-0.00012787,0
 .00001007,0.00000675,-0.00002034,-0.00006368,0.00007367,0.00008524,0.0
 0000149,-0.00001005,-0.00001081,0.00007055,-0.00007949,-0.00000459,0.0
 0001853,0.00002880,0.00000183,0.00003108,0.00002982,0.00001682,-0.0000
 0561,-0.00000668,0.00002452,-0.00000969,0.00000428,-0.00000904,0.00000
 794,-0.00000517,0.00000197,0.00000359,-0.00000765,0.00000490,-0.000383
 63,-0.00010607,-0.00027501,0.00030489,-0.00018990,0.00005318,-0.000141
 12,0.00037875,0.00075964,-0.04315902,0.06112982,-0.03183682,0.15066214
 ,0.24535335,0.00024816,0.00003863,-0.00009143,-0.00007863,0.00005242,0
 .00018114,0.00031808,-0.00042305,-0.00003721,-0.00003428,0.00005929,0.
 00006879,-0.00103967,0.00022950,-0.00217329,0.00076955,0.00093797,0.00
 180859,-0.00027001,0.00017866,0.00018097,-0.00007213,-0.00024805,-0.00
 024128,0.00011064,0.00032580,-0.00008484,0.00029002,-0.00015343,0.0001
 9095,0.00001241,0.00003327,0.00005024,0.00041153,-0.00032849,-0.000478
 68,0.00000725,0.00001431,-0.00003011,-0.00032464,0.00025131,0.00019281
 ,0.00000419,-0.00001813,0.00000026,-0.00027143,-0.00014320,0.00000491,
 0.00007688,0.00008161,-0.00000272,-0.00016019,-0.00003774,0.00027022,0
 .00007509,0.00010651,0.00000345,0.00003353,0.00000692,-0.00006337,-0.0
 0004029,-0.00003788,-0.00001780,-0.00000216,0.00001538,-0.00000506,0.0
 0004688,-0.00017244,0.00029686,0.00008468,0.00008937,-0.00004473,0.000
 00767,0.00008000,-0.00023847,0.00003311,-0.00001322,0.00000067,0.00002
 416,-0.00154555,-0.00088227,0.00027738,0.00057584,0.00146493,0.0000864
 2,0.00047425,-0.00038430,-0.00000219,0.00005518,0.00003876,-0.00010224
 ,0.00007326,0.00026870,-0.00020567,0.00002698,-0.00001663,-0.00000469,
 -0.00001519,0.00001995,0.00010405,-0.00031486,-0.00070902,0.00006263,-
 0.00000948,-0.00005639,-0.00010250,0.00005941,0.00056654,-0.00001098,0
 .00000116,-0.00005261,-0.00006601,0.00011611,-0.00010745,0.00008662,-0
 .00009490,0.00002381,-0.00003233,0.00006324,0.00013503,0.00006432,-0.0
 0002177,0.00002018,-0.00004031,0.00002763,0.00000025,0.00001184,-0.000
 02793,0.00000317,0.00004098,-0.00002794,0.00001521,-0.00033710,-0.0001
 0369,0.00002953,0.00030431,-0.00020850,0.00011933,-0.00034859,0.000353
 23,0.00078409,-0.08971971,-0.00990965,-0.11548447,0.29335136,0.2836416
 5,0.48399429,-0.00020910,0.00002760,0.00038241,0.00013156,-0.00008633,
 -0.00029238,-0.00098172,0.00081269,-0.00010822,0.00004760,-0.00012799,
 -0.00011298,0.00198915,0.00054520,0.00462786,-0.00102123,-0.00250210,-
 0.00310797,0.00042000,-0.00034941,-0.00037420,0.00016978,0.00045362,0.
 00054742,-0.00014124,-0.00055503,0.00002262,-0.00055959,0.00024052,-0.
 00029875,-0.00002656,-0.00004493,-0.00006011,-0.00081073,0.00064186,0.
 00079095,0.00001116,-0.00002485,0.00009088,0.00062321,-0.00047147,-0.0
 0037703,0.00001562,0.00004738,0.00006010,0.00037519,0.00022055,-0.0000
 7170,-0.00011292,-0.00014061,0.00006206,0.00027940,0.00004675,-0.00046
 793,-0.00012745,-0.00018142,-0.00001886,-0.00006240,-0.00001521,0.0001
 1251,0.00006298,0.00006512,0.00004204,0.00000639,-0.00001890,0.0000143
 0,-0.00008272,0.00080793,-0.00042529,-0.00016900,-0.00014381,0.0001252
 8,0.00012303,-0.00120408,0.00050921,-0.00001355,0.00008386,-0.00004555
 ,0.00026402,0.00456741,0.00116715,-0.00480057,-0.00272593,-0.00149494,
 -0.00000760,-0.00109180,0.00066283,0.00002345,0.00000975,-0.00007147,0
 .00016274,-0.00012938,-0.00047057,0.00048677,-0.00009403,0.00004238,0.
 00003262,0.00004355,-0.00004114,-0.00034491,0.00043177,0.00127861,-0.0
 0012524,0.00000501,0.00008382,-0.00005485,-0.00000270,-0.00105519,0.00
 003069,-0.00001072,0.00009462,0.00035119,-0.00031185,0.00023112,-0.000
 17145,0.00013735,-0.00005250,0.00019628,-0.00006846,-0.00022929,-0.000
 13065,0.00005213,-0.00002927,0.00007525,-0.00005342,0.00001001,-0.0000
 1468,0.00005670,-0.00001185,-0.00007349,0.00005094,-0.00003381,0.00084
 891,-0.00012627,0.00017086,-0.00065745,0.00033711,-0.00037440,0.000344
 12,-0.00060648,-0.00155646,-0.27968151,0.12933210,-0.30297006,-0.13447
 660,-0.10871514,-0.20367796,0.41778610,-0.00074892,-0.00002922,-0.0006
 3293,-0.00003277,-0.00002883,-0.00009725,0.00081023,0.00067616,0.00061
 961,0.00010450,0.00007135,0.00000582,-0.00078492,-0.00444038,-0.000265
 46,0.00053875,0.00059094,0.00004562,0.00030545,0.00012190,0.00002024,-
 0.00007566,0.00000443,-0.00016160,-0.00004460,0.00000165,0.00012126,0.
 00016879,0.00006401,-0.00010770,-0.00002325,-0.00000986,-0.00000195,0.
 00004833,-0.00005098,0.00027423,-0.00001276,-0.00001241,0.00002761,-0.
 00036102,-0.00012225,-0.00004325,0.00003733,0.00000735,0.00004464,0.00
 037653,0.00014277,0.00003181,-0.00002406,-0.00000043,-0.00001441,0.000
 10901,0.00013017,-0.00015074,-0.00000478,-0.00009424,0.00000351,-0.000
 00515,0.00001022,0.00000156,0.00000189,0.00001063,-0.00000927,-0.00000
 057,0.00000664,0.00001061,0.00016384,-0.00060327,-0.00002927,0.0000261
 2,-0.00008687,-0.00004842,-0.00052671,0.00098441,-0.00030130,-0.000091
 43,0.00002973,0.00002542,0.00248340,-0.00274703,-0.00042249,-0.0021434
 7,0.00023841,0.00079234,-0.00024819,0.00020997,0.00003981,-0.00002285,
 -0.00016268,0.00000169,0.00015439,0.00012217,0.00002241,-0.00017904,-0
 .00003189,-0.00004273,0.00002541,-0.00000493,0.00000853,0.00001655,0.0
 0019833,-0.00003672,0.00001118,-0.00000879,0.00001018,0.00014663,-0.00
 014108,0.00006500,-0.00001000,0.00002040,-0.00000234,-0.00021667,0.000
 20937,-0.00003666,0.00000501,-0.00007146,0.00000447,-0.00011194,-0.000
 03708,0.00002539,0.00004125,0.00000048,-0.00004909,0.00000130,0.000002
 27,0.00001293,-0.00001097,-0.00000302,0.00000028,0.00000842,0.00000430
 ,-0.00000007,0.00043584,-0.00056729,-0.00004751,-0.00025253,0.00024542
 ,0.00005896,0.00010970,-0.00071623,-0.00134694,0.14594125,-0.16027903,
 0.12630345,-0.12692428,-0.30703346,-0.27411380,-0.01921455,0.47317924,
 -0.00060016,-0.00005038,0.00009012,0.00012335,-0.00010587,-0.00038872,
 -0.00074130,0.00089386,0.00001631,0.00011873,-0.00011025,-0.00016062,0
 .00177314,-0.00069185,0.00502822,-0.00144582,-0.00215400,-0.00350000,0
 .00063272,-0.00032564,-0.00042033,0.00015507,0.00049134,0.00054123,-0.
 00016750,-0.00063131,0.00009547,-0.00053906,0.00030013,-0.00040817,-0.
 00004943,-0.00005774,-0.00006978,-0.00087379,0.00068219,0.00105575,-0.
 00000164,-0.00000933,0.00012877,0.00047536,-0.00060324,-0.00043039,0.0
 0004767,0.00006028,0.00011296,0.00063020,0.00032485,-0.00009047,-0.000
 13442,-0.00015090,0.00008354,0.00038862,0.00012032,-0.00064455,-0.0001
 4209,-0.00024240,-0.00002460,-0.00007616,-0.00001268,0.00012908,0.0000
 7291,0.00008011,0.00004352,0.00000807,-0.00001462,0.00002084,-0.000013
 91,0.00005259,-0.00057460,-0.00018003,-0.00022897,0.00008356,-0.000431
 40,0.00039542,0.00061963,-0.00008405,0.00007852,-0.00001008,0.00157366
 ,0.00152510,0.00109812,-0.00006527,-0.00113458,-0.00531538,-0.00031067
 ,-0.00090454,0.00073603,0.00001441,-0.00019782,-0.00010322,0.00039889,
 -0.00001474,-0.00050885,0.00033278,-0.00016261,0.00001866,0.00006818,0
 .00004969,-0.00003221,-0.00037500,0.00072794,0.00139741,-0.00012928,-0
 .00000574,0.00011005,0.00011766,-0.00017170,-0.00111150,0.00002130,0.0
 0001411,0.00010594,0.00013225,-0.00009296,0.00022133,-0.00019377,0.000
 07245,-0.00005661,0.00010727,-0.00011318,-0.00023083,-0.00010309,0.000
 05299,-0.00008264,0.00008460,-0.00005855,0.00002149,-0.00002728,0.0000
 5797,-0.00001254,-0.00007145,0.00006485,-0.00003844,0.00117747,-0.0000
 8512,-0.00000648,-0.00065690,0.00064790,-0.00032444,0.00042292,-0.0014
 4319,-0.00272377,-0.29341251,0.10577520,-0.33874144,-0.21475207,-0.252
 07839,-0.36953147,0.50670083,0.14938452,0.71378407\\0.00000290,-0.0000
 0028,0.00000166,-0.00000089,-0.00000013,0.00000160,-0.00000048,-0.0000
 0145,-0.00000088,-0.00000046,-0.00000130,0.00000103,0.00000080,0.00000
 287,0.00000003,-0.00000229,0.00000201,0.00000074,-0.00000190,-0.000003
 45,0.00000118,-0.00000054,-0.00000389,0.00000132,0.00000080,-0.0000030
 7,0.00000105,-0.00000027,-0.00000492,0.00000180,-0.00000120,-0.0000026
 7,0.00000171,0.00000024,-0.00000467,0.00000048,0.00000115,-0.00000327,
 0.00000100,0.00000124,-0.00000359,0.00000229,-0.00000140,-0.00000293,0
 .00000108,0.00000033,-0.00000449,0.00000361,0.00000029,-0.00000540,0.0
 0000259,0.00000035,-0.00000580,0.00000318,0.00000409,-0.00000457,0.000
 00122,0.00000280,-0.00000288,0.00000196,0.00000219,-0.00000425,0.00000
 173,0.00000258,-0.00000493,0.00000135,-0.00000215,0.00000505,0.0000003
 3,0.00000126,-0.00000184,-0.00000036,-0.00000069,0.00000194,-0.0000002
 6,-0.00000189,0.00000404,-0.00000313,-0.00000326,0.00000815,0.00000108
 ,0.00000063,-0.00000533,0.00000244,0.00000074,0.00000170,-0.00000071,0
 .00000153,0.00000253,-0.00000137,-0.00000012,0.00000300,-0.00000158,0.
 00000144,0.00000316,-0.00000137,0.00000151,0.00000192,-0.00000129,0.00
 000045,0.00000391,-0.00000177,-0.00000009,0.00000167,-0.00000060,0.000
 00198,0.00000445,-0.00000205,-0.00000019,0.00000518,-0.00000073,0.0000
 0375,0.00000353,-0.00000264,0.00000251,0.00000458,-0.00000232,-0.00000
 031,0.00000399,-0.00000283,-0.00000056,0.00000548,-0.00000246,-0.00000
 079,0.00000501,-0.00000232,-0.00000033,0.00000642,-0.00000250,0.000000
 20,0.00000529,-0.00000262,-0.00000071,-0.00000690,0.00000465,0.0000010
 5,-0.00000179,-0.00000305,-0.00000883,0.00000144,-0.00000482,0.0000093
 4,-0.00000681,0.00001656,-0.00000555,-0.00000332,-0.00000268,-0.000011
 22,0.00000661,-0.00001331\\\@


 FRICTION IS A DRAG,
 AND ENTROPY AIN'T WHAT IT USED TO BE.
 Job cpu time:       1 days  4 hours  3 minutes 51.3 seconds.
 Elapsed time:       1 days  4 hours  6 minutes 26.0 seconds.
 File lengths (MBytes):  RWF=  17008 Int=      0 D2E=      0 Chk=     78 Scr=      1
 Normal termination of Gaussian 16 at Sat Nov  9 01:37:34 2024.
