 Entering Gaussian System, Link 0=g16
 Initial command:
 /sw/cluster/pub/apps//g16/l1.exe "/data/mmaximo/25392/Gau-50443.inp" -scrdir="/data/mmaximo/25392/"
 Entering Link 1 = /sw/cluster/pub/apps//g16/l1.exe PID=     50444.
  
 Copyright (c) 1988,1990,1992,1993,1995,1998,2003,2009,2016,
            Gaussian, Inc.  All Rights Reserved.
  
 This is part of the Gaussian(R) 16 program.  It is based on
 the Gaussian(R) 09 system (copyright 2009, Gaussian, Inc.),
 the Gaussian(R) 03 system (copyright 2003, Gaussian, Inc.),
 the Gaussian(R) 98 system (copyright 1998, Gaussian, Inc.),
 the Gaussian(R) 94 system (copyright 1995, Gaussian, Inc.),
 the Gaussian 92(TM) system (copyright 1992, Gaussian, Inc.),
 the Gaussian 90(TM) system (copyright 1990, Gaussian, Inc.),
 the Gaussian 88(TM) system (copyright 1988, Gaussian, Inc.),
 the Gaussian 86(TM) system (copyright 1986, Carnegie Mellon
 University), and the Gaussian 82(TM) system (copyright 1983,
 Carnegie Mellon University). Gaussian is a federally registered
 trademark of Gaussian, Inc.
  
 This software contains proprietary and confidential information,
 including trade secrets, belonging to Gaussian, Inc.
  
 This software is provided under written license and may be
 used, copied, transmitted, or stored only in accord with that
 written license.
  
 The following legend is applicable only to US Government
 contracts under FAR:
  
                    RESTRICTED RIGHTS LEGEND
  
 Use, reproduction and disclosure by the US Government is
 subject to restrictions as set forth in subparagraphs (a)
 and (c) of the Commercial Computer Software - Restricted
 Rights clause in FAR 52.227-19.
  
 Gaussian, Inc.
 340 Quinnipiac St., Bldg. 40, Wallingford CT 06492
  
  
 ---------------------------------------------------------------
 Warning -- This program may not be used in any manner that
 competes with the business of Gaussian, Inc. or will provide
 assistance to any competitor of Gaussian, Inc.  The licensee
 of this program is prohibited from giving any competitor of
 Gaussian, Inc. access to this program.  By using this program,
 the user acknowledges that Gaussian, Inc. is engaged in the
 business of creating and licensing software in the field of
 computational chemistry and represents and warrants to the
 licensee that it is not a competitor of Gaussian, Inc. and that
 it will not use this program in any manner prohibited above.
 ---------------------------------------------------------------
  

 Cite this work as:
 Gaussian 16, Revision A.03,
 M. J. Frisch, G. W. Trucks, H. B. Schlegel, G. E. Scuseria, 
 M. A. Robb, J. R. Cheeseman, G. Scalmani, V. Barone, 
 G. A. Petersson, H. Nakatsuji, X. Li, M. Caricato, A. V. Marenich, 
 J. Bloino, B. G. Janesko, R. Gomperts, B. Mennucci, H. P. Hratchian, 
 J. V. Ortiz, A. F. Izmaylov, J. L. Sonnenberg, D. Williams-Young, 
 F. Ding, F. Lipparini, F. Egidi, J. Goings, B. Peng, A. Petrone, 
 T. Henderson, D. Ranasinghe, V. G. Zakrzewski, J. Gao, N. Rega, 
 G. Zheng, W. Liang, M. Hada, M. Ehara, K. Toyota, R. Fukuda, 
 J. Hasegawa, M. Ishida, T. Nakajima, Y. Honda, O. Kitao, H. Nakai, 
 T. Vreven, K. Throssell, J. A. Montgomery, Jr., J. E. Peralta, 
 F. Ogliaro, M. J. Bearpark, J. J. Heyd, E. N. Brothers, K. N. Kudin, 
 V. N. Staroverov, T. A. Keith, R. Kobayashi, J. Normand, 
 K. Raghavachari, A. P. Rendell, J. C. Burant, S. S. Iyengar, 
 J. Tomasi, M. Cossi, J. M. Millam, M. Klene, C. Adamo, R. Cammi, 
 J. W. Ochterski, R. L. Martin, K. Morokuma, O. Farkas, 
 J. B. Foresman, and D. J. Fox, Gaussian, Inc., Wallingford CT, 2016.
 
 ******************************************
 Gaussian 16:  ES64L-G16RevA.03 25-Dec-2016
                 6-Nov-2024 
 ******************************************
 %chk=CURCUMIN-OPT-FREQ-Prod-M06-2X-6-311+G-D-298.chk
 ----------------------------------------------------------------------
 # opt=(calcfc) freq=noraman M062X/6-311+g(d) scrf=(smd,solvent=generic
 ,read) temperature=298.15 SCF=(MaxCycle=500)
 ----------------------------------------------------------------------
 1/10=4,18=20,19=15,26=3,38=1,40=2,112=298150/1,3;
 2/9=110,12=2,17=6,18=5,40=1/2;
 3/5=4,6=6,7=11,11=2,25=1,30=1,70=32203,71=2,72=-2,74=-55,140=1/1,2,3;
 4//1;
 5/5=2,7=500,38=5/2;
 8/6=4,10=90,11=11/1;
 11/6=1,8=1,9=11,15=111,16=1/1,2,10;
 10/6=1,13=1/2;
 6/7=2,8=2,9=2,10=2,28=1/1;
 7/10=1,18=20,25=1/1,2,3,16;
 1/10=4,18=20,19=15,26=3/3(2);
 2/9=110/2;
 99//99;
 2/9=110/2;
 3/5=4,6=6,7=11,11=2,25=1,30=1,70=32205,71=1,72=-2,74=-55/1,2,3;
 4/5=5,16=3,69=1/1;
 5/5=2,7=500,38=5/2;
 7//1,2,3,16;
 1/18=20,19=15,26=3/3(-5);
 2/9=110/2;
 6/7=2,8=2,9=2,10=2,19=2,28=1/1;
 99/9=1/99;
 ---
 XXX
 ---
 Symbolic Z-matrix:
 Charge =  0 Multiplicity = 2
 C                    -2.70606   0.25508  -0.19933 
 H                    -2.41365   0.95345  -0.97915 
 C                    -1.83253  -0.02274   0.79259 
 H                    -2.09149  -0.72436   1.58017 
 C                    -0.46772   0.5082    0.94103 
 O                     0.25161   0.09722   1.86074 
 C                    -4.04464  -0.29118  -0.37093 
 C                    -4.80762   0.12619  -1.47355 
 C                    -4.61986  -1.22918   0.51001 
 C                    -6.09143  -0.35965  -1.68287 
 H                    -4.39056   0.84506  -2.17123 
 C                    -5.89855  -1.72122   0.31526 
 H                    -4.08007  -1.58611   1.37977 
 C                    -6.65291  -1.27779  -0.79499 
 H                    -6.67293  -0.01825  -2.53481 
 O                    -7.91077  -1.76443  -0.93606 
 H                    -8.32323  -1.38295  -1.72402 
 O                    -6.43285  -2.57834   1.23962 
 C                    -6.64663  -3.92644   0.79199 
 H                    -5.70652  -4.37361   0.45281 
 H                    -7.01541  -4.4759    1.65762 
 H                    -7.38699  -3.97026  -0.0087 
 C                     2.69561   0.06086  -0.02281 
 H                     1.78647  -0.52653  -0.09076 
 C                     2.58654   1.40826   0.05028 
 H                     3.46451   2.04591   0.08572 
 C                     1.34203   2.15065  -0.02103 
 O                     1.3848    3.39138  -0.16025 
 C                     3.91506  -0.72438  -0.03611 
 C                     3.81205  -2.12277  -0.13352 
 C                     5.20648  -0.1615    0.03586 
 C                     4.9435   -2.92551  -0.14659 
 H                     2.83146  -2.58322  -0.19192 
 C                     6.34327  -0.94885   0.0258 
 H                     5.34859   0.90999   0.11522 
 C                     6.21463  -2.35473  -0.06162 
 H                     4.84696  -4.0058   -0.21086 
 O                     7.35144  -3.09058  -0.04424 
 H                     7.13484  -4.03212  -0.10311 
 O                     7.56915  -0.35694   0.16712 
 C                     8.42085  -0.39999  -0.9893 
 H                     7.93353   0.07888  -1.8447 
 H                     9.31649   0.16081  -0.72407 
 H                     8.6963   -1.42436  -1.24613 
 C                     0.00262   1.53622   0.013 
 H                    -0.72717   2.05167  -0.60036 
 H                     0.07476   4.43042  -0.39033 
 O                    -0.67897   5.05541  -0.56849 
 O                    -2.10566   6.09034   0.62812 
 N                    -1.19204   5.34253   0.68534 
 
 Add virtual bond connecting atoms H47        and O28        Dist= 3.19D+00.

 GradGradGradGradGradGradGradGradGradGradGradGradGradGradGradGradGradGrad
 Berny optimization.
 Initialization pass.
                           ----------------------------
                           !    Initial Parameters    !
                           ! (Angstroms and Degrees)  !
 --------------------------                            --------------------------
 ! Name  Definition              Value          Derivative Info.                !
 --------------------------------------------------------------------------------
 ! R1    R(1,2)                  1.0869         calculate D2E/DX2 analytically  !
 ! R2    R(1,3)                  1.3506         calculate D2E/DX2 analytically  !
 ! R3    R(1,7)                  1.4559         calculate D2E/DX2 analytically  !
 ! R4    R(3,4)                  1.0861         calculate D2E/DX2 analytically  !
 ! R5    R(3,5)                  1.472          calculate D2E/DX2 analytically  !
 ! R6    R(5,6)                  1.2378         calculate D2E/DX2 analytically  !
 ! R7    R(5,45)                 1.4626         calculate D2E/DX2 analytically  !
 ! R8    R(7,8)                  1.4043         calculate D2E/DX2 analytically  !
 ! R9    R(7,9)                  1.4095         calculate D2E/DX2 analytically  !
 ! R10   R(8,10)                 1.3885         calculate D2E/DX2 analytically  !
 ! R11   R(8,11)                 1.0851         calculate D2E/DX2 analytically  !
 ! R12   R(9,12)                 1.3839         calculate D2E/DX2 analytically  !
 ! R13   R(9,13)                 1.0841         calculate D2E/DX2 analytically  !
 ! R14   R(10,14)                1.3952         calculate D2E/DX2 analytically  !
 ! R15   R(10,15)                1.0865         calculate D2E/DX2 analytically  !
 ! R16   R(12,14)                1.4136         calculate D2E/DX2 analytically  !
 ! R17   R(12,18)                1.3691         calculate D2E/DX2 analytically  !
 ! R18   R(14,16)                1.3561         calculate D2E/DX2 analytically  !
 ! R19   R(16,17)                0.9677         calculate D2E/DX2 analytically  !
 ! R20   R(18,19)                1.4365         calculate D2E/DX2 analytically  !
 ! R21   R(19,20)                1.0949         calculate D2E/DX2 analytically  !
 ! R22   R(19,21)                1.0896         calculate D2E/DX2 analytically  !
 ! R23   R(19,22)                1.0914         calculate D2E/DX2 analytically  !
 ! R24   R(23,24)                1.0845         calculate D2E/DX2 analytically  !
 ! R25   R(23,25)                1.3538         calculate D2E/DX2 analytically  !
 ! R26   R(23,29)                1.4505         calculate D2E/DX2 analytically  !
 ! R27   R(25,26)                1.0857         calculate D2E/DX2 analytically  !
 ! R28   R(25,27)                1.4509         calculate D2E/DX2 analytically  !
 ! R29   R(27,28)                1.2492         calculate D2E/DX2 analytically  !
 ! R30   R(27,45)                1.474          calculate D2E/DX2 analytically  !
 ! R31   R(28,47)                1.6878         calculate D2E/DX2 analytically  !
 ! R32   R(29,30)                1.4056         calculate D2E/DX2 analytically  !
 ! R33   R(29,31)                1.4106         calculate D2E/DX2 analytically  !
 ! R34   R(30,32)                1.3874         calculate D2E/DX2 analytically  !
 ! R35   R(30,33)                1.0849         calculate D2E/DX2 analytically  !
 ! R36   R(31,34)                1.3829         calculate D2E/DX2 analytically  !
 ! R37   R(31,35)                1.0838         calculate D2E/DX2 analytically  !
 ! R38   R(32,36)                1.396          calculate D2E/DX2 analytically  !
 ! R39   R(32,37)                1.0865         calculate D2E/DX2 analytically  !
 ! R40   R(34,36)                1.4145         calculate D2E/DX2 analytically  !
 ! R41   R(34,40)                1.3686         calculate D2E/DX2 analytically  !
 ! R42   R(36,38)                1.3543         calculate D2E/DX2 analytically  !
 ! R43   R(38,39)                0.9679         calculate D2E/DX2 analytically  !
 ! R44   R(40,41)                1.4369         calculate D2E/DX2 analytically  !
 ! R45   R(41,42)                1.0948         calculate D2E/DX2 analytically  !
 ! R46   R(41,43)                1.0895         calculate D2E/DX2 analytically  !
 ! R47   R(41,44)                1.0914         calculate D2E/DX2 analytically  !
 ! R48   R(45,46)                1.0837         calculate D2E/DX2 analytically  !
 ! R49   R(47,48)                0.9952         calculate D2E/DX2 analytically  !
 ! R50   R(48,50)                1.3848         calculate D2E/DX2 analytically  !
 ! R51   R(49,50)                1.182          calculate D2E/DX2 analytically  !
 ! A1    A(2,1,3)              119.0187         calculate D2E/DX2 analytically  !
 ! A2    A(2,1,7)              113.8202         calculate D2E/DX2 analytically  !
 ! A3    A(3,1,7)              127.1597         calculate D2E/DX2 analytically  !
 ! A4    A(1,3,4)              120.7461         calculate D2E/DX2 analytically  !
 ! A5    A(1,3,5)              126.8382         calculate D2E/DX2 analytically  !
 ! A6    A(4,3,5)              112.3935         calculate D2E/DX2 analytically  !
 ! A7    A(3,5,6)              119.6034         calculate D2E/DX2 analytically  !
 ! A8    A(3,5,45)             119.1895         calculate D2E/DX2 analytically  !
 ! A9    A(6,5,45)             121.1932         calculate D2E/DX2 analytically  !
 ! A10   A(1,7,8)              118.7223         calculate D2E/DX2 analytically  !
 ! A11   A(1,7,9)              123.451          calculate D2E/DX2 analytically  !
 ! A12   A(8,7,9)              117.8256         calculate D2E/DX2 analytically  !
 ! A13   A(7,8,10)             121.1115         calculate D2E/DX2 analytically  !
 ! A14   A(7,8,11)             119.5315         calculate D2E/DX2 analytically  !
 ! A15   A(10,8,11)            119.356          calculate D2E/DX2 analytically  !
 ! A16   A(7,9,12)             121.7173         calculate D2E/DX2 analytically  !
 ! A17   A(7,9,13)             121.1532         calculate D2E/DX2 analytically  !
 ! A18   A(12,9,13)            117.1245         calculate D2E/DX2 analytically  !
 ! A19   A(8,10,14)            120.4249         calculate D2E/DX2 analytically  !
 ! A20   A(8,10,15)            120.2049         calculate D2E/DX2 analytically  !
 ! A21   A(14,10,15)           119.3662         calculate D2E/DX2 analytically  !
 ! A22   A(9,12,14)            119.4773         calculate D2E/DX2 analytically  !
 ! A23   A(9,12,18)            119.2195         calculate D2E/DX2 analytically  !
 ! A24   A(14,12,18)           121.2227         calculate D2E/DX2 analytically  !
 ! A25   A(10,14,12)           119.4379         calculate D2E/DX2 analytically  !
 ! A26   A(10,14,16)           122.9047         calculate D2E/DX2 analytically  !
 ! A27   A(12,14,16)           117.6536         calculate D2E/DX2 analytically  !
 ! A28   A(14,16,17)           109.7904         calculate D2E/DX2 analytically  !
 ! A29   A(12,18,19)           115.7985         calculate D2E/DX2 analytically  !
 ! A30   A(18,19,20)           110.612          calculate D2E/DX2 analytically  !
 ! A31   A(18,19,21)           106.0252         calculate D2E/DX2 analytically  !
 ! A32   A(18,19,22)           111.5457         calculate D2E/DX2 analytically  !
 ! A33   A(20,19,21)           109.3156         calculate D2E/DX2 analytically  !
 ! A34   A(20,19,22)           109.8027         calculate D2E/DX2 analytically  !
 ! A35   A(21,19,22)           109.4508         calculate D2E/DX2 analytically  !
 ! A36   A(24,23,25)           118.3536         calculate D2E/DX2 analytically  !
 ! A37   A(24,23,29)           114.2668         calculate D2E/DX2 analytically  !
 ! A38   A(25,23,29)           127.3762         calculate D2E/DX2 analytically  !
 ! A39   A(23,25,26)           121.4115         calculate D2E/DX2 analytically  !
 ! A40   A(23,25,27)           125.1504         calculate D2E/DX2 analytically  !
 ! A41   A(26,25,27)           113.2494         calculate D2E/DX2 analytically  !
 ! A42   A(25,27,28)           118.967          calculate D2E/DX2 analytically  !
 ! A43   A(25,27,45)           124.403          calculate D2E/DX2 analytically  !
 ! A44   A(28,27,45)           116.5953         calculate D2E/DX2 analytically  !
 ! A45   A(27,28,47)           126.872          calculate D2E/DX2 analytically  !
 ! A46   A(23,29,30)           118.5308         calculate D2E/DX2 analytically  !
 ! A47   A(23,29,31)           123.5873         calculate D2E/DX2 analytically  !
 ! A48   A(30,29,31)           117.8809         calculate D2E/DX2 analytically  !
 ! A49   A(29,30,32)           121.1007         calculate D2E/DX2 analytically  !
 ! A50   A(29,30,33)           119.4876         calculate D2E/DX2 analytically  !
 ! A51   A(32,30,33)           119.41           calculate D2E/DX2 analytically  !
 ! A52   A(29,31,34)           121.6704         calculate D2E/DX2 analytically  !
 ! A53   A(29,31,35)           121.2182         calculate D2E/DX2 analytically  !
 ! A54   A(34,31,35)           117.1064         calculate D2E/DX2 analytically  !
 ! A55   A(30,32,36)           120.3616         calculate D2E/DX2 analytically  !
 ! A56   A(30,32,37)           120.2251         calculate D2E/DX2 analytically  !
 ! A57   A(36,32,37)           119.409          calculate D2E/DX2 analytically  !
 ! A58   A(31,34,36)           119.446          calculate D2E/DX2 analytically  !
 ! A59   A(31,34,40)           119.2959         calculate D2E/DX2 analytically  !
 ! A60   A(36,34,40)           121.1787         calculate D2E/DX2 analytically  !
 ! A61   A(32,36,34)           119.5354         calculate D2E/DX2 analytically  !
 ! A62   A(32,36,38)           122.8852         calculate D2E/DX2 analytically  !
 ! A63   A(34,36,38)           117.5758         calculate D2E/DX2 analytically  !
 ! A64   A(36,38,39)           109.8716         calculate D2E/DX2 analytically  !
 ! A65   A(34,40,41)           115.7767         calculate D2E/DX2 analytically  !
 ! A66   A(40,41,42)           110.6028         calculate D2E/DX2 analytically  !
 ! A67   A(40,41,43)           106.0176         calculate D2E/DX2 analytically  !
 ! A68   A(40,41,44)           111.538          calculate D2E/DX2 analytically  !
 ! A69   A(42,41,43)           109.3291         calculate D2E/DX2 analytically  !
 ! A70   A(42,41,44)           109.8172         calculate D2E/DX2 analytically  !
 ! A71   A(43,41,44)           109.4469         calculate D2E/DX2 analytically  !
 ! A72   A(5,45,27)            126.8577         calculate D2E/DX2 analytically  !
 ! A73   A(5,45,46)            118.4803         calculate D2E/DX2 analytically  !
 ! A74   A(27,45,46)           113.6146         calculate D2E/DX2 analytically  !
 ! A75   A(47,48,50)           104.4012         calculate D2E/DX2 analytically  !
 ! A76   A(48,50,49)           111.944          calculate D2E/DX2 analytically  !
 ! A77   L(28,47,48,1,-1)      181.2865         calculate D2E/DX2 analytically  !
 ! A78   L(28,47,48,1,-2)      182.4615         calculate D2E/DX2 analytically  !
 ! D1    D(2,1,3,4)           -179.3439         calculate D2E/DX2 analytically  !
 ! D2    D(2,1,3,5)             -1.1918         calculate D2E/DX2 analytically  !
 ! D3    D(7,1,3,4)              0.1973         calculate D2E/DX2 analytically  !
 ! D4    D(7,1,3,5)            178.3495         calculate D2E/DX2 analytically  !
 ! D5    D(2,1,7,8)             -0.5928         calculate D2E/DX2 analytically  !
 ! D6    D(2,1,7,9)            179.0093         calculate D2E/DX2 analytically  !
 ! D7    D(3,1,7,8)            179.8456         calculate D2E/DX2 analytically  !
 ! D8    D(3,1,7,9)             -0.5522         calculate D2E/DX2 analytically  !
 ! D9    D(1,3,5,6)           -175.4351         calculate D2E/DX2 analytically  !
 ! D10   D(1,3,5,45)             5.905          calculate D2E/DX2 analytically  !
 ! D11   D(4,3,5,6)              2.8473         calculate D2E/DX2 analytically  !
 ! D12   D(4,3,5,45)          -175.8126         calculate D2E/DX2 analytically  !
 ! D13   D(3,5,45,27)         -177.8679         calculate D2E/DX2 analytically  !
 ! D14   D(3,5,45,46)           14.6364         calculate D2E/DX2 analytically  !
 ! D15   D(6,5,45,27)            3.4942         calculate D2E/DX2 analytically  !
 ! D16   D(6,5,45,46)         -164.0015         calculate D2E/DX2 analytically  !
 ! D17   D(1,7,8,10)          -179.7967         calculate D2E/DX2 analytically  !
 ! D18   D(1,7,8,11)            -0.1779         calculate D2E/DX2 analytically  !
 ! D19   D(9,7,8,10)             0.5786         calculate D2E/DX2 analytically  !
 ! D20   D(9,7,8,11)          -179.8026         calculate D2E/DX2 analytically  !
 ! D21   D(1,7,9,12)           179.7434         calculate D2E/DX2 analytically  !
 ! D22   D(1,7,9,13)             0.5768         calculate D2E/DX2 analytically  !
 ! D23   D(8,7,9,12)            -0.6511         calculate D2E/DX2 analytically  !
 ! D24   D(8,7,9,13)          -179.8177         calculate D2E/DX2 analytically  !
 ! D25   D(7,8,10,14)            0.0472         calculate D2E/DX2 analytically  !
 ! D26   D(7,8,10,15)          179.3143         calculate D2E/DX2 analytically  !
 ! D27   D(11,8,10,14)        -179.5723         calculate D2E/DX2 analytically  !
 ! D28   D(11,8,10,15)          -0.3052         calculate D2E/DX2 analytically  !
 ! D29   D(7,9,12,14)            0.0964         calculate D2E/DX2 analytically  !
 ! D30   D(7,9,12,18)         -176.6822         calculate D2E/DX2 analytically  !
 ! D31   D(13,9,12,14)         179.2951         calculate D2E/DX2 analytically  !
 ! D32   D(13,9,12,18)           2.5165         calculate D2E/DX2 analytically  !
 ! D33   D(8,10,14,12)          -0.6169         calculate D2E/DX2 analytically  !
 ! D34   D(8,10,14,16)         178.6549         calculate D2E/DX2 analytically  !
 ! D35   D(15,10,14,12)       -179.8901         calculate D2E/DX2 analytically  !
 ! D36   D(15,10,14,16)         -0.6184         calculate D2E/DX2 analytically  !
 ! D37   D(9,12,14,10)           0.5442         calculate D2E/DX2 analytically  !
 ! D38   D(9,12,14,16)        -178.7655         calculate D2E/DX2 analytically  !
 ! D39   D(18,12,14,10)        177.2565         calculate D2E/DX2 analytically  !
 ! D40   D(18,12,14,16)         -2.0533         calculate D2E/DX2 analytically  !
 ! D41   D(9,12,18,19)        -112.6498         calculate D2E/DX2 analytically  !
 ! D42   D(14,12,18,19)         70.6296         calculate D2E/DX2 analytically  !
 ! D43   D(10,14,16,17)          0.27           calculate D2E/DX2 analytically  !
 ! D44   D(12,14,16,17)        179.554          calculate D2E/DX2 analytically  !
 ! D45   D(12,18,19,20)         58.3843         calculate D2E/DX2 analytically  !
 ! D46   D(12,18,19,21)        176.7898         calculate D2E/DX2 analytically  !
 ! D47   D(12,18,19,22)        -64.1392         calculate D2E/DX2 analytically  !
 ! D48   D(24,23,25,26)       -177.8885         calculate D2E/DX2 analytically  !
 ! D49   D(24,23,25,27)         -3.2249         calculate D2E/DX2 analytically  !
 ! D50   D(29,23,25,26)          1.4015         calculate D2E/DX2 analytically  !
 ! D51   D(29,23,25,27)        176.0652         calculate D2E/DX2 analytically  !
 ! D52   D(24,23,29,30)          0.0592         calculate D2E/DX2 analytically  !
 ! D53   D(24,23,29,31)        179.6824         calculate D2E/DX2 analytically  !
 ! D54   D(25,23,29,30)       -179.2555         calculate D2E/DX2 analytically  !
 ! D55   D(25,23,29,31)          0.3677         calculate D2E/DX2 analytically  !
 ! D56   D(23,25,27,28)       -168.461          calculate D2E/DX2 analytically  !
 ! D57   D(23,25,27,45)          9.3204         calculate D2E/DX2 analytically  !
 ! D58   D(26,25,27,28)          6.5833         calculate D2E/DX2 analytically  !
 ! D59   D(26,25,27,45)       -175.6354         calculate D2E/DX2 analytically  !
 ! D60   D(25,27,28,47)        174.6708         calculate D2E/DX2 analytically  !
 ! D61   D(45,27,28,47)         -3.2821         calculate D2E/DX2 analytically  !
 ! D62   D(25,27,45,5)          46.5627         calculate D2E/DX2 analytically  !
 ! D63   D(25,27,45,46)       -145.4252         calculate D2E/DX2 analytically  !
 ! D64   D(28,27,45,5)        -135.6081         calculate D2E/DX2 analytically  !
 ! D65   D(28,27,45,46)         32.404          calculate D2E/DX2 analytically  !
 ! D66   D(27,28,48,50)         84.3617         calculate D2E/DX2 analytically  !
 ! D67   D(23,29,30,32)       -179.7953         calculate D2E/DX2 analytically  !
 ! D68   D(23,29,30,33)         -0.2632         calculate D2E/DX2 analytically  !
 ! D69   D(31,29,30,32)          0.5598         calculate D2E/DX2 analytically  !
 ! D70   D(31,29,30,33)       -179.908          calculate D2E/DX2 analytically  !
 ! D71   D(23,29,31,34)        179.7206         calculate D2E/DX2 analytically  !
 ! D72   D(23,29,31,35)          0.5637         calculate D2E/DX2 analytically  !
 ! D73   D(30,29,31,34)         -0.6539         calculate D2E/DX2 analytically  !
 ! D74   D(30,29,31,35)       -179.8109         calculate D2E/DX2 analytically  !
 ! D75   D(29,30,32,36)          0.0467         calculate D2E/DX2 analytically  !
 ! D76   D(29,30,32,37)        179.294          calculate D2E/DX2 analytically  !
 ! D77   D(33,30,32,36)       -179.4858         calculate D2E/DX2 analytically  !
 ! D78   D(33,30,32,37)         -0.2384         calculate D2E/DX2 analytically  !
 ! D79   D(29,31,34,36)          0.1394         calculate D2E/DX2 analytically  !
 ! D80   D(29,31,34,40)       -176.6586         calculate D2E/DX2 analytically  !
 ! D81   D(35,31,34,36)        179.3294         calculate D2E/DX2 analytically  !
 ! D82   D(35,31,34,40)          2.5315         calculate D2E/DX2 analytically  !
 ! D83   D(30,32,36,34)         -0.5763         calculate D2E/DX2 analytically  !
 ! D84   D(30,32,36,38)        178.7072         calculate D2E/DX2 analytically  !
 ! D85   D(37,32,36,34)       -179.8298         calculate D2E/DX2 analytically  !
 ! D86   D(37,32,36,38)         -0.5462         calculate D2E/DX2 analytically  !
 ! D87   D(31,34,36,32)          0.4829         calculate D2E/DX2 analytically  !
 ! D88   D(31,34,36,38)       -178.8383         calculate D2E/DX2 analytically  !
 ! D89   D(40,34,36,32)        177.2189         calculate D2E/DX2 analytically  !
 ! D90   D(40,34,36,38)         -2.1024         calculate D2E/DX2 analytically  !
 ! D91   D(31,34,40,41)       -112.2534         calculate D2E/DX2 analytically  !
 ! D92   D(36,34,40,41)         71.0059         calculate D2E/DX2 analytically  !
 ! D93   D(32,36,38,39)          0.294          calculate D2E/DX2 analytically  !
 ! D94   D(34,36,38,39)        179.5908         calculate D2E/DX2 analytically  !
 ! D95   D(34,40,41,42)         58.274          calculate D2E/DX2 analytically  !
 ! D96   D(34,40,41,43)        176.6863         calculate D2E/DX2 analytically  !
 ! D97   D(34,40,41,44)        -64.2563         calculate D2E/DX2 analytically  !
 ! D98   D(47,48,50,49)        179.7479         calculate D2E/DX2 analytically  !
 --------------------------------------------------------------------------------
 Trust Radius=3.00D-01 FncErr=1.00D-07 GrdErr=1.00D-06 EigMax=2.50D+02 EigMin=1.00D-04
 Number of steps in this run=    237 maximum allowed number of steps=    300.
 GradGradGradGradGradGradGradGradGradGradGradGradGradGradGradGradGradGrad

                          Input orientation:                          
 ---------------------------------------------------------------------
 Center     Atomic      Atomic             Coordinates (Angstroms)
 Number     Number       Type             X           Y           Z
 ---------------------------------------------------------------------
      1          6           0       -2.706063    0.255079   -0.199328
      2          1           0       -2.413647    0.953447   -0.979154
      3          6           0       -1.832525   -0.022744    0.792593
      4          1           0       -2.091485   -0.724356    1.580170
      5          6           0       -0.467715    0.508197    0.941029
      6          8           0        0.251613    0.097224    1.860741
      7          6           0       -4.044642   -0.291176   -0.370933
      8          6           0       -4.807618    0.126191   -1.473548
      9          6           0       -4.619859   -1.229182    0.510014
     10          6           0       -6.091430   -0.359650   -1.682865
     11          1           0       -4.390562    0.845057   -2.171226
     12          6           0       -5.898547   -1.721223    0.315258
     13          1           0       -4.080067   -1.586109    1.379766
     14          6           0       -6.652908   -1.277794   -0.794985
     15          1           0       -6.672929   -0.018250   -2.534810
     16          8           0       -7.910772   -1.764431   -0.936055
     17          1           0       -8.323230   -1.382950   -1.724018
     18          8           0       -6.432848   -2.578340    1.239615
     19          6           0       -6.646625   -3.926444    0.791993
     20          1           0       -5.706524   -4.373609    0.452807
     21          1           0       -7.015406   -4.475895    1.657622
     22          1           0       -7.386988   -3.970264   -0.008702
     23          6           0        2.695606    0.060859   -0.022810
     24          1           0        1.786470   -0.526532   -0.090764
     25          6           0        2.586543    1.408258    0.050277
     26          1           0        3.464509    2.045912    0.085717
     27          6           0        1.342031    2.150652   -0.021029
     28          8           0        1.384803    3.391378   -0.160254
     29          6           0        3.915058   -0.724381   -0.036111
     30          6           0        3.812047   -2.122765   -0.133519
     31          6           0        5.206478   -0.161500    0.035858
     32          6           0        4.943503   -2.925505   -0.146594
     33          1           0        2.831461   -2.583220   -0.191924
     34          6           0        6.343265   -0.948854    0.025795
     35          1           0        5.348594    0.909989    0.115219
     36          6           0        6.214632   -2.354729   -0.061623
     37          1           0        4.846963   -4.005805   -0.210855
     38          8           0        7.351444   -3.090582   -0.044242
     39          1           0        7.134844   -4.032121   -0.103107
     40          8           0        7.569150   -0.356935    0.167124
     41          6           0        8.420854   -0.399991   -0.989296
     42          1           0        7.933525    0.078878   -1.844700
     43          1           0        9.316487    0.160809   -0.724072
     44          1           0        8.696302   -1.424360   -1.246130
     45          6           0        0.002617    1.536218    0.012995
     46          1           0       -0.727169    2.051671   -0.600355
     47          1           0        0.074762    4.430422   -0.390325
     48          8           0       -0.678967    5.055408   -0.568489
     49          8           0       -2.105655    6.090339    0.628115
     50          7           0       -1.192038    5.342529    0.685339
 ---------------------------------------------------------------------
                    Distance matrix (angstroms):
                    1          2          3          4          5
     1  C    0.000000
     2  H    1.086901   0.000000
     3  C    1.350615   2.104695   0.000000
     4  H    2.122172   3.077166   1.086093   0.000000
     5  C    2.524814   2.769838   1.471950   2.136426   0.000000
     6  O    3.607859   3.987698   2.344987   2.498764   1.237821
     7  C    1.455897   2.139898   2.513824   2.794507   3.892897
     8  C    2.461053   2.580673   3.742827   4.174446   4.981051
     9  C    2.523651   3.442218   3.050340   2.791551   4.521566
    10  C    3.746930   3.968063   4.937577   5.174937   6.266111
    11  H    2.659698   2.311055   4.010094   4.671379   5.018798
    12  C    3.789792   4.579726   4.432292   4.133699   5.903883
    13  H    2.787723   3.845881   2.800058   2.176520   4.198535
    14  C    4.275756   4.794131   5.227968   5.172450   6.667842
    15  H    4.611422   4.637429   5.873767   6.198490   7.131850
    16  O    5.631180   6.132463   6.554905   6.424737   8.005459
    17  H    6.046518   6.398183   7.093148   7.084211   8.508115
    18  O    4.897729   5.792273   5.281465   4.732934   6.722996
    19  C    5.830599   6.698388   6.197938   5.623512   7.607048
    20  H    5.554530   6.424257   5.835525   5.258945   7.177431
    21  H    6.663394   7.589896   6.887749   6.190722   8.259960
    22  H    6.308797   7.065326   6.861272   6.411145   8.296683
    23  C    5.408041   5.274066   4.601722   5.109046   3.337019
    24  H    4.561311   4.540986   3.759155   4.227256   2.686375
    25  C    5.422527   5.125279   4.703930   5.364006   3.306364
    26  H    6.431508   6.072903   5.730408   6.385675   4.307959
    27  C    4.473483   4.056651   3.932358   4.755895   2.626480
    28  O    5.154909   4.587192   4.786998   5.661530   3.599636
    29  C    6.695164   6.614903   5.849253   6.220203   4.656474
    30  C    6.938604   6.995530   6.093354   6.304282   5.137410
    31  C    7.926989   7.767861   7.080923   7.480773   5.784833
    32  C    8.284610   8.358653   7.431194   7.570854   6.500347
    33  H    6.222553   6.374865   5.410922   5.552575   4.661009
    34  C    9.131838   9.017327   8.263728   8.579714   7.024963
    35  H    8.087357   7.839128   7.273053   7.757057   5.888366
    36  C    9.295637   9.286177   8.421673   8.622365   7.338625
    37  H    8.671993   8.826150   7.841380   7.881481   7.067450
    38  O   10.600516  10.610619   9.718910   9.869481   8.663788
    39  H   10.734654  10.807267   9.863625   9.944842   8.916480
    40  O   10.299944  10.133474   9.428382   9.770341   8.120257
    41  C   11.174142  10.918714  10.413896  10.826663   9.140986
    42  H   10.767503  10.420077  10.116391  10.624300   8.861458
    43  H   12.034365  11.759651  11.253197  11.671970   9.930954
    44  H   11.572823  11.364691  10.815596  11.173823   9.617570
    45  C    3.003888   2.676250   2.530984   3.457094   1.462630
    46  H    2.702700   2.047875   2.732273   3.784491   2.196700
    47  H    5.020255   4.316046   4.986755   5.928508   4.177396
    48  O    5.223845   4.472566   5.382459   6.325948   4.795873
    49  O    5.924138   5.391274   6.121392   6.880892   5.825897
    50  N    5.381176   4.850454   5.404432   6.198130   4.894976
                    6          7          8          9         10
     6  O    0.000000
     7  C    4.856854   0.000000
     8  C    6.059219   1.404310   0.000000
     9  C    5.226381   1.409538   2.409732   0.000000
    10  C    7.280115   2.432117   1.388535   2.780346   0.000000
    11  H    6.194013   2.156790   1.085108   3.397660   2.140740
    12  C    6.596949   2.439848   2.793366   1.383863   2.425609
    13  H    4.672087   2.177855   3.406274   1.084085   3.863870
    14  C    7.524358   2.820689   2.415930   2.416335   1.395198
    15  H    8.202651   3.415369   2.150936   3.866834   1.086511
    16  O    8.826798   4.175740   3.673270   3.634242   2.416845
    17  H    9.411129   4.618347   3.834028   4.327759   2.455559
    18  O    7.226788   3.678113   4.161384   2.374758   3.685111
    19  C    8.057159   4.619295   4.993844   3.385634   4.376663
    20  H    7.580899   4.484045   4.976653   3.327392   4.563016
    21  H    8.588611   5.518365   5.988134   4.194853   5.381083
    22  H    8.853672   4.983791   5.057654   3.929326   4.185430
    23  C    3.085804   6.758407   7.642466   7.447425   8.952352
    24  H    2.559928   5.842581   6.769057   6.472689   8.038902
    25  C    3.232412   6.858433   7.657634   7.687631   9.024217
    26  H    4.155815   7.877681   8.633928   8.732885  10.011522
    27  C    2.991093   5.924627   6.635242   6.873821   8.019954
    28  O    4.027405   6.563876   7.122659   7.606234   8.501918
    29  C    4.206413   7.978508   8.881147   8.567257  10.147642
    30  C    4.645655   8.070852   9.008446   8.503509  10.177814
    31  C    5.286570   9.260967  10.131298   9.895538  11.429611
    32  C    5.931283   9.368926  10.303301   9.734811  11.433000
    33  H    4.248980   7.250262   8.206034   7.605807   9.315855
    34  C    6.447444  10.416263  11.302475  10.977392  12.565362
    35  H    5.448546   9.482195  10.309567  10.203037  11.649860
    36  C    6.727938  10.469318  11.385890  10.907787  12.571711
    37  H    6.499508   9.637673  10.577274   9.891916  11.623670
    38  O    8.012407  11.739428  12.658331  12.127824  13.814990
    39  H    8.263598  11.791832  12.719751  12.099811  13.817272
    40  O    7.524689  11.626435  12.494383  12.224988  13.785279
    41  C    8.666397  12.481298  13.247786  13.152782  14.528904
    42  H    8.528916  12.074163  12.746636  12.839126  14.032742
    43  H    9.426412  13.373435  14.144018  14.059758  15.446490
    44  H    9.125823  12.821144  13.594550  13.432881  14.832443
    45  C    2.355179   4.457250   5.228417   5.409413   6.603610
    46  H    3.291636   4.067824   4.595650   5.210562   5.980100
    47  H    4.886223   6.266048   6.598288   7.408184   7.914378
    48  O    5.599172   6.320819   6.493233   7.495990   7.736888
    49  O    6.556943   6.743997   6.876675   7.740191   7.926499
    50  N    5.565871   6.402475   6.703983   7.414046   7.882086
                   11         12         13         14         15
    11  H    0.000000
    12  C    3.878455   0.000000
    13  H    4.314686   2.111469   0.000000
    14  C    3.393928   1.413623   3.382915   0.000000
    15  H    2.467122   3.409204   4.950255   2.147986   0.000000
    16  O    4.552686   2.369958   4.479858   1.356075   2.671595
    17  H    4.542014   3.186246   5.261101   1.914193   2.289822
    18  O    5.246372   1.369147   2.557292   2.424756   4.567054
    19  C    6.052909   2.376951   3.522764   3.087699   5.132474
    20  H    5.987636   2.662883   3.357793   3.469394   5.369259
    21  H    7.061332   3.261523   4.128472   4.046546   6.128978
    22  H    6.069794   2.716356   4.306712   2.899398   4.744420
    23  C    7.446102   8.783483   7.112627   9.475387   9.699786
    24  H    6.660728   7.787915   6.140148   8.501966   8.820042
    25  C    7.343859   9.047686   7.428153   9.659027   9.718818
    26  H    8.260629  10.095089   8.472707  10.685728  10.672187
    27  C    6.260235   8.217693   6.732366   8.733401   8.675414
    28  O    6.624394   8.911340   7.550619   9.317127   9.065932
    29  C    8.718095   9.870360   8.165127  10.609621  10.901724
    30  C    8.957846   9.729248   8.053788  10.519829  10.960379
    31  C    9.898866  11.217503   9.490812  11.940747  12.155211
    32  C   10.268449  10.918500   9.249247  11.730819  12.210536
    33  H    8.235796   8.787111   7.157769   9.592762  10.119368
    34  C   11.102255  12.269568  10.530203  13.026219  13.298272
    35  H   10.004159  11.552553   9.835102  12.233189  12.345092
    36  C   11.276489  12.135587  10.423493  12.933337  13.329104
    37  H   10.616298  10.998277   9.384928  11.833439  12.410047
    38  O   12.565350  13.325414  11.617688  14.141135  14.571383
    39  H   12.684596  13.243284  11.573941  14.077184  14.583516
    40  O   12.245300  13.537433  11.776486  14.284277  14.500068
    41  C   12.925923  14.439278  12.778590  15.100550  15.177504
    42  H   12.352197  14.114957  12.549731  14.686950  14.623070
    43  H   13.800204  15.366181  13.672802  16.034219  16.092615
    44  H   13.314356  14.681133  13.044428  15.356538  15.487127
    45  C    4.954649   6.747297   5.318392   7.271005   7.312359
    46  H    4.164613   6.466547   5.328813   6.799824   6.586255
    47  H    5.997130   8.603546   7.522930   8.832272   8.361868
    48  O    5.837102   8.599288   7.711869   8.709117   8.095431
    49  O    6.369466   8.689327   7.961855   8.774515   8.257054
    50  N    6.214320   8.496163   7.538499   8.708682   8.315496
                   16         17         18         19         20
    16  O    0.000000
    17  H    0.967747   0.000000
    18  O    2.753225   3.712899   0.000000
    19  C    3.042781   3.951035   1.436472   0.000000
    20  H    3.687202   4.530978   2.090360   1.094894   0.000000
    21  H    3.857574   4.765732   2.028502   1.089591   1.781913
    22  H    2.449496   3.242384   2.099079   1.091407   1.788753
    23  C   10.800970  11.242484   9.585810  10.190180   9.512440
    24  H    9.812411  10.276527   8.575372   9.135412   8.440405
    25  C   11.010560  11.400093   9.932618  10.689274  10.117657
    26  H   12.039923  12.408990  10.985120  11.764476  11.200574
    27  C   10.088583  10.430905   9.187020  10.070289   9.616269
    28  O   10.657952  10.930941   9.935433  10.906930  10.533650
    29  C   11.905539  12.371679  10.589797  11.067435  10.301978
    30  C   11.755720  12.261401  10.346541  10.653340   9.798636
    31  C   13.250519  13.698252  11.948391  12.459639  11.705098
    32  C   12.930728  13.448939  11.465752  11.671071  10.764728
    33  H   10.799061  11.323210   9.374260   9.623225   8.747477
    34  C   14.309713  14.776886  12.936678  13.348796  12.534301
    35  H   13.567184  13.984246  12.338358  12.951231  12.257488
    36  C   14.164749  14.664834  12.716209  12.985025  12.101838
    37  H   12.973414  13.513808  11.461922  11.537529  10.580728
    38  O   15.345659  15.856641  13.853425  14.047914  13.130261
    39  H   15.238333  15.766975  13.711260  13.810911  12.857931
    40  O   15.582876  16.037358  14.217624  14.670382  13.872952
    41  C   16.388610  16.788996  15.177144  15.576835  14.746257
    42  H   15.977020  16.322794  14.932062  15.348470  14.531143
    43  H   17.335799  17.735352  16.105917  16.547659  15.736482
    44  H   16.613449  17.026290  15.375363  15.678641  14.799522
    45  C    8.626512   8.992135   7.736239   8.640598   8.228838
    46  H    8.141221   8.411860   7.574778   8.527394   8.196789
    47  H   10.121402  10.300500   9.701981  10.789445  10.566225
    48  O    9.947076  10.060937   9.728849  10.869108  10.734325
    49  O    9.891583  10.002041   9.707962  10.999237  11.067574
    50  N    9.913586  10.094106   9.513857  10.755359  10.716249
                   21         22         23         24         25
    21  H    0.000000
    22  H    1.780554   0.000000
    23  C   10.849412  10.858584   0.000000
    24  H    9.804455   9.798896   1.084516   0.000000
    25  C   11.375598  11.331518   1.353780   2.098433   0.000000
    26  H   12.443210  12.407992   2.131531   3.076431   1.085672
    27  C   10.797025  10.661217   2.489860   2.714720   1.450877
    28  O   11.651702  11.452557   3.581822   3.939059   2.328361
    29  C   11.679796  11.758943   1.450463   2.138462   2.514073
    30  C   11.224043  11.351089   2.454977   2.579293   3.742160
    31  C   13.062104  13.156901   2.521381   3.441764   3.054244
    32  C   12.193212  12.375441   3.739884   3.965482   4.937157
    33  H   10.196265  10.313785   2.652962   2.309157   4.006313
    34  C   13.912475  14.058804   3.785142   4.577808   4.435035
    35  H   13.574065  13.639182   2.788982   3.846394   2.807386
    36  C   13.508851  13.697329   4.268503   4.790801   5.228348
    37  H   12.017820  12.235673   4.604504   4.635340   5.872799
    38  O   14.533472  14.764704   5.622176   6.127434   6.553837
    39  H   14.266278  14.522271   6.038689   6.394874   7.092834
    40  O   15.228155  15.387434   4.895106   5.790912   5.287337
    41  C   16.183241  16.235649   5.824512   6.696150   6.195939
    42  H   16.015079  15.952572   5.545755   6.420989   5.826526
    43  H   17.143577  17.221603   6.658665   7.587798   6.888243
    44  H   16.266573  16.330495   6.301646   7.063055   6.858101
    45  C    9.386317   9.215643   3.070856   2.729072   2.587361
    46  H    9.340744   8.998163   4.001535   3.636646   3.437730
    47  H   11.566635  11.242548   5.108519   5.252721   3.954320
    48  O   11.659836  11.259381   6.052357   6.120838   4.934382
    49  O   11.696617  11.380411   7.735014   7.710279   6.653758
    50  N   11.456806  11.206570   6.596309   6.627196   5.491764
                   26         27         28         29         30
    26  H    0.000000
    27  C    2.127740   0.000000
    28  O    2.489168   1.249245   0.000000
    29  C    2.809334   3.858304   4.832916   0.000000
    30  C    4.188880   4.937178   6.024782   1.405552   0.000000
    31  C    2.812403   4.503691   5.221743   1.410596   2.412403
    32  C    5.191953   6.225250   7.250348   2.432047   1.387355
    33  H    4.680459   4.965597   6.147328   2.157253   1.084887
    34  C    4.154449   5.884001   6.592312   2.439346   2.794729
    35  H    2.200220   4.196469   4.684529   2.179241   3.408877
    36  C    5.191390   6.636441   7.506978   2.818994   2.414827
    37  H    6.214693   7.086787   8.167462   3.415659   2.150086
    38  O    6.442726   7.973965   8.810793   4.172256   3.670418
    39  H    7.102781   8.472904   9.390132   4.616563   3.832433
    40  O    4.756930   6.715684   7.239004   3.678139   4.162255
    41  C    5.630582   7.586373   8.035409   4.616924   4.994137
    42  H    5.250508   7.146035   7.529660   4.479319   4.976138
    43  H    6.201211   8.248981   8.582894   5.516547   5.988516
    44  H    6.417808   8.268427   8.822045   4.981407   5.057828
    45  C    3.499968   1.474014   2.319929   4.518840   5.284068
    46  H    4.247457   2.151047   2.539474   5.438300   6.184524
    47  H    4.171677   2.634331   1.687825   6.437805   7.548345
    48  O    5.162697   3.580748   2.682312   7.402328   8.478477
    49  O    6.904948   5.275326   4.482099   9.117598  10.151569
    50  N    5.736781   4.136247   3.340977   7.963060   9.024523
                   31         32         33         34         35
    31  C    0.000000
    32  C    2.782475   0.000000
    33  H    3.399606   2.140078   0.000000
    34  C    1.382864   2.428209   3.879603   0.000000
    35  H    1.083782   3.865703   4.316573   2.110134   0.000000
    36  C    2.415808   1.395985   3.393381   1.414451   3.382259
    37  H    3.868953   1.086507   2.467054   3.411726   4.952069
    38  O    3.631366   2.415762   4.550766   2.368191   4.476763
    39  H    4.326617   2.455293   4.541620   3.185867   5.259544
    40  O    2.374372   3.686461   5.246995   1.368626   2.557080
    41  C    3.382312   4.379536   6.053396   2.376560   3.517781
    42  H    3.321305   4.566192   5.987444   2.661562   3.348716
    43  H    4.192082   5.383475   7.061759   3.260936   4.124301
    44  H    3.926472   4.188785   6.070475   2.716741   4.302279
    45  C    5.473841   6.659189   5.001412   6.810254   5.383501
    46  H    6.364830   7.558750   5.857720   7.706248   6.223374
    47  H    6.899412   8.824608   7.538563   8.270665   6.361000
    48  O    7.887955   9.771650   8.415078   9.258298   7.347343
    49  O    9.638649  11.470669  10.013901  11.013504   9.092025
    50  N    8.465056  10.329442   8.931721   9.838561   7.921636
                   36         37         38         39         40
    36  C    0.000000
    37  H    2.149149   0.000000
    38  O    1.354298   2.671670   0.000000
    39  H    1.913676   2.290568   0.967924   0.000000
    40  O    2.424505   4.568087   2.750436   3.710612   0.000000
    41  C    3.090145   5.136201   3.045660   3.953672   1.436858
    42  H    3.472233   5.374100   3.691334   4.535565   2.090487
    43  H    4.048243   6.131942   3.859418   4.767161   2.028664
    44  H    2.902986   4.749007   2.455499   3.247317   2.099322
    45  C    7.330359   7.364225   8.684228   9.049229   7.801295
    46  H    8.239854   8.241097   9.592498   9.953443   8.672907
    47  H    9.156655   9.694124  10.470691  11.024604   8.910409
    48  O   10.133546  10.619293  11.450742  11.993974   9.892725
    49  O   11.875272  12.287184  13.197655  13.725367  11.635364
    50  N   10.708151  11.165305  12.026668  12.563545  10.464743
                   41         42         43         44         45
    41  C    0.000000
    42  H    1.094770   0.000000
    43  H    1.089495   1.781882   0.000000
    44  H    1.091406   1.788809   1.780431   0.000000
    45  C    8.695988   8.274912   9.443685   9.269875   0.000000
    46  H    9.478831   8.969277  10.220846  10.064871   1.083733
    47  H    9.661724   9.100071  10.185797  10.456664   2.923062
    48  O   10.618154  10.028439  11.130607  11.416753   3.631443
    49  O   12.471880  11.959833  12.940366  13.291568   5.056006
    50  N   11.322042  10.834344  11.801091  12.136747   4.045646
                   46         47         48         49         50
    46  H    0.000000
    47  H    2.519060   0.000000
    48  O    3.004293   0.995217   0.000000
    49  O    4.440743   2.923485   2.130348   0.000000
    50  N    3.563546   1.895725   1.384834   1.182028   0.000000
 Stoichiometry    C21H20NO8(2)
 Framework group  C1[X(C21H20NO8)]
 Deg. of freedom   144
 Full point group                 C1      NOp   1
 Largest Abelian subgroup         C1      NOp   1
 Largest concise Abelian subgroup C1      NOp   1
                         Standard orientation:                         
 ---------------------------------------------------------------------
 Center     Atomic      Atomic             Coordinates (Angstroms)
 Number     Number       Type             X           Y           Z
 ---------------------------------------------------------------------
      1          6           0        2.706063    0.255079    0.199328
      2          1           0        2.413647    0.953447    0.979154
      3          6           0        1.832525   -0.022744   -0.792593
      4          1           0        2.091485   -0.724356   -1.580170
      5          6           0        0.467715    0.508197   -0.941029
      6          8           0       -0.251613    0.097224   -1.860741
      7          6           0        4.044642   -0.291176    0.370933
      8          6           0        4.807618    0.126191    1.473548
      9          6           0        4.619859   -1.229182   -0.510014
     10          6           0        6.091430   -0.359650    1.682865
     11          1           0        4.390562    0.845057    2.171226
     12          6           0        5.898547   -1.721223   -0.315258
     13          1           0        4.080067   -1.586109   -1.379766
     14          6           0        6.652908   -1.277794    0.794985
     15          1           0        6.672929   -0.018250    2.534810
     16          8           0        7.910772   -1.764431    0.936055
     17          1           0        8.323230   -1.382950    1.724018
     18          8           0        6.432848   -2.578340   -1.239615
     19          6           0        6.646625   -3.926444   -0.791993
     20          1           0        5.706524   -4.373609   -0.452807
     21          1           0        7.015406   -4.475895   -1.657622
     22          1           0        7.386988   -3.970264    0.008702
     23          6           0       -2.695606    0.060859    0.022810
     24          1           0       -1.786470   -0.526532    0.090764
     25          6           0       -2.586543    1.408258   -0.050277
     26          1           0       -3.464509    2.045912   -0.085717
     27          6           0       -1.342031    2.150652    0.021029
     28          8           0       -1.384803    3.391378    0.160254
     29          6           0       -3.915058   -0.724381    0.036111
     30          6           0       -3.812047   -2.122765    0.133519
     31          6           0       -5.206478   -0.161500   -0.035858
     32          6           0       -4.943503   -2.925505    0.146594
     33          1           0       -2.831461   -2.583220    0.191924
     34          6           0       -6.343265   -0.948854   -0.025795
     35          1           0       -5.348594    0.909989   -0.115219
     36          6           0       -6.214632   -2.354729    0.061623
     37          1           0       -4.846963   -4.005805    0.210855
     38          8           0       -7.351444   -3.090582    0.044242
     39          1           0       -7.134844   -4.032121    0.103107
     40          8           0       -7.569150   -0.356935   -0.167124
     41          6           0       -8.420854   -0.399991    0.989296
     42          1           0       -7.933525    0.078878    1.844700
     43          1           0       -9.316487    0.160809    0.724072
     44          1           0       -8.696302   -1.424360    1.246130
     45          6           0       -0.002617    1.536218   -0.012995
     46          1           0        0.727169    2.051671    0.600355
     47          1           0       -0.074762    4.430422    0.390325
     48          8           0        0.678967    5.055408    0.568489
     49          8           0        2.105655    6.090339   -0.628115
     50          7           0        1.192038    5.342529   -0.685339
 ---------------------------------------------------------------------
 Rotational constants (GHZ):           0.1744253           0.0494082           0.0400494
 Standard basis: 6-311+G(d) (5D, 7F)
 There are   750 symmetry adapted cartesian basis functions of A   symmetry.
 There are   720 symmetry adapted basis functions of A   symmetry.
   720 basis functions,  1180 primitive gaussians,   750 cartesian basis functions
   109 alpha electrons      108 beta electrons
       nuclear repulsion energy      2538.9928752901 Hartrees.
 NAtoms=   50 NActive=   50 NUniq=   50 SFac= 1.00D+00 NAtFMM=   60 NAOKFM=F Big=F
 Integral buffers will be    131072 words long.
 Raffenetti 2 integral format.
 Two-electron integral symmetry is turned on.
 Force inversion solution in PCM.
 Using the following non-standard input for PCM:
 Eps=7
 EpsInf=1.85341
 HbondAcidity=0
 HbondBasicity=0.48
 SurfaceTensionAtInterface=60.62
 CarbonAromaticity=0
 ElectronegativeHalogenicity=0
 --- end of non-standard input.
 Force inversion solution in PCM.
 ------------------------------------------------------------------------------
 Polarizable Continuum Model (PCM)
 =================================
 Model                : PCM.
 Atomic radii         : SMD-Coulomb.
 Polarization charges : Total charges.
 Charge compensation  : None.
 Solution method      : Matrix inversion.
 Cavity type          : VdW (van der Waals Surface) (Alpha=1.000).
 Cavity algorithm     : GePol (No added spheres)
                        Default sphere list used, NSphG=   50.
                        Lebedev-Laikov grids with approx.  5.0 points / Ang**2.
                        Smoothing algorithm: York/Karplus (Gamma=1.0000).
                        Polarization charges: spherical gaussians, with
                                              point-specific exponents (IZeta= 3).
                        Self-potential: point-specific (ISelfS= 7).
                        Self-field    : sphere-specific E.n sum rule (ISelfD= 2).
 1st derivatives      : Analytical E(r).r(x)/FMM algorithm (CHGder, D1EAlg=3).
                        Cavity 1st derivative terms included.
 2nd derivatives      : Analytical E(r).r(xy)/FMM algorithm (CHGder, D2EAlg=3).
                        Cavity 2nd derivative terms included.
 Solvent              : Generic,
                        Eps                           =   7.000000
                        Eps(infinity)                 =   1.853410
                        RSolv                         =   0.000000 Ang.
                        Molar volume                  =   0.000000 cm**3/mol
                        Thermal expansion coefficient =   0.000000 K**-1
                        Absolute temperature          = 298.150000 K
                        Numeral density               =   0.000000 Ang**-3
                        Hydrogen bond acidity         =   0.000000
                        Hydrogen bond basicity        =   0.480000
                        Surface tension at interface  =  60.620000 (cal/mol)*Ang**-2
                        Carbon aromaticity            =   0.000000
                        Electronegative halogenicity  =   0.000000
 ------------------------------------------------------------------------------
 ------------------------------------------------------------------------------
 Atomic radii for non-electrostatic terms: SMD-CDS.
 ------------------------------------------------------------------------------
 Nuclear repulsion after PCM non-electrostatic terms =     2538.9908880238 Hartrees.
 One-electron integrals computed using PRISM.
 NBasis=   720 RedAO= T EigKep=  1.11D-06  NBF=   720
 NBsUse=   715 1.00D-06 EigRej=  9.83D-07 NBFU=   715
 ExpMin= 4.38D-02 ExpMax= 8.59D+03 ExpMxC= 1.30D+03 IAcc=3 IRadAn=         5 AccDes= 0.00D+00
 Harris functional with IExCor= 1009 and IRadAn=       5 diagonalized for initial guess.
 HarFok:  IExCor= 1009 AccDes= 0.00D+00 IRadAn=         5 IDoV= 1 UseB2=F ITyADJ=14
 ICtDFT=  3500011 ScaDFX=  1.000000  1.000000  1.000000  1.000000
 FoFCou: FMM=F IPFlag=           0 FMFlag=      100000 FMFlg1=           0
         NFxFlg=           0 DoJE=T BraDBF=F KetDBF=T FulRan=T
         wScrn=  0.000000 ICntrl=       500 IOpCl=  0 I1Cent=   200000004 NGrid=           0
         NMat0=    1 NMatS0=      1 NMatT0=    0 NMatD0=    1 NMtDS0=    0 NMtDT0=    0
 Petite list used in FoFCou.
 Initial guess <Sx>= 0.0000 <Sy>= 0.0000 <Sz>= 0.5000 <S**2>= 0.7500 S= 0.5000
 Requested convergence on RMS density matrix=1.00D-08 within 500 cycles.
 Requested convergence on MAX density matrix=1.00D-06.
 Requested convergence on             energy=1.00D-06.
 No special actions if energy rises.
 Inv3:  Mode=1 IEnd=    57238272.
 Iteration    1 A*A^-1 deviation from unit magnitude is 3.89D-15 for   2923.
 Iteration    1 A*A^-1 deviation from orthogonality  is 2.45D-15 for   1302    338.
 Iteration    1 A^-1*A deviation from unit magnitude is 3.66D-15 for   2923.
 Iteration    1 A^-1*A deviation from orthogonality  is 2.07D-15 for   3094   2323.
 Restarting incremental Fock formation.
 Error on total polarization charges =  0.03920
 SCF Done:  E(UM062X) =  -1468.43165802     A.U. after   25 cycles
            NFock= 25  Conv=0.72D-08     -V/T= 2.0037
 <Sx>= 0.0000 <Sy>= 0.0000 <Sz>= 0.5000 <S**2>= 0.7663 S= 0.5081
 <L.S>=  0.00000000000    
 SMD-CDS (non-electrostatic) energy       (kcal/mol) =      -1.25
 (included in total energy above)
 Annihilation of the first spin contaminant:
 S**2 before annihilation     0.7663,   after     0.7502
 DoSCS=F DFT=T ScalE2(SS,OS)=  1.000000  1.000000
 Range of M.O.s used for correlation:     1   715
 NBasis=   720 NAE=   109 NBE=   108 NFC=     0 NFV=     0
 NROrb=    715 NOA=   109 NOB=   108 NVA=   606 NVB=   607

 **** Warning!!: The largest alpha MO coefficient is  0.11799613D+03


 **** Warning!!: The largest beta MO coefficient is  0.13640486D+03

 Symmetrizing basis deriv contribution to polar:
 IMax=3 JMax=2 DiffMx= 0.00D+00
 G2DrvN: will do    26 centers at a time, making    2 passes.
 Calling FoFCou, ICntrl=  3107 FMM=F I1Cent=   0 AccDes= 0.00D+00.
 Calling FoFCou, ICntrl=  3107 FMM=F I1Cent=   0 AccDes= 0.00D+00.
 NEqPCM:  Using equilibrium solvation (IEInf=0, Eps=   7.0000, EpsInf=   1.8534)
 G2PCM: DoFxE=T DoFxN=T DoGrad=T DoDP/DQ/DG/TGxP=FFFF NFrqRd=   0 IEInf=0 SqF1=F DoCFld=F IF1Alg=4.
 End of G2Drv F.D. properties file   721 does not exist.
 End of G2Drv F.D. properties file   722 does not exist.
 End of G2Drv F.D. properties file   788 does not exist.
          IDoAtm=11111111111111111111111111111111111111111111111111
 NEqPCM:  Using equilibrium solvation (IEInf=0, Eps=   7.0000, EpsInf=   1.8534)
          Differentiating once with respect to nuclear coordinates.
 CalDSu exits because no D1Ps are significant.
          There are   153 degrees of freedom in the 1st order CPHF.  IDoFFX=6 NUNeed=     0.
    150 vectors produced by pass  0 Test12= 1.32D-13 1.00D-09 XBig12= 5.91D-01 1.40D-01.
 AX will form    30 AO Fock derivatives at one time.
    149 vectors produced by pass  1 Test12= 1.32D-13 1.00D-09 XBig12= 2.82D-02 2.92D-02.
    147 vectors produced by pass  2 Test12= 1.32D-13 1.00D-09 XBig12= 1.05D-03 6.54D-03.
    147 vectors produced by pass  3 Test12= 1.32D-13 1.00D-09 XBig12= 1.35D-05 6.82D-04.
    147 vectors produced by pass  4 Test12= 1.32D-13 1.00D-09 XBig12= 2.04D-07 4.55D-05.
    147 vectors produced by pass  5 Test12= 1.32D-13 1.00D-09 XBig12= 1.95D-09 4.45D-06.
    142 vectors produced by pass  6 Test12= 1.32D-13 1.00D-09 XBig12= 1.84D-11 2.90D-07.
    102 vectors produced by pass  7 Test12= 1.32D-13 1.00D-09 XBig12= 2.61D-13 3.55D-08.
     74 vectors produced by pass  8 Test12= 1.32D-13 1.00D-09 XBig12= 6.27D-14 1.05D-08.
     58 vectors produced by pass  9 Test12= 1.32D-13 1.00D-09 XBig12= 6.10D-14 9.79D-09.
     49 vectors produced by pass 10 Test12= 1.32D-13 1.00D-09 XBig12= 4.22D-14 9.36D-09.
     49 vectors produced by pass 11 Test12= 1.32D-13 1.00D-09 XBig12= 7.79D-14 1.22D-08.
     45 vectors produced by pass 12 Test12= 1.32D-13 1.00D-09 XBig12= 3.69D-14 7.49D-09.
     44 vectors produced by pass 13 Test12= 1.32D-13 1.00D-09 XBig12= 5.44D-14 9.26D-09.
     44 vectors produced by pass 14 Test12= 1.32D-13 1.00D-09 XBig12= 7.26D-14 8.88D-09.
     44 vectors produced by pass 15 Test12= 1.32D-13 1.00D-09 XBig12= 5.42D-14 7.71D-09.
     44 vectors produced by pass 16 Test12= 1.32D-13 1.00D-09 XBig12= 1.15D-13 1.11D-08.
     40 vectors produced by pass 17 Test12= 1.32D-13 1.00D-09 XBig12= 3.89D-14 6.74D-09.
     37 vectors produced by pass 18 Test12= 1.32D-13 1.00D-09 XBig12= 5.83D-14 9.79D-09.
     33 vectors produced by pass 19 Test12= 1.32D-13 1.00D-09 XBig12= 3.07D-14 6.05D-09.
     33 vectors produced by pass 20 Test12= 1.32D-13 1.00D-09 XBig12= 4.26D-14 6.99D-09.
     32 vectors produced by pass 21 Test12= 1.32D-13 1.00D-09 XBig12= 2.74D-14 5.54D-09.
     32 vectors produced by pass 22 Test12= 1.32D-13 1.00D-09 XBig12= 4.96D-14 7.09D-09.
     32 vectors produced by pass 23 Test12= 1.32D-13 1.00D-09 XBig12= 7.55D-14 7.89D-09.
     28 vectors produced by pass 24 Test12= 1.32D-13 1.00D-09 XBig12= 3.20D-14 6.42D-09.
     25 vectors produced by pass 25 Test12= 1.32D-13 1.00D-09 XBig12= 2.26D-14 4.73D-09.
     25 vectors produced by pass 26 Test12= 1.32D-13 1.00D-09 XBig12= 6.77D-14 9.18D-09.
     25 vectors produced by pass 27 Test12= 1.32D-13 1.00D-09 XBig12= 4.67D-14 6.86D-09.
     25 vectors produced by pass 28 Test12= 1.32D-13 1.00D-09 XBig12= 5.14D-14 7.35D-09.
     25 vectors produced by pass 29 Test12= 1.32D-13 1.00D-09 XBig12= 6.29D-14 9.51D-09.
     24 vectors produced by pass 30 Test12= 1.32D-13 1.00D-09 XBig12= 3.65D-14 6.58D-09.
     20 vectors produced by pass 31 Test12= 1.32D-13 1.00D-09 XBig12= 2.88D-14 5.45D-09.
     20 vectors produced by pass 32 Test12= 1.32D-13 1.00D-09 XBig12= 3.64D-14 6.49D-09.
     19 vectors produced by pass 33 Test12= 1.32D-13 1.00D-09 XBig12= 3.21D-14 6.05D-09.
     19 vectors produced by pass 34 Test12= 1.32D-13 1.00D-09 XBig12= 4.23D-14 6.12D-09.
     19 vectors produced by pass 35 Test12= 1.32D-13 1.00D-09 XBig12= 5.93D-14 8.15D-09.
     11 vectors produced by pass 36 Test12= 1.32D-13 1.00D-09 XBig12= 2.06D-14 4.95D-09.
     11 vectors produced by pass 37 Test12= 1.32D-13 1.00D-09 XBig12= 4.85D-14 6.96D-09.
     11 vectors produced by pass 38 Test12= 1.32D-13 1.00D-09 XBig12= 3.87D-14 6.71D-09.
     11 vectors produced by pass 39 Test12= 1.32D-13 1.00D-09 XBig12= 3.44D-14 5.15D-09.
     11 vectors produced by pass 40 Test12= 1.32D-13 1.00D-09 XBig12= 2.10D-14 4.35D-09.
     11 vectors produced by pass 41 Test12= 1.32D-13 1.00D-09 XBig12= 3.23D-14 6.07D-09.
     11 vectors produced by pass 42 Test12= 1.32D-13 1.00D-09 XBig12= 6.00D-14 7.54D-09.
     11 vectors produced by pass 43 Test12= 1.32D-13 1.00D-09 XBig12= 3.76D-14 5.51D-09.
     10 vectors produced by pass 44 Test12= 1.32D-13 1.00D-09 XBig12= 1.76D-14 3.91D-09.
     10 vectors produced by pass 45 Test12= 1.32D-13 1.00D-09 XBig12= 3.55D-14 6.18D-09.
     10 vectors produced by pass 46 Test12= 1.32D-13 1.00D-09 XBig12= 8.42D-14 8.01D-09.
     10 vectors produced by pass 47 Test12= 1.32D-13 1.00D-09 XBig12= 3.44D-14 5.24D-09.
     10 vectors produced by pass 48 Test12= 1.32D-13 1.00D-09 XBig12= 4.46D-14 5.99D-09.
     10 vectors produced by pass 49 Test12= 1.32D-13 1.00D-09 XBig12= 2.65D-14 5.44D-09.
     10 vectors produced by pass 50 Test12= 1.32D-13 1.00D-09 XBig12= 2.98D-14 5.28D-09.
     10 vectors produced by pass 51 Test12= 1.32D-13 1.00D-09 XBig12= 4.93D-14 6.39D-09.
     10 vectors produced by pass 52 Test12= 1.32D-13 1.00D-09 XBig12= 2.50D-14 5.35D-09.
     10 vectors produced by pass 53 Test12= 1.32D-13 1.00D-09 XBig12= 4.10D-14 6.25D-09.
     10 vectors produced by pass 54 Test12= 1.32D-13 1.00D-09 XBig12= 3.88D-14 5.67D-09.
     10 vectors produced by pass 55 Test12= 1.32D-13 1.00D-09 XBig12= 1.88D-14 4.04D-09.
     10 vectors produced by pass 56 Test12= 1.32D-13 1.00D-09 XBig12= 5.18D-14 6.46D-09.
     10 vectors produced by pass 57 Test12= 1.32D-13 1.00D-09 XBig12= 3.42D-14 5.17D-09.
     10 vectors produced by pass 58 Test12= 1.32D-13 1.00D-09 XBig12= 4.16D-14 5.58D-09.
     10 vectors produced by pass 59 Test12= 1.32D-13 1.00D-09 XBig12= 4.21D-14 6.83D-09.
     10 vectors produced by pass 60 Test12= 1.32D-13 1.00D-09 XBig12= 3.09D-14 5.14D-09.
     10 vectors produced by pass 61 Test12= 1.32D-13 1.00D-09 XBig12= 3.60D-14 5.32D-09.
     10 vectors produced by pass 62 Test12= 1.32D-13 1.00D-09 XBig12= 3.58D-14 7.47D-09.
     10 vectors produced by pass 63 Test12= 1.32D-13 1.00D-09 XBig12= 6.50D-14 7.08D-09.
      9 vectors produced by pass 64 Test12= 1.32D-13 1.00D-09 XBig12= 2.96D-14 4.87D-09.
      9 vectors produced by pass 65 Test12= 1.32D-13 1.00D-09 XBig12= 4.66D-14 5.56D-09.
      9 vectors produced by pass 66 Test12= 1.32D-13 1.00D-09 XBig12= 3.76D-14 5.57D-09.
      9 vectors produced by pass 67 Test12= 1.32D-13 1.00D-09 XBig12= 3.67D-14 6.46D-09.
      9 vectors produced by pass 68 Test12= 1.32D-13 1.00D-09 XBig12= 1.33D-14 3.10D-09.
      9 vectors produced by pass 69 Test12= 1.32D-13 1.00D-09 XBig12= 2.80D-14 4.81D-09.
      9 vectors produced by pass 70 Test12= 1.32D-13 1.00D-09 XBig12= 1.70D-14 3.61D-09.
      9 vectors produced by pass 71 Test12= 1.32D-13 1.00D-09 XBig12= 4.12D-14 6.03D-09.
      9 vectors produced by pass 72 Test12= 1.32D-13 1.00D-09 XBig12= 2.91D-14 4.94D-09.
      9 vectors produced by pass 73 Test12= 1.32D-13 1.00D-09 XBig12= 2.48D-14 4.33D-09.
      9 vectors produced by pass 74 Test12= 1.32D-13 1.00D-09 XBig12= 4.49D-14 5.65D-09.
      9 vectors produced by pass 75 Test12= 1.32D-13 1.00D-09 XBig12= 3.99D-14 6.02D-09.
      9 vectors produced by pass 76 Test12= 1.32D-13 1.00D-09 XBig12= 2.22D-14 3.94D-09.
      9 vectors produced by pass 77 Test12= 1.32D-13 1.00D-09 XBig12= 2.57D-14 4.34D-09.
      9 vectors produced by pass 78 Test12= 1.32D-13 1.00D-09 XBig12= 3.90D-14 5.81D-09.
      9 vectors produced by pass 79 Test12= 1.32D-13 1.00D-09 XBig12= 1.85D-14 3.84D-09.
      9 vectors produced by pass 80 Test12= 1.32D-13 1.00D-09 XBig12= 1.66D-14 3.69D-09.
      9 vectors produced by pass 81 Test12= 1.32D-13 1.00D-09 XBig12= 3.88D-14 5.74D-09.
      9 vectors produced by pass 82 Test12= 1.32D-13 1.00D-09 XBig12= 2.65D-14 5.16D-09.
      9 vectors produced by pass 83 Test12= 1.32D-13 1.00D-09 XBig12= 4.45D-14 5.80D-09.
      9 vectors produced by pass 84 Test12= 1.32D-13 1.00D-09 XBig12= 3.28D-14 4.69D-09.
      9 vectors produced by pass 85 Test12= 1.32D-13 1.00D-09 XBig12= 3.38D-14 5.28D-09.
      9 vectors produced by pass 86 Test12= 1.32D-13 1.00D-09 XBig12= 4.07D-14 5.99D-09.
      9 vectors produced by pass 87 Test12= 1.32D-13 1.00D-09 XBig12= 1.79D-14 3.71D-09.
      9 vectors produced by pass 88 Test12= 1.32D-13 1.00D-09 XBig12= 4.09D-14 6.90D-09.
      9 vectors produced by pass 89 Test12= 1.32D-13 1.00D-09 XBig12= 4.01D-14 5.63D-09.
      8 vectors produced by pass 90 Test12= 1.32D-13 1.00D-09 XBig12= 1.85D-14 3.78D-09.
      8 vectors produced by pass 91 Test12= 1.32D-13 1.00D-09 XBig12= 3.24D-14 5.92D-09.
      8 vectors produced by pass 92 Test12= 1.32D-13 1.00D-09 XBig12= 4.53D-14 5.95D-09.
      8 vectors produced by pass 93 Test12= 1.32D-13 1.00D-09 XBig12= 1.85D-14 3.44D-09.
      8 vectors produced by pass 94 Test12= 1.32D-13 1.00D-09 XBig12= 3.71D-14 5.68D-09.
      8 vectors produced by pass 95 Test12= 1.32D-13 1.00D-09 XBig12= 1.67D-14 3.72D-09.
      8 vectors produced by pass 96 Test12= 1.32D-13 1.00D-09 XBig12= 4.63D-14 5.80D-09.
      8 vectors produced by pass 97 Test12= 1.32D-13 1.00D-09 XBig12= 3.63D-14 5.68D-09.
      8 vectors produced by pass 98 Test12= 1.32D-13 1.00D-09 XBig12= 3.14D-14 5.39D-09.
      8 vectors produced by pass 99 Test12= 1.32D-13 1.00D-09 XBig12= 2.52D-14 4.29D-09.
      7 vectors produced by pass100 Test12= 1.32D-13 1.00D-09 XBig12= 6.79D-15 2.47D-09.
      7 vectors produced by pass101 Test12= 1.32D-13 1.00D-09 XBig12= 2.34D-14 4.32D-09.
      7 vectors produced by pass102 Test12= 1.32D-13 1.00D-09 XBig12= 1.58D-14 3.78D-09.
      7 vectors produced by pass103 Test12= 1.32D-13 1.00D-09 XBig12= 2.37D-14 5.17D-09.
      7 vectors produced by pass104 Test12= 1.32D-13 1.00D-09 XBig12= 1.35D-14 3.21D-09.
      7 vectors produced by pass105 Test12= 1.32D-13 1.00D-09 XBig12= 4.29D-14 6.09D-09.
      7 vectors produced by pass106 Test12= 1.32D-13 1.00D-09 XBig12= 3.05D-14 4.93D-09.
      7 vectors produced by pass107 Test12= 1.32D-13 1.00D-09 XBig12= 2.54D-14 4.15D-09.
      7 vectors produced by pass108 Test12= 1.32D-13 1.00D-09 XBig12= 1.94D-14 4.72D-09.
      7 vectors produced by pass109 Test12= 1.32D-13 1.00D-09 XBig12= 2.13D-14 4.29D-09.
      7 vectors produced by pass110 Test12= 1.32D-13 1.00D-09 XBig12= 2.30D-14 3.97D-09.
      7 vectors produced by pass111 Test12= 1.32D-13 1.00D-09 XBig12= 3.03D-14 5.01D-09.
      7 vectors produced by pass112 Test12= 1.32D-13 1.00D-09 XBig12= 2.43D-14 4.50D-09.
      7 vectors produced by pass113 Test12= 1.32D-13 1.00D-09 XBig12= 3.09D-14 4.86D-09.
      7 vectors produced by pass114 Test12= 1.32D-13 1.00D-09 XBig12= 1.64D-14 3.87D-09.
      7 vectors produced by pass115 Test12= 1.32D-13 1.00D-09 XBig12= 1.63D-14 3.59D-09.
      7 vectors produced by pass116 Test12= 1.32D-13 1.00D-09 XBig12= 2.21D-14 4.08D-09.
      7 vectors produced by pass117 Test12= 1.32D-13 1.00D-09 XBig12= 2.50D-14 5.02D-09.
      7 vectors produced by pass118 Test12= 1.32D-13 1.00D-09 XBig12= 1.42D-14 3.39D-09.
      7 vectors produced by pass119 Test12= 1.32D-13 1.00D-09 XBig12= 2.93D-14 4.66D-09.
      7 vectors produced by pass120 Test12= 1.32D-13 1.00D-09 XBig12= 2.65D-14 4.45D-09.
      6 vectors produced by pass121 Test12= 1.32D-13 1.00D-09 XBig12= 8.60D-15 2.46D-09.
      6 vectors produced by pass122 Test12= 1.32D-13 1.00D-09 XBig12= 3.09D-14 5.31D-09.
      6 vectors produced by pass123 Test12= 1.32D-13 1.00D-09 XBig12= 3.12D-14 5.00D-09.
      6 vectors produced by pass124 Test12= 1.32D-13 1.00D-09 XBig12= 2.55D-14 4.09D-09.
      6 vectors produced by pass125 Test12= 1.32D-13 1.00D-09 XBig12= 3.81D-14 5.66D-09.
      6 vectors produced by pass126 Test12= 1.32D-13 1.00D-09 XBig12= 2.45D-14 4.03D-09.
      6 vectors produced by pass127 Test12= 1.32D-13 1.00D-09 XBig12= 2.35D-14 3.99D-09.
      6 vectors produced by pass128 Test12= 1.32D-13 1.00D-09 XBig12= 2.14D-14 4.12D-09.
      6 vectors produced by pass129 Test12= 1.32D-13 1.00D-09 XBig12= 2.49D-14 4.37D-09.
      6 vectors produced by pass130 Test12= 1.32D-13 1.00D-09 XBig12= 1.87D-14 3.73D-09.
      6 vectors produced by pass131 Test12= 1.32D-13 1.00D-09 XBig12= 2.12D-14 4.39D-09.
      6 vectors produced by pass132 Test12= 1.32D-13 1.00D-09 XBig12= 2.42D-14 4.74D-09.
      6 vectors produced by pass133 Test12= 1.32D-13 1.00D-09 XBig12= 1.48D-14 3.27D-09.
      6 vectors produced by pass134 Test12= 1.32D-13 1.00D-09 XBig12= 1.22D-14 3.96D-09.
      6 vectors produced by pass135 Test12= 1.32D-13 1.00D-09 XBig12= 7.95D-15 2.51D-09.
      6 vectors produced by pass136 Test12= 1.32D-13 1.00D-09 XBig12= 9.48D-15 2.65D-09.
      6 vectors produced by pass137 Test12= 1.32D-13 1.00D-09 XBig12= 1.97D-14 4.26D-09.
      6 vectors produced by pass138 Test12= 1.32D-13 1.00D-09 XBig12= 2.59D-14 4.50D-09.
      6 vectors produced by pass139 Test12= 1.32D-13 1.00D-09 XBig12= 8.05D-15 3.04D-09.
      6 vectors produced by pass140 Test12= 1.32D-13 1.00D-09 XBig12= 1.79D-14 4.66D-09.
      6 vectors produced by pass141 Test12= 1.32D-13 1.00D-09 XBig12= 9.02D-15 2.52D-09.
      6 vectors produced by pass142 Test12= 1.32D-13 1.00D-09 XBig12= 1.24D-14 3.22D-09.
      6 vectors produced by pass143 Test12= 1.32D-13 1.00D-09 XBig12= 1.30D-14 2.97D-09.
      6 vectors produced by pass144 Test12= 1.32D-13 1.00D-09 XBig12= 2.19D-14 4.37D-09.
      6 vectors produced by pass145 Test12= 1.32D-13 1.00D-09 XBig12= 1.91D-14 4.17D-09.
      6 vectors produced by pass146 Test12= 1.32D-13 1.00D-09 XBig12= 2.28D-14 4.03D-09.
      4 vectors produced by pass147 Test12= 1.32D-13 1.00D-09 XBig12= 7.44D-15 2.48D-09.
      4 vectors produced by pass148 Test12= 1.32D-13 1.00D-09 XBig12= 1.77D-14 3.83D-09.
      4 vectors produced by pass149 Test12= 1.32D-13 1.00D-09 XBig12= 3.80D-14 5.89D-09.
      4 vectors produced by pass150 Test12= 1.32D-13 1.00D-09 XBig12= 8.35D-15 2.49D-09.
      4 vectors produced by pass151 Test12= 1.32D-13 1.00D-09 XBig12= 2.31D-14 4.33D-09.
      4 vectors produced by pass152 Test12= 1.32D-13 1.00D-09 XBig12= 3.78D-14 5.05D-09.
      4 vectors produced by pass153 Test12= 1.32D-13 1.00D-09 XBig12= 1.42D-14 3.22D-09.
      4 vectors produced by pass154 Test12= 1.32D-13 1.00D-09 XBig12= 1.67D-14 3.57D-09.
      4 vectors produced by pass155 Test12= 1.32D-13 1.00D-09 XBig12= 1.87D-14 4.21D-09.
      4 vectors produced by pass156 Test12= 1.32D-13 1.00D-09 XBig12= 2.45D-14 4.53D-09.
      4 vectors produced by pass157 Test12= 1.32D-13 1.00D-09 XBig12= 9.68D-15 3.27D-09.
      4 vectors produced by pass158 Test12= 1.32D-13 1.00D-09 XBig12= 1.82D-14 3.38D-09.
      4 vectors produced by pass159 Test12= 1.32D-13 1.00D-09 XBig12= 4.65D-14 5.94D-09.
      4 vectors produced by pass160 Test12= 1.32D-13 1.00D-09 XBig12= 1.66D-14 3.76D-09.
      4 vectors produced by pass161 Test12= 1.32D-13 1.00D-09 XBig12= 1.75D-14 3.60D-09.
      4 vectors produced by pass162 Test12= 1.32D-13 1.00D-09 XBig12= 2.37D-14 4.69D-09.
      4 vectors produced by pass163 Test12= 1.32D-13 1.00D-09 XBig12= 8.68D-15 2.62D-09.
      4 vectors produced by pass164 Test12= 1.32D-13 1.00D-09 XBig12= 2.31D-14 4.45D-09.
      4 vectors produced by pass165 Test12= 1.32D-13 1.00D-09 XBig12= 1.30D-14 3.13D-09.
      4 vectors produced by pass166 Test12= 1.32D-13 1.00D-09 XBig12= 2.20D-14 3.65D-09.
      4 vectors produced by pass167 Test12= 1.32D-13 1.00D-09 XBig12= 2.65D-14 5.10D-09.
      4 vectors produced by pass168 Test12= 1.32D-13 1.00D-09 XBig12= 1.87D-14 3.43D-09.
      4 vectors produced by pass169 Test12= 1.32D-13 1.00D-09 XBig12= 1.08D-14 3.12D-09.
      4 vectors produced by pass170 Test12= 1.32D-13 1.00D-09 XBig12= 3.38D-14 5.19D-09.
      4 vectors produced by pass171 Test12= 1.32D-13 1.00D-09 XBig12= 2.81D-14 5.14D-09.
      4 vectors produced by pass172 Test12= 1.32D-13 1.00D-09 XBig12= 2.31D-14 4.23D-09.
      4 vectors produced by pass173 Test12= 1.32D-13 1.00D-09 XBig12= 2.04D-14 3.58D-09.
      4 vectors produced by pass174 Test12= 1.32D-13 1.00D-09 XBig12= 2.42D-14 4.52D-09.
      4 vectors produced by pass175 Test12= 1.32D-13 1.00D-09 XBig12= 2.36D-14 4.60D-09.
      4 vectors produced by pass176 Test12= 1.32D-13 1.00D-09 XBig12= 1.57D-14 3.55D-09.
      4 vectors produced by pass177 Test12= 1.32D-13 1.00D-09 XBig12= 3.12D-14 4.86D-09.
      3 vectors produced by pass178 Test12= 1.32D-13 1.00D-09 XBig12= 7.77D-15 2.68D-09.
      3 vectors produced by pass179 Test12= 1.32D-13 1.00D-09 XBig12= 2.26D-14 3.95D-09.
      3 vectors produced by pass180 Test12= 1.32D-13 1.00D-09 XBig12= 1.11D-14 3.02D-09.
      3 vectors produced by pass181 Test12= 1.32D-13 1.00D-09 XBig12= 8.78D-15 2.43D-09.
      3 vectors produced by pass182 Test12= 1.32D-13 1.00D-09 XBig12= 1.47D-14 3.34D-09.
      3 vectors produced by pass183 Test12= 1.32D-13 1.00D-09 XBig12= 3.22D-14 4.75D-09.
      3 vectors produced by pass184 Test12= 1.32D-13 1.00D-09 XBig12= 1.82D-14 3.41D-09.
      3 vectors produced by pass185 Test12= 1.32D-13 1.00D-09 XBig12= 2.36D-14 3.92D-09.
      3 vectors produced by pass186 Test12= 1.32D-13 1.00D-09 XBig12= 8.15D-15 2.57D-09.
      3 vectors produced by pass187 Test12= 1.32D-13 1.00D-09 XBig12= 1.63D-14 4.00D-09.
      3 vectors produced by pass188 Test12= 1.32D-13 1.00D-09 XBig12= 1.76D-14 4.27D-09.
      3 vectors produced by pass189 Test12= 1.32D-13 1.00D-09 XBig12= 2.50D-14 4.67D-09.
      3 vectors produced by pass190 Test12= 1.32D-13 1.00D-09 XBig12= 2.05D-14 3.83D-09.
      3 vectors produced by pass191 Test12= 1.32D-13 1.00D-09 XBig12= 1.16D-14 2.80D-09.
      3 vectors produced by pass192 Test12= 1.32D-13 1.00D-09 XBig12= 2.59D-14 4.36D-09.
      3 vectors produced by pass193 Test12= 1.32D-13 1.00D-09 XBig12= 2.15D-14 4.46D-09.
      3 vectors produced by pass194 Test12= 1.32D-13 1.00D-09 XBig12= 1.49D-14 3.05D-09.
      3 vectors produced by pass195 Test12= 1.32D-13 1.00D-09 XBig12= 3.24D-14 4.87D-09.
      3 vectors produced by pass196 Test12= 1.32D-13 1.00D-09 XBig12= 8.30D-15 2.65D-09.
      3 vectors produced by pass197 Test12= 1.32D-13 1.00D-09 XBig12= 1.00D-14 2.94D-09.
      3 vectors produced by pass198 Test12= 1.32D-13 1.00D-09 XBig12= 3.88D-14 4.84D-09.
      3 vectors produced by pass199 Test12= 1.32D-13 1.00D-09 XBig12= 1.69D-14 4.15D-09.
      3 vectors produced by pass200 Test12= 1.32D-13 1.00D-09 XBig12= 1.70D-14 4.27D-09.
      3 vectors produced by pass201 Test12= 1.32D-13 1.00D-09 XBig12= 1.09D-14 2.43D-09.
      3 vectors produced by pass202 Test12= 1.32D-13 1.00D-09 XBig12= 1.85D-14 3.75D-09.
      3 vectors produced by pass203 Test12= 1.32D-13 1.00D-09 XBig12= 1.82D-14 3.23D-09.
      3 vectors produced by pass204 Test12= 1.32D-13 1.00D-09 XBig12= 8.50D-15 2.41D-09.
      3 vectors produced by pass205 Test12= 1.32D-13 1.00D-09 XBig12= 6.16D-15 2.18D-09.
      3 vectors produced by pass206 Test12= 1.32D-13 1.00D-09 XBig12= 2.90D-14 4.25D-09.
      3 vectors produced by pass207 Test12= 1.32D-13 1.00D-09 XBig12= 1.75D-14 3.72D-09.
      1 vectors produced by pass208 Test12= 1.32D-13 1.00D-09 XBig12= 3.51D-15 1.44D-09.
 InvSVY:  IOpt=1 It=  1 EMax= 8.88D-16
 Solved reduced A of dimension  3215 with   153 vectors.
 End of Minotr F.D. properties file   721 does not exist.
 End of Minotr F.D. properties file   722 does not exist.
 End of Minotr F.D. properties file   788 does not exist.

 **********************************************************************

            Population analysis using the SCF density.

 **********************************************************************

 Orbital symmetries:
 Alpha Orbitals:
       Occupied  (A) (A) (A) (A) (A) (A) (A) (A) (A) (A) (A) (A)
                 (A) (A) (A) (A) (A) (A) (A) (A) (A) (A) (A) (A)
                 (A) (A) (A) (A) (A) (A) (A) (A) (A) (A) (A) (A)
                 (A) (A) (A) (A) (A) (A) (A) (A) (A) (A) (A) (A)
                 (A) (A) (A) (A) (A) (A) (A) (A) (A) (A) (A) (A)
                 (A) (A) (A) (A) (A) (A) (A) (A) (A) (A) (A) (A)
                 (A) (A) (A) (A) (A) (A) (A) (A) (A) (A) (A) (A)
                 (A) (A) (A) (A) (A) (A) (A) (A) (A) (A) (A) (A)
                 (A) (A) (A) (A) (A) (A) (A) (A) (A) (A) (A) (A)
                 (A)
       Virtual   (A) (A) (A) (A) (A) (A) (A) (A) (A) (A) (A) (A)
                 (A) (A) (A) (A) (A) (A) (A) (A) (A) (A) (A) (A)
                 (A) (A) (A) (A) (A) (A) (A) (A) (A) (A) (A) (A)
                 (A) (A) (A) (A) (A) (A) (A) (A) (A) (A) (A) (A)
                 (A) (A) (A) (A) (A) (A) (A) (A) (A) (A) (A) (A)
                 (A) (A) (A) (A) (A) (A) (A) (A) (A) (A) (A) (A)
                 (A) (A) (A) (A) (A) (A) (A) (A) (A) (A) (A) (A)
                 (A) (A) (A) (A) (A) (A) (A) (A) (A) (A) (A) (A)
                 (A) (A) (A) (A) (A) (A) (A) (A) (A) (A) (A) (A)
[...]
 005227,0.00061391,0.00021195,-0.00001916,-0.00067408,0.00002271,0.0000
 0406,0.00003987,-0.00003219,0.00000363,0.00025520,0.00079643,0.0000340
 0,0.00005043,-0.00001783,-0.00000035,0.00070507,-0.00058537,0.00004105
 ,-0.00003140,0.00006266,0.00000050,-0.00084001,0.00076983,-0.00004588,
 0.00000017,-0.00014572,0.00000285,-0.00045126,-0.00011971,0.00010690,0
 .00011550,-0.00001021,-0.00018135,0.00000724,-0.00000087,0.00002438,-0
 .00003063,-0.00001148,0.00001334,0.00001460,0.00001544,0.00000276,0.00
 162472,0.00062379,-0.00016371,-0.00020556,-0.00028313,-0.00060838,-0.1
 1306881,0.10396726,-0.00004079,0.00003274,0.00006480,-0.00001431,-0.00
 001446,-0.00003300,0.00008174,0.00004516,-0.00013645,0.00004171,0.0000
 5698,-0.00000159,0.00008815,-0.00036719,0.00096531,-0.00018267,-0.0000
 3674,-0.00071185,0.00002866,-0.00000197,-0.00003104,-0.00000590,-0.000
 00674,0.00001109,0.00000044,-0.00000181,0.00001251,0.00001520,-0.00000
 027,-0.00001234,-0.00000702,0.00000142,-0.00000919,-0.00000490,-0.0000
 1329,0.00002388,-0.00000347,0.00000669,0.00000175,-0.00002496,-0.00000
 645,-0.00000047,-0.00000289,0.00000058,0.00000079,0.00003611,0.0000114
 6,0.00000291,-0.00000648,0.00000165,-0.00000080,0.00001867,0.00001621,
 -0.00002646,-0.00000138,-0.00000354,-0.00000059,0.00000071,0.00000009,
 0.00000250,0.00000185,0.00000202,-0.00000128,-0.00000170,-0.00000051,-
 0.00000039,-0.00013974,-0.00042983,0.00006906,0.00000717,-0.00002866,0
 .00005241,-0.00028107,0.00161142,0.00163219,0.00002542,-0.00002165,-0.
 00003209,-0.00151997,-0.00302437,0.00042708,-0.00128885,0.00434560,-0.
 00870649,-0.00012703,0.00025935,-0.00015936,-0.00004601,-0.00012219,-0
 .00002832,0.00010526,0.00004832,-0.00000980,-0.00011566,0.00001163,0.0
 0000765,0.00000841,-0.00000696,0.00000122,0.00006478,0.00013558,0.0000
 0820,0.00001104,-0.00000373,0.00001206,0.00013336,-0.00012068,0.000008
 79,-0.00000883,0.00001378,0.00000585,-0.00016493,0.00015467,-0.0000169
 9,0.00000135,-0.00003029,0.00000684,-0.00008695,-0.00002211,0.00000903
 ,0.00001960,-0.00000586,-0.00001931,0.00000037,0.00000309,0.00000041,-
 0.00000557,-0.00000390,0.00000108,0.00000450,0.00000173,0.00000028,0.0
 0080810,0.00056997,-0.00069196,-0.00040310,-0.00033062,-0.00014035,-0.
 07084420,0.00246973,0.06916109,-0.00015672,-0.00007824,-0.00019719,-0.
 00007766,0.00004184,-0.00004285,0.00051173,0.00015226,-0.00001476,0.00
 010346,0.00014423,-0.00000427,-0.00072312,-0.00133993,0.00154260,0.000
 12174,0.00032857,-0.00076709,0.00016698,0.00006358,0.00002187,-0.00001
 174,-0.00002922,-0.00007924,-0.00000517,-0.00006624,0.00004832,0.00007
 492,0.00002096,-0.00003550,-0.00002391,0.00002183,0.00000810,0.0000623
 9,0.00000413,0.00007417,-0.00002660,0.00004045,0.00000186,-0.00008408,
 -0.00001836,0.00000327,-0.00000032,0.00001602,0.00001379,0.00010400,0.
 00001817,0.00000322,-0.00000922,0.00002395,0.00000404,0.00001725,-0.00
 002847,-0.00003237,-0.00000758,0.00004360,0.00000134,0.00000543,-0.000
 00471,0.00000402,0.00000129,0.00000175,-0.00000029,-0.00000227,-0.0000
 0458,-0.00000292,0.00004477,-0.00267442,-0.00005422,0.00003702,-0.0000
 4678,-0.00008286,-0.00124133,0.00611198,-0.00087689,0.00004322,-0.0000
 9842,-0.00002768,-0.00480076,-0.01322679,0.00118413,-0.02116422,0.0285
 0708,0.00470348,-0.00089348,0.00109462,0.00011142,-0.00011573,-0.00066
 725,-0.00001757,0.00052524,0.00018422,0.00003186,-0.00060510,0.0000352
 9,-0.00003830,0.00003829,-0.00002308,0.00000703,0.00024203,0.00069950,
 -0.00000769,0.00005035,-0.00001752,0.00000642,0.00065845,-0.00055167,0
 .00006728,-0.00003347,0.00006188,0.00000203,-0.00077191,0.00070653,-0.
 00004912,0.00000386,-0.00013356,0.00001040,-0.00038374,-0.00008868,0.0
 0008956,0.00010654,-0.00001821,-0.00015841,0.00000294,-0.00000222,0.00
 001932,-0.00002676,-0.00001435,0.00001218,0.00001291,0.00002005,0.0000
 0184,0.00146288,0.00122680,-0.00002724,0.00040368,0.00037670,0.0000392
 3,-0.31266402,0.15859388,0.03113190,0.50010994,0.00025986,0.00002621,0
 .00023248,-0.00000624,0.00003331,0.00000950,-0.00013670,-0.00028039,-0
 .00029361,-0.00003318,0.00006724,0.00001183,0.00026439,0.00042077,0.00
 058204,-0.00010723,-0.00052943,-0.00040810,-0.00011368,-0.00007028,-0.
 00000032,0.00005047,-0.00003032,0.00005378,0.00002043,0.00002738,-0.00
 005592,-0.00005903,-0.00003373,0.00005853,0.00000368,0.00001485,0.0000
 0811,0.00000414,0.00003002,-0.00011151,0.00000305,0.00004109,-0.000008
 85,0.00014123,0.00004088,0.00002091,-0.00001596,-0.00000014,-0.0000006
 8,-0.00018780,-0.00008140,-0.00005813,0.00002492,0.00000770,0.00003596
 ,-0.00004626,-0.00008934,0.00002809,0.00000795,0.00007407,0.00000181,0
 .00000127,-0.00000484,0.00000154,-0.00000190,-0.00000420,0.00000622,-0
 .00000079,-0.00000029,-0.00000600,0.00000630,0.00013732,-0.00004551,-0
 .00001097,0.00002470,0.00002564,0.00003096,-0.00068478,0.00031155,-0.0
 0003784,0.00004413,-0.00000266,0.00044334,0.00168964,0.00011191,0.0103
 8465,-0.00290283,-0.00233751,0.00007937,-0.00006454,-0.00004579,-0.000
 00103,0.00003415,0.00006536,-0.00005542,-0.00000805,0.00004221,0.00004
 283,-0.00000800,-0.00006721,0.00000090,0.00000814,0.00000541,-0.000049
 49,-0.00006974,-0.00007089,0.00000005,0.00000020,0.00000504,-0.0000317
 8,0.00004561,0.00005118,-0.00000179,0.00000012,0.00000064,0.00004971,-
 0.00004872,-0.00000787,0.00000853,0.00000319,0.00000839,0.00007941,0.0
 0002675,-0.00001402,-0.00001196,-0.00000591,0.00002884,-0.00000420,-0.
 00000132,-0.00000595,0.00000194,-0.00000185,-0.00000308,0.00000087,0.0
 0000133,-0.00000231,-0.00054266,-0.00076105,-0.00033151,0.00037106,-0.
 00157791,-0.00046450,0.13170922,-0.11740330,0.00564864,-0.15927950,0.2
 4513417,-0.00023794,0.00000938,-0.00028510,0.00004199,-0.00000785,0.00
 004047,-0.00025052,0.00012106,0.00041015,-0.00003380,-0.00018246,0.000
 00219,0.00030353,0.00063540,-0.00219193,0.00034160,0.00009961,0.001549
 88,0.00001688,0.00000552,0.00003811,-0.00002530,0.00003630,-0.00006675
 ,-0.00003537,0.00002618,0.00002629,0.00001381,0.00003001,-0.00001854,0
 .00001192,-0.00000690,0.00001674,-0.00000840,-0.00001350,0.00004097,0.
 00001232,-0.00006587,0.00000807,-0.00006769,-0.00003426,-0.00001548,0.
 00001964,0.00000004,-0.00000248,0.00008555,0.00005381,0.00004654,-0.00
 000757,-0.00001438,-0.00002810,0.00000623,0.00006345,0.00002573,-0.000
 00141,-0.00007293,-0.00000399,-0.00000553,0.00000526,-0.00000608,-0.00
 000116,0.00000012,-0.00000391,0.00000526,0.00000399,0.00000776,-0.0000
 1210,0.00148204,0.00004571,-0.00001688,0.00000971,0.00001332,0.0008311
 1,-0.00342553,-0.00024975,-0.00005180,0.00005565,-0.00000188,0.0018285
 8,0.00858786,-0.00042309,0.00948217,-0.01332301,0.00315303,0.00046888,
 -0.00061890,0.00001557,0.00007249,0.00037477,-0.00003021,-0.00027654,-
 0.00009277,-0.00004234,0.00033113,-0.00002776,0.00007823,-0.00002192,0
 .00001110,-0.00001414,-0.00013037,-0.00038587,0.00004171,-0.00002882,0
 .00000926,-0.00001895,-0.00037387,0.00030823,-0.00007731,0.00001992,-0
 .00003626,-0.00000487,0.00043820,-0.00039784,0.00004545,-0.00000908,0.
 00007899,-0.00002019,0.00018957,0.00004128,-0.00003386,-0.00005553,0.0
 0001688,0.00006646,0.00000133,-0.00000094,-0.00000552,0.00001561,0.000
 00988,-0.00000495,-0.00000908,-0.00001126,0.00000018,-0.00180665,-0.00
 077482,0.00009145,0.00055655,-0.00068275,0.00000562,0.05694829,-0.0102
 2659,-0.04568444,-0.14716833,-0.10001776,0.19148318,-0.00014557,-0.000
 12671,-0.00019230,-0.00010353,0.00004086,-0.00003860,0.00065503,0.0000
 9260,-0.00003080,0.00010691,0.00018928,-0.00002022,-0.00187802,-0.0019
 2968,0.00162859,0.00041358,0.00082195,-0.00077061,0.00024726,0.0001068
 3,0.00001055,-0.00003791,-0.00005164,-0.00004059,0.00001554,-0.0000887
 3,0.00007898,0.00010865,0.00002112,-0.00011977,-0.00002843,0.00002328,
 0.00000437,0.00007227,0.00001927,0.00006424,-0.00003810,0.00006269,-0.
 00000226,-0.00011711,-0.00001337,0.00008636,-0.00000232,0.00001958,0.0
 0001649,0.00012950,0.00002018,-0.00002578,-0.00001621,0.00002529,0.000
 01881,0.00002353,-0.00004331,-0.00004925,-0.00000333,0.00006112,0.0000
 0465,0.00000536,-0.00000455,0.00000278,0.00000665,0.00000179,-0.000005
 21,-0.00000459,-0.00000528,-0.00000399,0.00018616,-0.00176574,0.000097
 30,0.00000846,-0.00008808,-0.00002830,-0.00113842,0.00329323,-0.000191
 64,-0.00004177,0.00001114,-0.00004730,0.00113588,-0.00767787,-0.000022
 89,-0.00698868,0.00968536,0.00112454,-0.00065603,0.00066049,-0.0000168
 2,-0.00005341,-0.00044188,-0.00010051,0.00040833,0.00012869,-0.0000403
 3,-0.00041106,0.00000737,0.00005488,0.00002955,-0.00001901,0.00000819,
 0.00012076,0.00046165,0.00004674,0.00002739,-0.00001454,-0.00000018,0.
 00042646,-0.00037067,0.00000014,-0.00001987,0.00003992,0.00001003,-0.0
 0050081,0.00048654,-0.00002770,-0.00001182,-0.00009080,0.00000032,-0.0
 0026802,-0.00005355,0.00005224,0.00007156,-0.00001496,-0.00009417,0.00
 000427,-0.00000081,0.00001233,-0.00001591,-0.00000866,0.00000695,0.000
 00848,0.00001312,0.00000174,0.00093983,0.00100771,-0.00011512,-0.00025
 569,-0.00007619,-0.00043396,0.01715213,-0.01200955,0.00540996,-0.10238
 493,-0.05404897,0.10149436,0.77989761,0.00017416,-0.00002398,0.0001526
 3,0.00003004,0.00001264,0.00000333,-0.00029905,-0.00018163,-0.00013272
 ,-0.00003994,-0.00001039,0.00001023,0.00074697,0.00073662,-0.00007209,
 -0.00019392,-0.00054577,-0.00010481,-0.00011978,-0.00003589,-0.0000130
 6,0.00002412,-0.00000760,0.00004252,0.00001327,0.00004018,-0.00003431,
 -0.00006391,-0.00000624,0.00004537,0.00000874,-0.00000105,-0.00000013,
 -0.00003152,0.00000672,-0.00007588,0.00001198,-0.00000035,-0.00000130,
 0.00011216,0.00002916,-0.00000107,-0.00000572,-0.00000611,-0.00000851,
 -0.00011727,-0.00004180,-0.00001486,0.00001223,-0.00000537,0.00000357,
 -0.00002791,-0.00002662,0.00003574,0.00000256,0.00001299,0.00000045,0.
 00000124,-0.00000085,-0.00000014,-0.00000178,-0.00000363,0.00000484,0.
 00000014,-0.00000050,-0.00000244,-0.00008688,0.00044886,-0.00004562,0.
 00000374,0.00003337,0.00001201,0.00030682,-0.00061030,0.00007484,0.000
 02663,-0.00002014,0.00002792,-0.00100849,0.00160698,0.00014130,0.00027
 873,-0.00067463,-0.00060859,0.00017890,-0.00015186,0.00001415,0.000005
 92,0.00011755,0.00002265,-0.00009973,-0.00003385,-0.00000161,0.0001117
 7,0.00000032,-0.00001652,-0.00000846,0.00000642,0.00000127,-0.00004366
 ,-0.00012525,-0.00001168,-0.00000894,0.00000359,0.00000516,-0.00011701
 ,0.00010774,0.00000249,0.00000401,-0.00001008,-0.00000175,0.00013729,-
 0.00013362,0.00000597,0.00000252,0.00002544,0.00000147,0.00008325,0.00
 001378,-0.00002030,-0.00002478,0.00000320,0.00003558,-0.00000174,0.000
 00075,-0.00000516,0.00000539,0.00000247,-0.00000201,-0.00000194,-0.000
 00457,-0.00000148,-0.00031477,0.00005003,0.00032112,0.00008427,0.00001
 994,0.00010890,-0.00331551,0.00010556,0.01125371,-0.04895916,0.0503203
 2,-0.02407725,-0.22077043,0.13397366,-0.00017395,-0.00004901,-0.000185
 94,-0.00000342,-0.00001076,-0.00000920,0.00001682,0.00002978,0.0001860
 6,0.00001299,-0.00005543,-0.00000672,-0.00012205,-0.00021362,-0.000412
 08,0.00014595,0.00006604,0.00039537,0.00004643,0.00004222,0.00004515,-
 0.00000238,-0.00000233,-0.00006948,-0.00002352,-0.00001156,0.00001316,
 0.00002501,0.00003252,0.00000172,-0.00000333,-0.00000182,0.00000532,0.
 00002446,-0.00000590,0.00005612,-0.00000273,-0.00001842,-0.00000053,-0
 .00006201,-0.00003386,-0.00004184,0.00000907,0.00000392,0.00000747,0.0
 0007004,0.00003505,0.00002909,-0.00000201,0.00000047,-0.00001162,0.000
 00787,0.00002638,0.00000004,-0.00000192,-0.00002584,-0.00000254,-0.000
 00154,0.00000118,-0.00000123,-0.00000228,0.00000129,-0.00000033,0.0000
 0221,0.00000079,0.00000394,0.00000166,0.00049224,-0.00001953,-0.000007
 91,-0.00002288,0.00001259,0.00021666,-0.00122288,0.00012510,-0.0000351
 5,0.00002757,-0.00000633,0.00131615,0.00313227,-0.00035047,0.00312421,
 -0.00532529,-0.00026982,0.00016260,-0.00020709,-0.00002287,0.00001726,
 0.00012038,0.00004594,-0.00012591,-0.00001573,-0.00001627,0.00009446,-
 0.00000339,-0.00002131,-0.00000473,0.00000189,-0.00000778,-0.00001097,
 -0.00011582,0.00000309,-0.00000395,0.00000465,-0.00000342,-0.00009736,
 0.00008205,-0.00000247,0.00000574,-0.00000737,-0.00000294,0.00011944,-
 0.00012157,0.00000853,0.00000516,0.00002391,0.00000018,0.00005376,0.00
 000852,-0.00000829,-0.00001232,0.00000416,0.00001328,-0.00000089,-0.00
 000103,0.00000023,0.00000156,0.00000143,-0.00000103,-0.00000263,-0.000
 00109,0.00000153,-0.00058469,0.00005837,0.00011015,0.00002096,-0.00003
 984,-0.00011330,-0.00047431,0.01626377,-0.00215730,0.09596800,-0.02084
 236,-0.04691812,-0.24934412,0.01780192,0.13631289,0.00024979,0.0002339
 8,0.00032690,0.00012240,-0.00004934,0.00004597,-0.00080315,-0.00015080
 ,-0.00007209,-0.00012915,-0.00020817,0.00003239,0.00186305,0.00259409,
 -0.00196794,-0.00079486,-0.00093004,0.00086033,-0.00034185,-0.00010689
 ,-0.00002523,0.00003286,0.00009413,0.00008550,-0.00000341,0.00011191,-
 0.00009792,-0.00012320,-0.00006869,0.00011735,0.00003703,-0.00003076,-
 0.00000472,-0.00009306,-0.00001651,-0.00010301,0.00004783,-0.00008070,
 0.00000325,0.00013523,0.00003748,-0.00007141,0.00000409,-0.00002415,-0
 .00002158,-0.00016530,-0.00003423,0.00001976,0.00001763,-0.00002992,-0
 .00001805,-0.00003104,0.00004771,0.00006570,0.00000534,-0.00007620,-0.
 00000423,-0.00000774,0.00000592,-0.00000613,-0.00000572,-0.00000289,0.
 00000304,0.00000554,0.00000845,0.00000572,-0.00024881,0.00217774,-0.00
 006889,-0.00001461,0.00009106,0.00004957,0.00145804,-0.00393895,0.0003
 8661,0.00004339,-0.00000847,0.00005147,-0.00161992,0.00982231,-0.00021
 160,0.00879412,-0.01095022,-0.00215313,0.00079122,-0.00080563,-0.00000
 266,0.00006780,0.00053450,0.00006704,-0.00046284,-0.00015587,0.0000260
 4,0.00049114,-0.00000700,-0.00000895,-0.00003603,0.00002241,-0.0000117
 0,-0.00016266,-0.00055249,-0.00001929,-0.00003735,0.00001299,-0.000005
 64,-0.00052407,0.00044941,-0.00003979,0.00002428,-0.00005231,-0.000009
 64,0.00061659,-0.00058734,0.00004328,0.00000542,0.00011197,-0.00000908
 ,0.00031405,0.00005765,-0.00006445,-0.00008643,0.00002409,0.00011233,-
 0.00000248,-0.00000015,-0.00001401,0.00002055,0.00001167,-0.00000838,-
 0.00001173,-0.00001739,-0.00000109,-0.00186292,-0.00030647,0.00034983,
 0.00038669,0.00010340,0.00059014,-0.03643807,-0.02460224,0.03728394,-0
 .05869746,0.07079386,-0.02290127,-0.68707962,0.27329547,0.14963758,0.7
 7424942,-0.00017127,0.00015949,-0.00009675,0.00003710,-0.00001830,0.00
 000671,0.00003693,0.00037241,0.00031287,-0.00003037,-0.00007443,0.0000
 0530,0.00056669,-0.00078707,-0.00075626,-0.00018107,0.00068298,0.00031
 079,0.00002893,0.00001974,-0.00001124,-0.00001690,0.00001986,-0.000018
 01,-0.00001568,0.00000261,0.00002217,0.00003035,-0.00001163,-0.0000350
 6,0.00000398,-0.00000819,0.00000339,0.00001677,-0.00001387,0.00002589,
 0.00000283,-0.00002756,0.00000344,-0.00007348,0.00000198,0.00000868,0.
 00001016,0.00000018,0.00000042,0.00007624,0.00003177,0.00002301,-0.000
 00986,-0.00000306,-0.00001438,0.00001491,0.00003306,0.00000414,-0.0000
 0271,-0.00003540,-0.00000205,-0.00000168,0.00000272,-0.00000376,0.0000
 0060,0.00000106,-0.00000438,0.00000190,0.00000167,0.00000377,0.0000013
 7,0.00071000,0.00001191,-0.00000536,0.00002917,0.00002392,0.00043121,-
 0.00173630,0.00010396,-0.00001730,0.00004109,-0.00001909,0.00085291,0.
 00345894,-0.00037004,0.00507624,-0.00722048,0.00027114,0.00021961,-0.0
 0028959,-0.00000140,0.00003846,0.00017820,-0.00002899,-0.00012108,-0.0
 0005954,-0.00003481,0.00016024,-0.00000846,0.00006230,-0.00001135,0.00
 000560,-0.00000915,-0.00004225,-0.00018301,0.00005906,-0.00001428,0.00
 000515,-0.00001275,-0.00019200,0.00013588,-0.00006497,0.00001227,-0.00
 001904,-0.00000071,0.00021620,-0.00018536,0.00002355,-0.00001202,0.000
 03863,-0.00001203,0.00007113,0.00002093,-0.00001448,-0.00002188,0.0000
 0859,0.00002259,0.00000195,-0.00000026,-0.00000092,0.00000811,0.000005
 12,-0.00000170,-0.00000491,-0.00000435,0.00000135,0.00067462,-0.002165
 01,-0.00136054,0.00003279,0.00004123,0.00000892,-0.00207610,0.01651925
 ,-0.02209842,0.02883152,-0.17359093,0.14242169,0.28241390,-0.18501622,
 -0.00990788,-0.31684837,0.34893074,0.00049644,0.00012602,0.00056313,0.
 00000035,0.00004260,-0.00002753,0.00015064,-0.00025780,-0.00060664,-0.
 00003156,0.00020318,-0.00000001,-0.00008531,0.00022691,0.00110053,-0.0
 0055072,-0.00002541,-0.00099342,-0.00011932,-0.00008339,-0.00008517,0.
 00004805,-0.00004653,0.00014805,0.00006259,0.00000388,-0.00006769,-0.0
 0007679,-0.00007490,0.00006080,-0.00000173,0.00001217,-0.00001529,-0.0
 0002653,0.00003273,-0.00016876,-0.00000457,0.00008318,-0.00000593,0.00
 022126,0.00010847,0.00005905,-0.00003104,-0.00000549,-0.00001430,-0.00
 023645,-0.00012634,-0.00007793,0.00001580,0.00001599,0.00003623,-0.000
 04370,-0.00013117,0.00001969,0.00000239,0.00012422,0.00000765,0.000009
 91,-0.00001025,0.00000542,-0.00000084,-0.00000647,0.00000937,-0.000006
 41,-0.00000700,-0.00001509,0.00004778,-0.00150922,-0.00007825,0.000025
 19,0.00005986,-0.00004517,-0.00078195,0.00339291,-0.00031272,0.0000885
 1,-0.00006438,0.00002231,-0.00274626,-0.00957759,0.00085446,-0.0087685
 8,0.01369916,0.00102561,-0.00045768,0.00061688,0.00007149,-0.00006175,
 -0.00036514,-0.00000521,0.00029324,0.00005176,0.00009048,-0.00029229,0
 .00002712,-0.00005073,0.00001493,-0.00000601,0.00001786,0.00009036,0.0
 0036263,-0.00006241,0.00002414,-0.00000769,0.00001609,0.00032682,-0.00
 026881,0.00007226,-0.00001814,0.00003004,0.00000277,-0.00039593,0.0003
 7049,-0.00004188,0.00000380,-0.00007573,0.00001456,-0.00016083,-0.0000
 2831,0.00003285,0.00004745,-0.00001705,-0.00005306,-0.00000116,0.00000
 110,0.00000019,-0.00000957,-0.00000781,0.00000437,0.00000838,0.0000084
 3,-0.00000331,0.00232450,-0.00067531,-0.00042905,-0.00003589,-0.000295
 29,-0.00009603,0.01678543,-0.01003602,-0.01387693,0.01457209,0.1178464
 2,-0.10110079,0.14152684,-0.00487585,-0.08671419,-0.16224189,-0.108861
 17,0.20071229\\-0.00000288,-0.00000133,-0.00000404,-0.00000039,-0.0000
 0001,-0.00000285,0.00000121,0.00000247,-0.00000067,-0.00000046,0.00000
 354,-0.00000169,-0.00000180,0.00000037,-0.00000305,-0.00000331,0.00000
 249,0.00000205,0.00000265,-0.00000007,-0.00000077,0.00000141,-0.000000
 92,-0.00000295,0.00000089,0.00000186,-0.00000006,-0.00000014,-0.000001
 22,-0.00000199,0.00000187,-0.00000387,-0.00000349,-0.00000040,0.000003
 08,0.00000031,-0.00000187,0.00000286,-0.00000127,-0.00000048,0.0000010
 8,-0.00000198,0.00000193,-0.00000410,-0.00000138,-0.00000122,-0.000001
 09,-0.00000064,0.00000078,-0.00000190,-0.00000092,0.00000111,0.0000029
 5,-0.00000187,-0.00000147,0.00000168,0.00000374,-0.00000118,0.00000259
 ,0.00000344,-0.00000146,0.00000457,0.00000332,-0.00000173,0.00000171,0
 .00000289,0.00000020,-0.00000202,0.00000180,0.00000233,0.00000119,0.00
 000012,0.00000189,0.00000147,-0.00000417,0.00000031,0.00000006,-0.0000
 0361,-0.00000027,-0.00000658,-0.00000215,0.00000044,0.00000641,-0.0000
 0832,-0.00000247,0.00000051,0.00000194,-0.00000109,-0.00000058,0.00000
 265,0.00000094,0.00000077,0.00000086,-0.00000303,-0.00000163,0.0000060
 1,0.00000102,-0.00000031,0.00000466,-0.00000080,-0.00000040,0.00000473
 ,-0.00000080,-0.00000052,0.00000145,0.00000084,-0.00000097,0.00000618,
 -0.00000151,0.00000008,0.00000813,0.00000197,-0.00000228,0.00000634,-0
 .00000178,-0.00000076,0.00000807,0.00000080,-0.00000060,0.00000274,0.0
 0000210,-0.00000353,0.00000446,0.00000064,-0.00000429,0.00000226,0.000
 00029,-0.00000224,0.00000309,0.00000020,-0.00000346,0.00000621,-0.0000
 0229,-0.00000047,-0.00000124,0.00000262,-0.00000296,-0.00000555,0.0000
 0270,0.00000044,-0.00000617,-0.00000116,0.00000125,-0.00000874,-0.0000
 0780,0.00000589,-0.00000631,0.00001066,-0.00000119,-0.00001158\\\@


 IF OTHER PEOPLE ARE GOING TO TALK, CONVERSATION IS SIMPLY IMPOSSIBLE.

                                               -- WHISTLER'S PRINCIPLE
 Job cpu time:       0 days 23 hours 49 minutes 15.8 seconds.
 Elapsed time:       0 days 23 hours 50 minutes 59.8 seconds.
 File lengths (MBytes):  RWF=  16964 Int=      0 D2E=      0 Chk=     81 Scr=      1
 Normal termination of Gaussian 16 at Sat Nov  9 16:08:28 2024.
