 Entering Gaussian System, Link 0=g16
 Initial command:
 /home/aderezen/G16/AVX2//g16/l1.exe "/lustre/scratch/natrosa/14293111/Gau-69535.inp" -scrdir="/lustre/scratch/natrosa/14293111/"
 Entering Link 1 = /home/aderezen/G16/AVX2//g16/l1.exe PID=     69536.
  
 Copyright (c) 1988-2019, Gaussian, Inc.  All Rights Reserved.
  
 This is part of the Gaussian(R) 16 program.  It is based on
 the Gaussian(R) 09 system (copyright 2009, Gaussian, Inc.),
 the Gaussian(R) 03 system (copyright 2003, Gaussian, Inc.),
 the Gaussian(R) 98 system (copyright 1998, Gaussian, Inc.),
 the Gaussian(R) 94 system (copyright 1995, Gaussian, Inc.),
 the Gaussian 92(TM) system (copyright 1992, Gaussian, Inc.),
 the Gaussian 90(TM) system (copyright 1990, Gaussian, Inc.),
 the Gaussian 88(TM) system (copyright 1988, Gaussian, Inc.),
 the Gaussian 86(TM) system (copyright 1986, Carnegie Mellon
 University), and the Gaussian 82(TM) system (copyright 1983,
 Carnegie Mellon University). Gaussian is a federally registered
 trademark of Gaussian, Inc.
  
 This software contains proprietary and confidential information,
 including trade secrets, belonging to Gaussian, Inc.
  
 This software is provided under written license and may be
 used, copied, transmitted, or stored only in accord with that
 written license.
  
 The following legend is applicable only to US Government
 contracts under FAR:
  
                    RESTRICTED RIGHTS LEGEND
  
 Use, reproduction and disclosure by the US Government is
 subject to restrictions as set forth in subparagraphs (a)
 and (c) of the Commercial Computer Software - Restricted
 Rights clause in FAR 52.227-19.
  
 Gaussian, Inc.
 340 Quinnipiac St., Bldg. 40, Wallingford CT 06492
  
  
 ---------------------------------------------------------------
 Warning -- This program may not be used in any manner that
 competes with the business of Gaussian, Inc. or will provide
 assistance to any competitor of Gaussian, Inc.  The licensee
 of this program is prohibited from giving any competitor of
 Gaussian, Inc. access to this program.  By using this program,
 the user acknowledges that Gaussian, Inc. is engaged in the
 business of creating and licensing software in the field of
 computational chemistry and represents and warrants to the
 licensee that it is not a competitor of Gaussian, Inc. and that
 it will not use this program in any manner prohibited above.
 ---------------------------------------------------------------
  

 Cite this work as:
 Gaussian 16, Revision C.01,
 M. J. Frisch, G. W. Trucks, H. B. Schlegel, G. E. Scuseria, 
 M. A. Robb, J. R. Cheeseman, G. Scalmani, V. Barone, 
 G. A. Petersson, H. Nakatsuji, X. Li, M. Caricato, A. V. Marenich, 
 J. Bloino, B. G. Janesko, R. Gomperts, B. Mennucci, H. P. Hratchian, 
 J. V. Ortiz, A. F. Izmaylov, J. L. Sonnenberg, D. Williams-Young, 
 F. Ding, F. Lipparini, F. Egidi, J. Goings, B. Peng, A. Petrone, 
 T. Henderson, D. Ranasinghe, V. G. Zakrzewski, J. Gao, N. Rega, 
 G. Zheng, W. Liang, M. Hada, M. Ehara, K. Toyota, R. Fukuda, 
 J. Hasegawa, M. Ishida, T. Nakajima, Y. Honda, O. Kitao, H. Nakai, 
 T. Vreven, K. Throssell, J. A. Montgomery, Jr., J. E. Peralta, 
 F. Ogliaro, M. J. Bearpark, J. J. Heyd, E. N. Brothers, K. N. Kudin, 
 V. N. Staroverov, T. A. Keith, R. Kobayashi, J. Normand, 
 K. Raghavachari, A. P. Rendell, J. C. Burant, S. S. Iyengar, 
 J. Tomasi, M. Cossi, J. M. Millam, M. Klene, C. Adamo, R. Cammi, 
 J. W. Ochterski, R. L. Martin, K. Morokuma, O. Farkas, 
 J. B. Foresman, and D. J. Fox, Gaussian, Inc., Wallingford CT, 2019.
 
 ******************************************
 Gaussian 16:  ES64L-G16RevC.01  3-Jul-2019
                14-Nov-2024 
 ******************************************
 %chk=CURCUMIN-OPT-FREQ-TS-CBSQB3-6-311G-D-298.chk
 ----------------------------------------------------------------------
 # opt=(calcfc,noeigen,ts) freq=noraman CBS-QB3/6-311g(d) scrf=(smd,sol
 vent=generic,read) temperature=298.15
 ----------------------------------------------------------------------
 1/5=1,10=4,11=1,18=20,26=3,38=1,40=2,112=298150/1,3;
 2/9=110,12=2,17=6,18=5,40=1/2;
 3/5=4,6=6,7=700,11=2,25=1,30=1,70=32203,71=2,72=-2,74=-5,140=1/1,2,3;
 4//1;
 5/5=2,38=5/2;
 8/6=4,10=90,11=11/1;
 11/6=1,8=1,9=11,15=111,16=1/1,2,10;
 10/6=1,13=1/2;
 6/7=2,8=2,9=2,10=2,28=1/1;
 7/10=1,25=1/1,2,3,16;
 1/5=1,10=4,11=1,18=20,26=3/3(2);
 2/9=110/2;
 99//99;
 2/9=110/2;
 3/5=4,6=6,7=700,11=2,25=1,30=1,70=32205,71=1,72=-2,74=-5/1,2,3;
 4/5=5,16=3,69=1/1;
 5/5=2,38=5/2;
 7//1,2,3,16;
 1/5=1,11=1,18=20,26=3/3(-5);
 2/9=110/2;
 6/7=2,8=2,9=2,10=2,19=2,28=1/1;
 99/9=1/99;
 --------------
 TS1 - reacao 1
 --------------
 Symbolic Z-matrix:
 Charge =  0 Multiplicity = 2
 C                     2.23752   1.13249   0.67009 
 H                     1.85624   2.12173   0.43825 
 C                     1.49956   0.32512   1.45908 
 H                     1.84274  -0.65772   1.76458 
 C                     0.18345   0.67116   2.01829 
 O                    -0.39438  -0.12801   2.74495 
 C                     3.5489    0.87609   0.09112 
 C                     4.32059   1.97652  -0.2992 
 C                     4.17907  -0.39342  -0.02518 
 C                     5.60372   1.84008  -0.81498 
 H                     3.90012   2.96991  -0.18928 
 C                     5.437    -0.5677   -0.62972 
 H                     4.72061  -0.50594   1.82218 
 C                     6.166     0.57701  -0.99576 
 H                     6.16449   2.72182  -1.11123 
 O                     7.38209   0.3795   -1.55922 
 H                     7.77937   1.22567  -1.81384 
 O                     5.86533  -1.82295  -0.90651 
 C                     7.00998  -2.30548  -0.16437 
 H                     6.79896  -2.28574   0.90703 
 H                     7.15743  -3.333    -0.49084 
 H                     7.89703  -1.71355  -0.38922 
 C                    -3.06485   0.79156   0.79393 
 H                    -2.72179   0.65356   1.81511 
 C                    -2.30154   1.51515  -0.05508 
 H                    -2.60169   1.66763  -1.08779 
 C                    -1.02531   2.14511   0.28405 
 O                    -0.4033    2.77907  -0.56309 
 C                    -4.3318    0.13733   0.49697 
 C                    -4.9514   -0.6199    1.50446 
 C                    -4.97642   0.22624  -0.75285 
 C                    -6.1558   -1.27262   1.2738 
 H                    -4.47716  -0.70612   2.47655 
 C                    -6.18045  -0.41347  -0.99424 
 H                    -4.54347   0.79883  -1.56553 
 C                    -6.77642  -1.18489   0.02762 
 H                    -6.61522  -1.8656    2.06006 
 O                    -7.94053  -1.82289  -0.262 
 H                    -8.24634  -2.32532   0.50739 
 O                    -6.74012  -0.34938  -2.24428 
 C                    -7.93417   0.44346  -2.34722 
 H                    -7.7208    1.48789  -2.09802 
 H                    -8.25413   0.37776  -3.38665 
 H                    -8.72457   0.06022  -1.69898 
 C                    -0.45921   2.0273    1.70808 
 H                    -1.24819   2.18076   2.44441 
 H                     0.27448   2.82591   1.8245 
 O                     3.61351  -2.48654   0.88053 
 O                     2.50053  -1.76239  -0.83128 
 N                     3.36092  -1.65041   0.0293 
 
 Add virtual bond connecting atoms H13        and C9         Dist= 3.64D+00.

 GradGradGradGradGradGradGradGradGradGradGradGradGradGradGradGradGradGrad
 Berny optimization.
 Initialization pass.
                           ----------------------------
                           !    Initial Parameters    !
                           ! (Angstroms and Degrees)  !
 --------------------------                            --------------------------
 ! Name  Definition              Value          Derivative Info.                !
 --------------------------------------------------------------------------------
 ! R1    R(1,2)                  1.0852         calculate D2E/DX2 analytically  !
 ! R2    R(1,3)                  1.3487         calculate D2E/DX2 analytically  !
 ! R3    R(1,7)                  1.4562         calculate D2E/DX2 analytically  !
 ! R4    R(3,4)                  1.0849         calculate D2E/DX2 analytically  !
 ! R5    R(3,5)                  1.4713         calculate D2E/DX2 analytically  !
 ! R6    R(5,6)                  1.225          calculate D2E/DX2 analytically  !
 ! R7    R(5,45)                 1.5324         calculate D2E/DX2 analytically  !
 ! R8    R(7,8)                  1.3996         calculate D2E/DX2 analytically  !
 ! R9    R(7,9)                  1.4221         calculate D2E/DX2 analytically  !
 ! R10   R(8,10)                 1.3896         calculate D2E/DX2 analytically  !
 ! R11   R(8,11)                 1.0843         calculate D2E/DX2 analytically  !
 ! R12   R(9,12)                 1.4065         calculate D2E/DX2 analytically  !
 ! R13   R(9,13)                 1.9284         calculate D2E/DX2 analytically  !
 ! R14   R(9,50)                 1.5008         calculate D2E/DX2 analytically  !
 ! R15   R(10,14)                1.3943         calculate D2E/DX2 analytically  !
 ! R16   R(10,15)                1.0861         calculate D2E/DX2 analytically  !
 ! R17   R(12,14)                1.4056         calculate D2E/DX2 analytically  !
 ! R18   R(12,18)                1.3549         calculate D2E/DX2 analytically  !
 ! R19   R(14,16)                1.3548         calculate D2E/DX2 analytically  !
 ! R20   R(16,17)                0.9688         calculate D2E/DX2 analytically  !
 ! R21   R(18,19)                1.447          calculate D2E/DX2 analytically  !
 ! R22   R(19,20)                1.0922         calculate D2E/DX2 analytically  !
 ! R23   R(19,21)                1.0882         calculate D2E/DX2 analytically  !
 ! R24   R(19,22)                1.0899         calculate D2E/DX2 analytically  !
 ! R25   R(23,24)                1.0861         calculate D2E/DX2 analytically  !
 ! R26   R(23,25)                1.3517         calculate D2E/DX2 analytically  !
 ! R27   R(23,29)                1.4565         calculate D2E/DX2 analytically  !
 ! R28   R(25,26)                1.0862         calculate D2E/DX2 analytically  !
 ! R29   R(25,27)                1.4631         calculate D2E/DX2 analytically  !
 ! R30   R(27,28)                1.2274         calculate D2E/DX2 analytically  !
 ! R31   R(27,45)                1.5369         calculate D2E/DX2 analytically  !
 ! R32   R(29,30)                1.4044         calculate D2E/DX2 analytically  !
 ! R33   R(29,31)                1.4091         calculate D2E/DX2 analytically  !
 ! R34   R(30,32)                1.3892         calculate D2E/DX2 analytically  !
 ! R35   R(30,33)                1.085          calculate D2E/DX2 analytically  !
 ! R36   R(31,34)                1.3846         calculate D2E/DX2 analytically  !
 ! R37   R(31,35)                1.0843         calculate D2E/DX2 analytically  !
 ! R38   R(32,36)                1.3949         calculate D2E/DX2 analytically  !
 ! R39   R(32,37)                1.0867         calculate D2E/DX2 analytically  !
 ! R40   R(34,36)                1.4122         calculate D2E/DX2 analytically  !
 ! R41   R(34,40)                1.3711         calculate D2E/DX2 analytically  !
 ! R42   R(36,38)                1.3587         calculate D2E/DX2 analytically  !
 ! R43   R(38,39)                0.9685         calculate D2E/DX2 analytically  !
 ! R44   R(40,41)                1.437          calculate D2E/DX2 analytically  !
 ! R45   R(41,42)                1.0947         calculate D2E/DX2 analytically  !
 ! R46   R(41,43)                1.0895         calculate D2E/DX2 analytically  !
 ! R47   R(41,44)                1.0917         calculate D2E/DX2 analytically  !
 ! R48   R(45,46)                1.0901         calculate D2E/DX2 analytically  !
 ! R49   R(45,47)                1.0907         calculate D2E/DX2 analytically  !
 ! R50   R(48,50)                1.2196         calculate D2E/DX2 analytically  !
 ! R51   R(49,50)                1.222          calculate D2E/DX2 analytically  !
 ! A1    A(2,1,3)              118.5824         calculate D2E/DX2 analytically  !
 ! A2    A(2,1,7)              113.0757         calculate D2E/DX2 analytically  !
 ! A3    A(3,1,7)              128.3105         calculate D2E/DX2 analytically  !
 ! A4    A(1,3,4)              122.2729         calculate D2E/DX2 analytically  !
 ! A5    A(1,3,5)              124.822          calculate D2E/DX2 analytically  !
 ! A6    A(4,3,5)              112.8924         calculate D2E/DX2 analytically  !
 ! A7    A(3,5,6)              119.6027         calculate D2E/DX2 analytically  !
 ! A8    A(3,5,45)             120.4207         calculate D2E/DX2 analytically  !
 ! A9    A(6,5,45)             119.9739         calculate D2E/DX2 analytically  !
 ! A10   A(1,7,8)              117.967          calculate D2E/DX2 analytically  !
 ! A11   A(1,7,9)              126.0685         calculate D2E/DX2 analytically  !
 ! A12   A(8,7,9)              115.7702         calculate D2E/DX2 analytically  !
 ! A13   A(7,8,10)             122.3733         calculate D2E/DX2 analytically  !
 ! A14   A(7,8,11)             118.5714         calculate D2E/DX2 analytically  !
 ! A15   A(10,8,11)            119.0547         calculate D2E/DX2 analytically  !
 ! A16   A(7,9,12)             122.8267         calculate D2E/DX2 analytically  !
 ! A17   A(7,9,13)              95.635          calculate D2E/DX2 analytically  !
 ! A18   A(7,9,50)             120.2084         calculate D2E/DX2 analytically  !
 ! A19   A(12,9,13)             98.8222         calculate D2E/DX2 analytically  !
 ! A20   A(12,9,50)            113.5401         calculate D2E/DX2 analytically  !
 ! A21   A(13,9,50)             93.9821         calculate D2E/DX2 analytically  !
 ! A22   A(8,10,14)            120.6249         calculate D2E/DX2 analytically  !
 ! A23   A(8,10,15)            119.8849         calculate D2E/DX2 analytically  !
 ! A24   A(14,10,15)           119.4603         calculate D2E/DX2 analytically  !
 ! A25   A(9,12,14)            118.3507         calculate D2E/DX2 analytically  !
 ! A26   A(9,12,18)            119.0351         calculate D2E/DX2 analytically  !
 ! A27   A(14,12,18)           122.5022         calculate D2E/DX2 analytically  !
 ! A28   A(10,14,12)           119.6569         calculate D2E/DX2 analytically  !
 ! A29   A(10,14,16)           123.2274         calculate D2E/DX2 analytically  !
 ! A30   A(12,14,16)           117.0732         calculate D2E/DX2 analytically  !
 ! A31   A(14,16,17)           110.4913         calculate D2E/DX2 analytically  !
 ! A32   A(12,18,19)           117.0158         calculate D2E/DX2 analytically  !
 ! A33   A(18,19,20)           110.1371         calculate D2E/DX2 analytically  !
 ! A34   A(18,19,21)           105.557          calculate D2E/DX2 analytically  !
 ! A35   A(18,19,22)           110.9111         calculate D2E/DX2 analytically  !
 ! A36   A(20,19,21)           109.7282         calculate D2E/DX2 analytically  !
 ! A37   A(20,19,22)           110.4769         calculate D2E/DX2 analytically  !
 ! A38   A(21,19,22)           109.9171         calculate D2E/DX2 analytically  !
 ! A39   A(24,23,25)           118.7004         calculate D2E/DX2 analytically  !
 ! A40   A(24,23,29)           114.167          calculate D2E/DX2 analytically  !
 ! A41   A(25,23,29)           127.1295         calculate D2E/DX2 analytically  !
 ! A42   A(23,25,26)           121.0831         calculate D2E/DX2 analytically  !
 ! A43   A(23,25,27)           125.2745         calculate D2E/DX2 analytically  !
 ! A44   A(26,25,27)           113.6392         calculate D2E/DX2 analytically  !
 ! A45   A(25,27,28)           120.2963         calculate D2E/DX2 analytically  !
 ! A46   A(25,27,45)           120.2016         calculate D2E/DX2 analytically  !
 ! A47   A(28,27,45)           119.5002         calculate D2E/DX2 analytically  !
 ! A48   A(23,29,30)           118.6659         calculate D2E/DX2 analytically  !
 ! A49   A(23,29,31)           123.3974         calculate D2E/DX2 analytically  !
 ! A50   A(30,29,31)           117.9365         calculate D2E/DX2 analytically  !
 ! A51   A(29,30,32)           121.113          calculate D2E/DX2 analytically  !
 ! A52   A(29,30,33)           119.5198         calculate D2E/DX2 analytically  !
 ! A53   A(32,30,33)           119.3639         calculate D2E/DX2 analytically  !
 ! A54   A(29,31,34)           121.5528         calculate D2E/DX2 analytically  !
 ! A55   A(29,31,35)           121.0262         calculate D2E/DX2 analytically  !
 ! A56   A(34,31,35)           117.4207         calculate D2E/DX2 analytically  !
 ! A57   A(30,32,36)           120.2991         calculate D2E/DX2 analytically  !
 ! A58   A(30,32,37)           120.1845         calculate D2E/DX2 analytically  !
 ! A59   A(36,32,37)           119.5122         calculate D2E/DX2 analytically  !
 ! A60   A(31,34,36)           119.5501         calculate D2E/DX2 analytically  !
 ! A61   A(31,34,40)           119.4909         calculate D2E/DX2 analytically  !
 ! A62   A(36,34,40)           120.861          calculate D2E/DX2 analytically  !
 ! A63   A(32,36,34)           119.5386         calculate D2E/DX2 analytically  !
 ! A64   A(32,36,38)           122.8257         calculate D2E/DX2 analytically  !
 ! A65   A(34,36,38)           117.6339         calculate D2E/DX2 analytically  !
 ! A66   A(36,38,39)           110.1698         calculate D2E/DX2 analytically  !
 ! A67   A(34,40,41)           115.4852         calculate D2E/DX2 analytically  !
 ! A68   A(40,41,42)           110.3718         calculate D2E/DX2 analytically  !
 ! A69   A(40,41,43)           106.2055         calculate D2E/DX2 analytically  !
 ! A70   A(40,41,44)           111.431          calculate D2E/DX2 analytically  !
 ! A71   A(42,41,43)           109.3859         calculate D2E/DX2 analytically  !
 ! A72   A(42,41,44)           109.9298         calculate D2E/DX2 analytically  !
 ! A73   A(43,41,44)           109.4324         calculate D2E/DX2 analytically  !
 ! A74   A(5,45,27)            114.1965         calculate D2E/DX2 analytically  !
 ! A75   A(5,45,46)            106.9407         calculate D2E/DX2 analytically  !
 ! A76   A(5,45,47)            110.1366         calculate D2E/DX2 analytically  !
 ! A77   A(27,45,46)           110.3943         calculate D2E/DX2 analytically  !
 ! A78   A(27,45,47)           106.8902         calculate D2E/DX2 analytically  !
 ! A79   A(46,45,47)           108.1613         calculate D2E/DX2 analytically  !
 ! A80   A(9,50,48)            119.1191         calculate D2E/DX2 analytically  !
 ! A81   A(9,50,49)            115.7852         calculate D2E/DX2 analytically  !
 ! A82   A(48,50,49)           125.0636         calculate D2E/DX2 analytically  !
 ! D1    D(2,1,3,4)           -177.2357         calculate D2E/DX2 analytically  !
 ! D2    D(2,1,3,5)              1.3729         calculate D2E/DX2 analytically  !
 ! D3    D(7,1,3,4)              0.5721         calculate D2E/DX2 analytically  !
 ! D4    D(7,1,3,5)            179.1807         calculate D2E/DX2 analytically  !
 ! D5    D(2,1,7,8)             19.4063         calculate D2E/DX2 analytically  !
 ! D6    D(2,1,7,9)           -165.8938         calculate D2E/DX2 analytically  !
 ! D7    D(3,1,7,8)           -158.5012         calculate D2E/DX2 analytically  !
 ! D8    D(3,1,7,9)             16.1986         calculate D2E/DX2 analytically  !
 ! D9    D(1,3,5,6)           -178.7121         calculate D2E/DX2 analytically  !
 ! D10   D(1,3,5,45)             0.6895         calculate D2E/DX2 analytically  !
 ! D11   D(4,3,5,6)              0.0109         calculate D2E/DX2 analytically  !
 ! D12   D(4,3,5,45)           179.4125         calculate D2E/DX2 analytically  !
 ! D13   D(3,5,45,27)           74.3503         calculate D2E/DX2 analytically  !
 ! D14   D(3,5,45,46)         -163.2214         calculate D2E/DX2 analytically  !
 ! D15   D(3,5,45,47)          -45.916          calculate D2E/DX2 analytically  !
 ! D16   D(6,5,45,27)         -106.2503         calculate D2E/DX2 analytically  !
 ! D17   D(6,5,45,46)           16.178          calculate D2E/DX2 analytically  !
 ! D18   D(6,5,45,47)          133.4833         calculate D2E/DX2 analytically  !
 ! D19   D(1,7,8,10)           177.5402         calculate D2E/DX2 analytically  !
 ! D20   D(1,7,8,11)            -2.1726         calculate D2E/DX2 analytically  !
 ! D21   D(9,7,8,10)             2.2962         calculate D2E/DX2 analytically  !
 ! D22   D(9,7,8,11)          -177.4166         calculate D2E/DX2 analytically  !
 ! D23   D(1,7,9,12)           178.3003         calculate D2E/DX2 analytically  !
 ! D24   D(1,7,9,13)           -77.3966         calculate D2E/DX2 analytically  !
 ! D25   D(1,7,9,50)            20.5466         calculate D2E/DX2 analytically  !
 ! D26   D(8,7,9,12)            -6.8976         calculate D2E/DX2 analytically  !
 ! D27   D(8,7,9,13)            97.4055         calculate D2E/DX2 analytically  !
 ! D28   D(8,7,9,50)          -164.6513         calculate D2E/DX2 analytically  !
 ! D29   D(7,8,10,14)            1.6007         calculate D2E/DX2 analytically  !
 ! D30   D(7,8,10,15)          179.6029         calculate D2E/DX2 analytically  !
 ! D31   D(11,8,10,14)        -178.6878         calculate D2E/DX2 analytically  !
 ! D32   D(11,8,10,15)          -0.6856         calculate D2E/DX2 analytically  !
 ! D33   D(7,9,12,14)            7.4334         calculate D2E/DX2 analytically  !
 ! D34   D(7,9,12,18)         -168.8166         calculate D2E/DX2 analytically  !
 ! D35   D(13,9,12,14)         -95.1801         calculate D2E/DX2 analytically  !
 ! D36   D(13,9,12,18)          88.5699         calculate D2E/DX2 analytically  !
 ! D37   D(50,9,12,14)         166.525          calculate D2E/DX2 analytically  !
 ! D38   D(50,9,12,18)          -9.7251         calculate D2E/DX2 analytically  !
 ! D39   D(7,9,50,48)         -122.1599         calculate D2E/DX2 analytically  !
 ! D40   D(7,9,50,49)           59.7961         calculate D2E/DX2 analytically  !
 ! D41   D(12,9,50,48)          78.1447         calculate D2E/DX2 analytically  !
 ! D42   D(12,9,50,49)         -99.8993         calculate D2E/DX2 analytically  !
 ! D43   D(13,9,50,48)         -23.2765         calculate D2E/DX2 analytically  !
 ! D44   D(13,9,50,49)         158.6795         calculate D2E/DX2 analytically  !
 ! D45   D(8,10,14,12)          -1.1753         calculate D2E/DX2 analytically  !
 ! D46   D(8,10,14,16)         176.3837         calculate D2E/DX2 analytically  !
 ! D47   D(15,10,14,12)       -179.1859         calculate D2E/DX2 analytically  !
 ! D48   D(15,10,14,16)         -1.6269         calculate D2E/DX2 analytically  !
 ! D49   D(9,12,14,10)          -3.1745         calculate D2E/DX2 analytically  !
 ! D50   D(9,12,14,16)         179.1186         calculate D2E/DX2 analytically  !
 ! D51   D(18,12,14,10)        172.9378         calculate D2E/DX2 analytically  !
 ! D52   D(18,12,14,16)         -4.7692         calculate D2E/DX2 analytically  !
 ! D53   D(9,12,18,19)        -113.2843         calculate D2E/DX2 analytically  !
 ! D54   D(14,12,18,19)         70.629          calculate D2E/DX2 analytically  !
 ! D55   D(10,14,16,17)         -0.4874         calculate D2E/DX2 analytically  !
 ! D56   D(12,14,16,17)        177.1304         calculate D2E/DX2 analytically  !
 ! D57   D(12,18,19,20)         58.694          calculate D2E/DX2 analytically  !
 ! D58   D(12,18,19,21)        177.0724         calculate D2E/DX2 analytically  !
 ! D59   D(12,18,19,22)        -63.9204         calculate D2E/DX2 analytically  !
 ! D60   D(24,23,25,26)        179.2706         calculate D2E/DX2 analytically  !
 ! D61   D(24,23,25,27)         -0.0347         calculate D2E/DX2 analytically  !
 ! D62   D(29,23,25,26)         -0.0487         calculate D2E/DX2 analytically  !
 ! D63   D(29,23,25,27)       -179.354          calculate D2E/DX2 analytically  !
 ! D64   D(24,23,29,30)         -1.9642         calculate D2E/DX2 analytically  !
 ! D65   D(24,23,29,31)        177.8388         calculate D2E/DX2 analytically  !
 ! D66   D(25,23,29,30)        177.3813         calculate D2E/DX2 analytically  !
 ! D67   D(25,23,29,31)         -2.8156         calculate D2E/DX2 analytically  !
 ! D68   D(23,25,27,28)        179.6901         calculate D2E/DX2 analytically  !
 ! D69   D(23,25,27,45)         -0.8131         calculate D2E/DX2 analytically  !
 ! D70   D(26,25,27,28)          0.3395         calculate D2E/DX2 analytically  !
 ! D71   D(26,25,27,45)        179.8364         calculate D2E/DX2 analytically  !
 ! D72   D(25,27,45,5)          77.2125         calculate D2E/DX2 analytically  !
 ! D73   D(25,27,45,46)        -43.3094         calculate D2E/DX2 analytically  !
 ! D74   D(25,27,45,47)       -160.7234         calculate D2E/DX2 analytically  !
 ! D75   D(28,27,45,5)        -103.2867         calculate D2E/DX2 analytically  !
 ! D76   D(28,27,45,46)        136.1914         calculate D2E/DX2 analytically  !
 ! D77   D(28,27,45,47)         18.7775         calculate D2E/DX2 analytically  !
 ! D78   D(23,29,30,32)       -179.5607         calculate D2E/DX2 analytically  !
 ! D79   D(23,29,30,33)         -0.2229         calculate D2E/DX2 analytically  !
 ! D80   D(31,29,30,32)          0.6254         calculate D2E/DX2 analytically  !
 ! D81   D(31,29,30,33)        179.9632         calculate D2E/DX2 analytically  !
 ! D82   D(23,29,31,34)        179.909          calculate D2E/DX2 analytically  !
 ! D83   D(23,29,31,35)          0.0954         calculate D2E/DX2 analytically  !
 ! D84   D(30,29,31,34)         -0.2866         calculate D2E/DX2 analytically  !
 ! D85   D(30,29,31,35)        179.8998         calculate D2E/DX2 analytically  !
 ! D86   D(29,30,32,36)         -0.0843         calculate D2E/DX2 analytically  !
 ! D87   D(29,30,32,37)        179.1663         calculate D2E/DX2 analytically  !
 ! D88   D(33,30,32,36)       -179.4231         calculate D2E/DX2 analytically  !
 ! D89   D(33,30,32,37)         -0.1725         calculate D2E/DX2 analytically  !
 ! D90   D(29,31,34,36)         -0.5827         calculate D2E/DX2 analytically  !
 ! D91   D(29,31,34,40)       -177.0146         calculate D2E/DX2 analytically  !
 ! D92   D(35,31,34,36)        179.2374         calculate D2E/DX2 analytically  !
 ! D93   D(35,31,34,40)          2.8055         calculate D2E/DX2 analytically  !
 ! D94   D(30,32,36,34)         -0.7992         calculate D2E/DX2 analytically  !
 ! D95   D(30,32,36,38)        178.6889         calculate D2E/DX2 analytically  !
 ! D96   D(37,32,36,34)        179.9451         calculate D2E/DX2 analytically  !
 ! D97   D(37,32,36,38)         -0.5668         calculate D2E/DX2 analytically  !
 ! D98   D(31,34,36,32)          1.126          calculate D2E/DX2 analytically  !
 ! D99   D(31,34,36,38)       -178.3885         calculate D2E/DX2 analytically  !
 ! D100  D(40,34,36,32)        177.5079         calculate D2E/DX2 analytically  !
 ! D101  D(40,34,36,38)         -2.0066         calculate D2E/DX2 analytically  !
 ! D102  D(31,34,40,41)       -109.9677         calculate D2E/DX2 analytically  !
 ! D103  D(36,34,40,41)         73.6482         calculate D2E/DX2 analytically  !
 ! D104  D(32,36,38,39)         -0.1758         calculate D2E/DX2 analytically  !
 ! D105  D(34,36,38,39)        179.3215         calculate D2E/DX2 analytically  !
 ! D106  D(34,40,41,42)         62.3833         calculate D2E/DX2 analytically  !
 ! D107  D(34,40,41,43)       -179.15           calculate D2E/DX2 analytically  !
 ! D108  D(34,40,41,44)        -60.0541         calculate D2E/DX2 analytically  !
 --------------------------------------------------------------------------------
 Trust Radius=3.00D-01 FncErr=1.00D-07 GrdErr=1.00D-06 EigMax=2.50D+02 EigMin=1.00D-04
 Number of steps in this run=    251 maximum allowed number of steps=    300.
 Search for a saddle point of order  1.
 GradGradGradGradGradGradGradGradGradGradGradGradGradGradGradGradGradGrad

                          Input orientation:                          
 ---------------------------------------------------------------------
 Center     Atomic      Atomic             Coordinates (Angstroms)
 Number     Number       Type             X           Y           Z
 ---------------------------------------------------------------------
      1          6           0        2.237520    1.132490    0.670090
      2          1           0        1.856243    2.121726    0.438253
      3          6           0        1.499557    0.325122    1.459080
      4          1           0        1.842738   -0.657720    1.764575
      5          6           0        0.183448    0.671164    2.018292
      6          8           0       -0.394379   -0.128008    2.744948
      7          6           0        3.548895    0.876085    0.091118
      8          6           0        4.320595    1.976524   -0.299197
      9          6           0        4.179074   -0.393421   -0.025180
     10          6           0        5.603717    1.840084   -0.814975
     11          1           0        3.900122    2.969905   -0.189284
     12          6           0        5.437001   -0.567700   -0.629717
     13          1           0        4.720609   -0.505942    1.822176
     14          6           0        6.165996    0.577006   -0.995758
     15          1           0        6.164486    2.721824   -1.111231
     16          8           0        7.382087    0.379504   -1.559220
     17          1           0        7.779373    1.225674   -1.813835
     18          8           0        5.865325   -1.822954   -0.906513
     19          6           0        7.009977   -2.305479   -0.164368
     20          1           0        6.798962   -2.285740    0.907026
     21          1           0        7.157433   -3.333001   -0.490836
     22          1           0        7.897029   -1.713554   -0.389219
     23          6           0       -3.064847    0.791559    0.793929
     24          1           0       -2.721786    0.653561    1.815114
     25          6           0       -2.301538    1.515148   -0.055079
     26          1           0       -2.601693    1.667626   -1.087793
     27          6           0       -1.025308    2.145113    0.284053
     28          8           0       -0.403295    2.779067   -0.563088
     29          6           0       -4.331801    0.137332    0.496973
     30          6           0       -4.951399   -0.619897    1.504458
     31          6           0       -4.976420    0.226242   -0.752852
     32          6           0       -6.155804   -1.272619    1.273797
     33          1           0       -4.477159   -0.706122    2.476551
     34          6           0       -6.180454   -0.413472   -0.994236
     35          1           0       -4.543467    0.798825   -1.565525
     36          6           0       -6.776418   -1.184894    0.027615
     37          1           0       -6.615222   -1.865603    2.060063
     38          8           0       -7.940533   -1.822894   -0.262002
     39          1           0       -8.246337   -2.325316    0.507386
     40          8           0       -6.740117   -0.349377   -2.244277
     41          6           0       -7.934171    0.443461   -2.347219
     42          1           0       -7.720795    1.487889   -2.098023
     43          1           0       -8.254126    0.377759   -3.386653
     44          1           0       -8.724573    0.060216   -1.698979
     45          6           0       -0.459206    2.027296    1.708075
     46          1           0       -1.248193    2.180758    2.444411
     47          1           0        0.274475    2.825905    1.824500
     48          8           0        3.613505   -2.486539    0.880532
     49          8           0        2.500529   -1.762385   -0.831276
     50          7           0        3.360918   -1.650407    0.029301
 ---------------------------------------------------------------------
                    Distance matrix (angstroms):
                    1          2          3          4          5
     1  C    0.000000
     2  H    1.085223   0.000000
     3  C    1.348680   2.096926   0.000000
     4  H    2.135088   3.079713   1.084933   0.000000
     5  C    2.499936   2.720091   1.471260   2.140922   0.000000
     6  O    3.580612   3.930324   2.333619   2.499284   1.224985
     7  C    1.456247   2.130069   2.524810   2.839716   3.883584
     8  C    2.447675   2.576421   3.711728   4.163913   4.918405
     9  C    2.565431   3.454892   3.146290   2.954918   4.612391
    10  C    3.746650   3.961498   4.930575   5.199814   6.226804
    11  H    2.622759   2.300142   3.933789   4.605438   4.896046
    12  C    3.849263   4.603846   4.545731   4.319660   6.012200
    13  H    3.190218   4.126073   3.346294   2.882446   4.691468
    14  C    4.303084   4.797553   5.278762   5.275846   6.699570
    15  H    4.595666   4.617573   5.840569   6.194278   7.054923
    16  O    5.657153   6.128637   6.611902   6.542770   8.043883
    17  H    6.073772   6.399866   7.138561   7.183023   8.525887
    18  O    4.937742   5.782874   5.410193   4.967262   6.859944
    19  C    5.940732   6.820870   6.318257   5.756413   7.760535
    20  H    5.705014   6.638974   5.933385   5.286776   7.330977
    21  H    6.744917   7.662889   7.013957   6.363175   8.424104
    22  H    6.422783   7.203137   6.964198   6.512147   8.425101
    23  C    5.314759   5.110086   4.636138   5.208354   3.473468
    24  H    5.112257   5.000960   4.249043   4.749410   2.912383
    25  C    4.612520   4.230657   4.261122   5.020709   3.344597
    26  H    5.176341   4.733732   5.010901   5.770286   4.289255
    27  C    3.438092   2.885769   3.326860   4.274752   2.577053
    28  O    3.347514   2.557400   3.705652   4.719553   3.383939
    29  C    6.646524   6.498704   5.913176   6.353255   4.794462
    30  C    7.446314   7.416015   6.519966   6.799220   5.319541
    31  C    7.408575   7.190054   6.844026   7.322550   5.873792
    32  C    8.751965   8.741431   7.822510   8.037141   6.672232
    33  H    7.192406   7.229340   6.149784   6.360059   4.881411
    34  C    8.719075   8.547968   8.096101   8.487774   7.123974
    35  H    7.147803   6.835311   6.774273   7.348109   5.933276
    36  C    9.329208   9.253388   8.533522   8.808223   7.473117
    37  H    9.449425   9.502357   8.426749   8.548882   7.256641
    38  O   10.639354  10.584290   9.833178  10.058680   8.798814
    39  H   11.040568  11.038256  10.144604  10.302953   9.073203
    40  O    9.554446   9.338079   9.058810   9.477941   8.194312
    41  C   10.632131  10.316377  10.173354  10.663367   9.219830
    42  H   10.341992   9.927442   9.950874  10.534916   8.949198
    43  H   11.273926  10.949470  10.891200  11.382180  10.024578
    44  H   11.266310  10.989597  10.704034  11.143595   9.671825
    45  C    3.024966   2.642474   2.606942   3.537153   1.532427
    46  H    4.049355   3.696712   3.458958   4.251234   2.123687
    47  H    2.837933   2.218003   2.808607   3.820822   2.165352
    48  O    3.877498   4.951736   3.564959   2.694759   4.799050
    49  O    3.271632   4.136801   3.256587   2.896794   4.405799
    50  N    3.068737   4.081700   3.067841   2.510274   4.409319
                    6          7          8          9         10
     6  O    0.000000
     7  C    4.858027   0.000000
     8  C    5.993901   1.399583   0.000000
     9  C    5.353553   1.422075   2.389927   0.000000
    10  C    7.247316   2.443889   1.389620   2.764404   0.000000
    11  H    6.053885   2.141511   1.084290   3.378862   2.137807
    12  C    6.751791   2.483760   2.797978   1.406492   2.420648
    13  H    5.211281   2.505888   3.289813   1.928379   3.638445
    14  C    7.584751   2.849555   2.418544   2.414873   1.394348
    15  H    8.124677   3.419607   2.148210   3.850470   1.086138
    16  O    8.902632   4.202805   3.675713   3.634554   2.418635
    17  H    9.456489   4.652741   3.849812   4.333925   2.471578
    18  O    7.442439   3.694039   4.146210   2.379864   3.673509
    19  C    8.248029   4.708154   5.058310   3.418969   4.425669
    20  H    7.731618   4.607144   5.075842   3.363583   4.627777
    21  H    8.818852   5.574641   6.022909   4.210533   5.411091
    22  H    9.004688   5.083623   5.139617   3.962129   4.250752
    23  C    3.432707   6.651516   7.559353   7.385764   8.878737
    24  H    2.625312   6.507159   7.470989   7.218360   8.811311
    25  C    3.765285   5.887049   6.642673   6.755876   7.948338
    26  H    4.773514   6.312377   6.973907   7.166300   8.211755
    27  C    3.408981   4.750894   5.380268   5.798739   6.726431
    28  O    4.403892   4.434989   4.798838   5.599297   6.085173
    29  C    4.541706   7.925645   8.881468   8.543380  10.165387
    30  C    4.748389   8.745884   9.796144   9.260487  11.083400
    31  C    5.775396   8.591599   9.471208   9.205246  10.702693
    32  C    6.055447  10.009837  11.080892  10.453231  12.342537
    33  H    4.132232   8.521221   9.607385   9.015920  10.906024
    34  C    6.895045   9.874269  10.791997  10.404773  11.999056
    35  H    6.054265   8.260554   9.031177   8.937384  10.228044
    36  C    7.016504  10.529186  11.543183  10.984171  12.772165
    37  H    6.495167  10.709943  11.828784  11.091996  13.088179
    38  O    8.298122  11.807461  12.836363  12.205915  14.041720
    39  H    8.455063  12.229053  13.307298  12.585972  14.523195
    40  O    8.075256  10.621657  11.468762  11.142489  12.617721
    41  C    9.116206  11.747062  12.518944  12.362158  13.695720
    42  H    8.929830  11.496632  12.184811  12.224684  13.390776
    43  H    9.981380  12.314809  13.046534  12.902662  14.170100
    44  H    9.443307  12.430129  13.259262  13.019658  14.465452
    45  C    2.392623   4.472663   5.184421   5.511596   6.569617
    46  H    2.479863   5.500201   6.211320   6.494652   7.595283
    47  H    3.165469   4.186674   4.647862   5.388067   6.028225
    48  O    5.010175   3.454647   4.670189   2.349750   5.055230
    49  O    4.882731   2.985198   4.192277   2.311140   4.754769
    50  N    4.877980   2.534229   3.766101   1.500787   4.233967
                   11         12         13         14         15
    11  H    0.000000
    12  C    3.882091   0.000000
    13  H    4.098864   2.555154   0.000000
    14  C    3.392720   1.405621   3.347039   0.000000
    15  H    2.457412   3.403242   4.594359   2.147925   0.000000
    16  O    4.550932   2.354683   4.393327   1.354760   2.677631
    17  H    4.553032   3.178841   5.057184   1.921719   2.310839
    18  O    5.229526   1.354895   3.238926   2.420367   4.559212
    19  C    6.123846   2.389703   3.525038   3.116446   5.185092
    20  H    6.101391   2.677345   2.885261   3.495218   5.436140
    21  H    7.101242   3.259764   4.390945   4.065224   6.166988
    22  H    6.160359   2.724437   4.054410   2.934456   4.816179
    23  C    7.363606   8.726727   7.959531   9.405183   9.619571
    24  H    7.296076   8.604329   7.532180   9.321992   9.581599
    25  C    6.371414   8.034516   7.544497   8.571121   8.616559
    26  H    6.691550   8.356262   8.173642   8.835740   8.829370
    27  C    5.016392   7.067939   6.512256   7.470725   7.346601
    28  O    4.323835   6.731593   6.537214   6.942036   6.590864
    29  C    8.732638   9.858803   9.171482  10.612507  10.928768
    30  C    9.700766  10.605484   9.677896  11.457754  11.898396
    31  C    9.307969  10.444369  10.059783  11.150582  11.422616
    32  C   11.011869  11.769172  10.917182  12.664863  13.169415
    33  H    9.528835  10.390314   9.223189  11.268545  11.741704
    34  C   10.663639  11.624196  11.259392  12.386116  12.737398
    35  H    8.826201  10.116959   9.949977  10.726902  10.888736
    36  C   11.458530  12.246657  11.656031  13.101819  13.565633
    37  H   11.790427  12.416745  11.419559  13.366522  13.943548
    38  O   12.774088  13.441322  12.898941  14.328017  14.843423
    39  H   13.268805  13.842542  13.159806  14.778304  15.354653
    40  O   11.333813  12.285629  12.161776  12.999413  13.313333
    41  C   12.291871  13.518894  13.357720  14.165415  14.334948
    42  H   11.869514  13.398096  13.195903  13.960217  13.974884
    43  H   12.832308  13.997912  14.009160  14.618345  14.784064
    44  H   13.043328  14.215758  13.910140  14.916120  15.136502
    45  C    4.846878   6.853067   5.767217   7.301189   7.232161
    46  H    5.836459   7.854687   6.575114   8.329285   8.239123
    47  H    4.149865   6.647662   5.556016   6.908069   6.581913
    48  O    5.567714   3.047611   2.456652   4.406924   6.132020
    49  O    4.976503   3.176597   3.680790   4.351489   5.797507
    50  N    4.656802   2.432423   2.524472   3.725665   5.317632
                   16         17         18         19         20
    16  O    0.000000
    17  H    0.968849   0.000000
    18  O    2.752710   3.712270   0.000000
    19  C    3.048477   3.972625   1.447010   0.000000
    20  H    3.677762   4.549101   2.091596   1.092155   0.000000
    21  H    3.869704   4.787343   2.030412   1.088176   1.783052
    22  H    2.452541   3.268399   2.099377   1.089860   1.792596
    23  C   10.716601  11.161810   9.459131  10.583575  10.333310
    24  H   10.655960  11.125238   9.342315  10.362503  10.005436
    25  C    9.865329  10.237274   8.863719  10.065458   9.909162
    26  H   10.077567  10.415805   9.160099  10.441383  10.391377
    27  C    8.786314   9.097742   8.040138   9.196448   9.013310
    28  O    8.207457   8.422200   7.784095   8.998232   8.926702
    29  C   11.895451  12.377595  10.478257  11.620698  11.398829
    30  C   12.747541  13.284945  11.147271  12.194289  11.882884
    31  C   12.385734  12.838801  11.034775  12.264976  12.154212
    32  C   13.929465  14.490138  12.229643  13.284311  12.999496
    33  H   12.574090  13.128664  10.938894  11.894818  11.493890
    34  C   13.597446  14.079606  12.128278  13.351249  13.250865
    35  H   11.932925  12.332731  10.754114  12.044999  12.011609
    36  C   14.332782  14.868518  12.692257  13.833194  13.648303
    37  H   14.630939  15.223910  12.828345  13.812590  13.470202
    38  O   15.534350  16.087803  13.820894  14.958615  14.793024
    39  H   15.994829  16.577725  14.191211  15.271109  15.050658
    40  O   14.157585  14.611011  12.761591  14.043413  14.035201
    41  C   15.336649  15.742040  14.058391  15.350865  15.333097
    42  H   15.153081  15.504990  14.034388  15.333764  15.300129
    43  H   15.742639  16.132756  14.503556  15.829584  15.878456
    44  H   16.110431  16.545444  14.732259  15.985231  15.914613
    45  C    8.653110   8.995590   7.852400   8.835591   8.480859
    46  H    9.682733  10.027053   8.823862   9.753431   9.331123
    47  H    8.243336   8.492450   7.767105   8.697913   8.339041
    48  O    5.326237   6.196337   2.950351   3.558177   3.191889
    49  O    5.380260   6.144926   3.366182   4.590734   4.666060
    50  N    4.776373   5.584956   2.679100   3.712446   3.604746
                   21         22         23         24         25
    21  H    0.000000
    22  H    1.783238   0.000000
    23  C   11.097641  11.306554   0.000000
    24  H   10.899956  11.100520   1.086072   0.000000
    25  C   10.637977  10.702660   1.351679   2.101562   0.000000
    26  H   10.981947  11.051857   2.126707   3.077275   1.086205
    27  C    9.877623   9.744265   2.500360   2.728903   1.463089
    28  O    9.722510   9.439770   3.588251   3.943225   2.336427
    29  C   12.042486  12.399814   1.456492   2.143860   2.514976
    30  C   12.568450  13.033196   2.460922   2.586383   3.743306
    31  C   12.647816  13.023852   2.523138   3.443897   3.050108
    32  C   13.586809  14.157760   3.747682   3.974377   4.938919
    33  H   12.291038  12.741589   2.658738   2.316802   4.009553
    34  C   13.662953  14.150328   3.789016   4.581855   4.432559
    35  H   12.455441  12.746046   2.784492   3.842960   2.796571
    36  C   14.107989  14.688883   4.274268   4.797407   5.227008
    37  H   14.083550  14.718272   4.611807   4.643816   5.874621
    38  O   15.175024  15.838450   5.632288   6.138612   6.556188
    39  H   15.468937  16.179815   6.053499   6.411281   7.099730
    40  O   14.321957  14.817161   4.903064   5.799269   5.288669
    41  C   15.667301  16.096999   5.805024   6.673688   6.174866
    42  H   15.722140  16.033891   5.525044   6.403033   5.791607
    43  H   16.114330  16.559529   6.676609   7.598765   6.915659
    44  H   16.285320  16.767212   6.227516   6.981000   6.787828
    45  C    9.569806   9.392511   3.025239   2.649127   2.600999
    46  H   10.472429  10.335870   2.820319   2.213554   2.792852
    47  H    9.521975   9.143882   4.043725   3.700912   3.447716
    48  O    3.893144   4.534132   7.440014   7.132292   7.202541
    49  O    4.926407   5.414796   6.335403   6.333463   5.865539
    50  N    4.185115   4.555815   6.916524   6.745123   6.487778
                   26         27         28         29         30
    26  H    0.000000
    27  C    2.143582   0.000000
    28  O    2.518645   1.227374   0.000000
    29  C    2.801171   3.874199   4.851356   0.000000
    30  C    4.180149   4.954681   6.042595   1.404394   0.000000
    31  C    2.798053   4.513150   5.240839   1.409078   2.410814
    32  C    5.182070   6.243595   7.271978   2.432777   1.389188
    33  H    4.675104   4.985164   6.162979   2.156681   1.085036
    34  C    4.140924   5.895414   6.614662   2.438157   2.792250
    35  H    2.180259   4.196531   4.697580   2.176298   3.406461
    36  C    5.177773   6.650562   7.528520   2.818640   2.414742
    37  H    6.204927   7.105434   8.187913   3.415993   2.151462
    38  O    6.431864   7.991470   8.836213   4.176299   3.674575
    39  H    7.095787   8.495756   9.418808   4.624753   3.841773
    40  O    4.746821   6.728594   7.264219   3.681212   4.162416
    41  C    5.614272   7.586277   8.084075   4.600023   4.986289
    42  H    5.220927   7.136930   7.587422   4.476973   5.009010
    43  H    6.236867   8.297797   8.681840   5.524942   5.985507
    44  H    6.359794   8.219361   8.827574   4.911680   4.996139
    45  C    3.540691   1.536942   2.393004   4.476128   5.218131
    46  H    3.817294   2.172118   3.180704   4.180519   4.737184
    47  H    4.253869   2.127414   2.482366   5.496229   6.267834
    48  O    7.730464   6.582292   6.778298   8.376139   8.788129
    49  O    6.153328   5.379965   5.397120   7.214839   7.892538
    50  N    6.914476   5.806018   5.842984   7.911552   8.504861
                   31         32         33         34         35
    31  C    0.000000
    32  C    2.782955   0.000000
    33  H    3.398177   2.141351   0.000000
    34  C    1.384629   2.425431   3.877270   0.000000
    35  H    1.084314   3.866815   4.313657   2.115600   0.000000
    36  C    2.416697   1.394929   3.393096   1.412248   3.385160
    37  H    3.869623   1.086696   2.467625   3.409758   4.953406
    38  O    3.636737   2.418003   4.554318   2.370763   4.484712
    39  H    4.334859   2.462902   4.550396   3.190280   5.269579
    40  O    2.380402   3.683835   5.247329   1.371107   2.569892
    41  C    3.367118   4.383980   6.044934   2.374957   3.497743
    42  H    3.306483   4.630202   6.021759   2.684431   3.294507
    43  H    4.207520   5.370893   7.058147   3.263406   4.154852
    44  H    3.869286   4.148785   6.005235   2.682086   4.247941
    45  C    5.450246   6.597671   4.919967   6.781778   5.376503
    46  H    5.286048   6.113984   4.331435   6.548398   5.371048
    47  H    6.401007   7.645238   5.956376   7.752738   6.230079
    48  O    9.154995   9.852292   8.436587  10.184989   9.127596
    49  O    7.737283   8.922068   7.793943   8.786671   7.531056
    50  N    8.581654   9.605180   8.265359   9.675506   8.427426
                   36         37         38         39         40
    36  C    0.000000
    37  H    2.149464   0.000000
    38  O    1.358707   2.673997   0.000000
    39  H    1.921303   2.298408   0.968453   0.000000
    40  O    2.420930   4.565291   2.746209   3.707382   0.000000
    41  C    3.103509   5.147382   3.079697   3.989028   1.436995
    42  H    3.543156   5.455078   3.792169   4.648105   2.087742
    43  H    4.035187   6.114360   3.834665   4.740276   2.031249
    44  H    2.885608   4.721074   2.495140   3.284436   2.098376
    45  C    7.283494   7.292125   8.641494   9.001461   7.792272
    46  H    6.908675   6.732441   8.254775   8.545805   7.651575
    47  H    8.308453   8.338685   9.667015  10.043610   8.708723
    48  O   10.505820  10.315217  11.629342  11.866806  11.024037
    49  O    9.334502   9.563860  10.456745  10.844539   9.454243
    50  N   10.148019  10.183009  11.306520  11.636685  10.435169
                   41         42         43         44         45
    41  C    0.000000
    42  H    1.094741   0.000000
    43  H    1.089546   1.782526   0.000000
    44  H    1.091708   1.790267   1.780561   0.000000
    45  C    8.650378   8.216326   9.457167   9.153891   0.000000
    46  H    8.407153   7.937780   9.291674   8.806852   1.090065
    47  H    9.511107   9.005599  10.290120  10.052204   1.090697
    48  O   12.343099  12.374741  12.932662  12.859549   6.135675
    49  O   10.772502  10.800203  11.259342  11.405161   5.437832
    50  N   11.730779  11.712334  12.275644  12.327704   5.562116
                   46         47         48         49         50
    46  H    0.000000
    47  H    1.766075   0.000000
    48  O    6.918489   6.345255   0.000000
    49  O    6.350702   5.749858   2.166426   0.000000
    50  N    6.461771   5.725927   1.219636   1.222048   0.000000
 Stoichiometry    C21H20NO8(2)
 Framework group  C1[X(C21H20NO8)]
 Deg. of freedom   144
 Full point group                 C1      NOp   1
 Largest Abelian subgroup         C1      NOp   1
 Largest concise Abelian subgroup C1      NOp   1
                         Standard orientation:                         
 ---------------------------------------------------------------------
 Center     Atomic      Atomic             Coordinates (Angstroms)
 Number     Number       Type             X           Y           Z
 ---------------------------------------------------------------------
      1          6           0        2.237520    1.132490    0.670090
      2          1           0        1.856243    2.121726    0.438253
      3          6           0        1.499557    0.325122    1.459080
      4          1           0        1.842738   -0.657720    1.764575
      5          6           0        0.183448    0.671164    2.018292
      6          8           0       -0.394379   -0.128008    2.744948
      7          6           0        3.548895    0.876085    0.091118
      8          6           0        4.320595    1.976524   -0.299197
      9          6           0        4.179074   -0.393421   -0.025180
     10          6           0        5.603717    1.840084   -0.814975
     11          1           0        3.900122    2.969905   -0.189284
     12          6           0        5.437001   -0.567700   -0.629717
     13          1           0        4.720609   -0.505942    1.822176
     14          6           0        6.165996    0.577006   -0.995758
     15          1           0        6.164486    2.721824   -1.111231
     16          8           0        7.382087    0.379504   -1.559220
     17          1           0        7.779373    1.225674   -1.813835
     18          8           0        5.865325   -1.822954   -0.906513
     19          6           0        7.009977   -2.305479   -0.164368
     20          1           0        6.798962   -2.285740    0.907026
     21          1           0        7.157433   -3.333001   -0.490836
     22          1           0        7.897029   -1.713554   -0.389219
     23          6           0       -3.064847    0.791559    0.793929
     24          1           0       -2.721786    0.653561    1.815114
     25          6           0       -2.301538    1.515148   -0.055079
     26          1           0       -2.601693    1.667626   -1.087793
     27          6           0       -1.025308    2.145113    0.284053
     28          8           0       -0.403295    2.779067   -0.563088
     29          6           0       -4.331801    0.137332    0.496973
     30          6           0       -4.951399   -0.619897    1.504458
     31          6           0       -4.976420    0.226242   -0.752852
     32          6           0       -6.155804   -1.272619    1.273797
     33          1           0       -4.477159   -0.706122    2.476551
     34          6           0       -6.180454   -0.413472   -0.994236
     35          1           0       -4.543467    0.798825   -1.565525
     36          6           0       -6.776418   -1.184894    0.027615
     37          1           0       -6.615222   -1.865603    2.060063
     38          8           0       -7.940533   -1.822894   -0.262002
     39          1           0       -8.246337   -2.325316    0.507386
     40          8           0       -6.740117   -0.349377   -2.244277
     41          6           0       -7.934171    0.443461   -2.347219
     42          1           0       -7.720795    1.487889   -2.098023
     43          1           0       -8.254126    0.377759   -3.386653
     44          1           0       -8.724573    0.060216   -1.698979
     45          6           0       -0.459206    2.027296    1.708075
     46          1           0       -1.248193    2.180758    2.444411
     47          1           0        0.274475    2.825905    1.824500
     48          8           0        3.613505   -2.486539    0.880532
     49          8           0        2.500529   -1.762385   -0.831276
     50          7           0        3.360918   -1.650407    0.029301
 ---------------------------------------------------------------------
 Rotational constants (GHZ):           0.3380068           0.0476274           0.0465493
 Standard basis: 6-311G(2d,d,p) (5D, 7F)
 There are   690 symmetry adapted cartesian basis functions of A   symmetry.
 There are   660 symmetry adapted basis functions of A   symmetry.
   660 basis functions,  1120 primitive gaussians,   690 cartesian basis functions
   109 alpha electrons      108 beta electrons
       nuclear repulsion energy      2692.0067589913 Hartrees.
 NAtoms=   50 NActive=   50 NUniq=   50 SFac= 1.00D+00 NAtFMM=   60 NAOKFM=F Big=F
 Integral buffers will be    131072 words long.
 Raffenetti 2 integral format.
 Two-electron integral symmetry is turned on.
 Force inversion solution in PCM.
 Using the following non-standard input for PCM:
 Eps=7
 EpsInf=1.85341
 HbondAcidity=0
 HbondBasicity=0.48
 SurfaceTensionAtInterface=60.62
 CarbonAromaticity=0
 ElectronegativeHalogenicity=0
 --- end of non-standard input.
 Force inversion solution in PCM.
 ------------------------------------------------------------------------------
 Polarizable Continuum Model (PCM)
 =================================
 Model                : PCM.
 Atomic radii         : SMD-Coulomb.
 Polarization charges : Total charges.
 Charge compensation  : None.
 Solution method      : Matrix inversion.
 Cavity type          : VdW (van der Waals Surface) (Alpha=1.000).
 Cavity algorithm     : GePol (No added spheres)
                        Default sphere list used, NSphG=   50.
                        Lebedev-Laikov grids with approx.  5.0 points / Ang**2.
                        Smoothing algorithm: York/Karplus (Gamma=1.0000).
                        Polarization charges: spherical gaussians, with
                                              point-specific exponents (IZeta= 3).
                        Self-potential: point-specific (ISelfS= 7).
                        Self-field    : sphere-specific E.n sum rule (ISelfD= 2).
 1st derivatives      : Analytical E(r).r(x)/FMM algorithm (CHGder, D1EAlg=3).
                        Cavity 1st derivative terms included.
 2nd derivatives      : Analytical E(r).r(xy)/FMM algorithm (CHGder, D2EAlg=3).
                        Cavity 2nd derivative terms included.
 Solvent              : Generic,
                        Eps                           =   7.000000
                        Eps(infinity)                 =   1.853410
                        RSolv                         =   0.000000 Ang.
                        Molar volume                  =   0.000000 cm**3/mol
                        Thermal expansion coefficient =   0.000000 K**-1
                        Absolute temperature          = 298.150000 K
                        Numeral density               =   0.000000 Ang**-3
                        Hydrogen bond acidity         =   0.000000
                        Hydrogen bond basicity        =   0.480000
                        Surface tension at interface  =  60.620000 (cal/mol)*Ang**-2
                        Carbon aromaticity            =   0.000000
                        Electronegative halogenicity  =   0.000000
 ------------------------------------------------------------------------------
 ------------------------------------------------------------------------------
 Atomic radii for non-electrostatic terms: SMD-CDS.
 ------------------------------------------------------------------------------
 Nuclear repulsion after PCM non-electrostatic terms =     2692.0032952027 Hartrees.
 One-electron integrals computed using PRISM.
 NBasis=   660 RedAO= T EigKep=  1.55D-04  NBF=   660
 NBsUse=   660 1.00D-06 EigRej= -1.00D+00 NBFU=   660
 ExpMin= 1.03D-01 ExpMax= 8.59D+03 ExpMxC= 1.30D+03 IAcc=3 IRadAn=         5 AccDes= 0.00D+00
 Harris functional with IExCor=  402 and IRadAn=       5 diagonalized for initial guess.
 HarFok:  IExCor=  402 AccDes= 0.00D+00 IRadAn=         5 IDoV= 1 UseB2=F ITyADJ=14
 ICtDFT=  3500011 ScaDFX=  1.000000  1.000000  1.000000  1.000000
 FoFCou: FMM=F IPFlag=           0 FMFlag=      100000 FMFlg1=           0
         NFxFlg=           0 DoJE=T BraDBF=F KetDBF=T FulRan=T
         wScrn=  0.000000 ICntrl=       500 IOpCl=  0 I1Cent=   200000004 NGrid=           0
         NMat0=    1 NMatS0=      1 NMatT0=    0 NMatD0=    1 NMtDS0=    0 NMtDT0=    0
 Petite list used in FoFCou.
 Initial guess <Sx>= 0.0000 <Sy>= 0.0000 <Sz>= 0.5000 <S**2>= 0.7500 S= 0.5000
 Requested convergence on RMS density matrix=1.00D-08 within 128 cycles.
 Requested convergence on MAX density matrix=1.00D-06.
 Requested convergence on             energy=1.00D-06.
 No special actions if energy rises.
 Inv3:  Mode=1 IEnd=    50135232.
 Iteration    1 A*A^-1 deviation from unit magnitude is 3.22D-15 for   2989.
 Iteration    1 A*A^-1 deviation from orthogonality  is 3.21D-15 for   1152   1037.
 Iteration    1 A^-1*A deviation from unit magnitude is 3.11D-15 for    188.
 Iteration    1 A^-1*A deviation from orthogonality  is 5.66D-15 for   1529   1510.
 EnCoef did     2 forward-backward iterations
 Restarting incremental Fock formation.
 Error on total polarization charges =  0.03716
 SCF Done:  E(UB3LYP) =  -1468.95050613     A.U. after   23 cycles
            NFock= 23  Conv=0.75D-08     -V/T= 2.0036
 <Sx>= 0.0000 <Sy>= 0.0000 <Sz>= 0.5000 <S**2>= 0.7652 S= 0.5076
 <L.S>=  0.00000000000    
 SMD-CDS (non-electrostatic) energy       (kcal/mol) =      -2.17
 (included in total energy above)
 Annihilation of the first spin contaminant:
 S**2 before annihilation     0.7652,   after     0.7501
 DoSCS=F DFT=T ScalE2(SS,OS)=  1.000000  1.000000
 Range of M.O.s used for correlation:     1   660
 NBasis=   660 NAE=   109 NBE=   108 NFC=     0 NFV=     0
 NROrb=    660 NOA=   109 NOB=   108 NVA=   551 NVB=   552

 **** Warning!!: The largest alpha MO coefficient is  0.16497052D+02


 **** Warning!!: The largest beta MO coefficient is  0.16118261D+02

 Symmetrizing basis deriv contribution to polar:
 IMax=3 JMax=2 DiffMx= 0.00D+00
 G2DrvN: will do    26 centers at a time, making    2 passes.
 Calling FoFCou, ICntrl=  3107 FMM=F I1Cent=   0 AccDes= 0.00D+00.
 Calling FoFCou, ICntrl=  3107 FMM=F I1Cent=   0 AccDes= 0.00D+00.
 NEqPCM:  Using equilibrium solvation (IEInf=0, Eps=   7.0000, EpsInf=   1.8534)
 G2PCM: DoFxE=T DoFxN=T DoGrad=T DoDP/DQ/DG/TGxP=FFFF NFrqRd=   0 IEInf=0 SqF1=F DoCFld=F IF1Alg=4.
 End of G2Drv F.D. properties file   721 does not exist.
 End of G2Drv F.D. properties file   722 does not exist.
 End of G2Drv F.D. properties file   788 does not exist.
          IDoAtm=11111111111111111111111111111111111111111111111111
 NEqPCM:  Using equilibrium solvation (IEInf=0, Eps=   7.0000, EpsInf=   1.8534)
          Differentiating once with respect to nuclear coordinates.
 CalDSu exits because no D1Ps are significant.
          There are   153 degrees of freedom in the 1st order CPHF.  IDoFFX=6 NUNeed=     0.
    150 vectors produced by pass  0 Test12= 1.20D-13 1.00D-09 XBig12= 3.56D-01 1.93D-01.
 AX will form    38 AO Fock derivatives at one time.
    150 vectors produced by pass  1 Test12= 1.20D-13 1.00D-09 XBig12= 4.56D-02 3.57D-02.
    148 vectors produced by pass  2 Test12= 1.20D-13 1.00D-09 XBig12= 9.23D-04 4.47D-03.
    147 vectors produced by pass  3 Test12= 1.20D-13 1.00D-09 XBig12= 1.08D-05 4.12D-04.
    147 vectors produced by pass  4 Test12= 1.20D-13 1.00D-09 XBig12= 6.72D-08 2.23D-05.
    142 vectors produced by pass  5 Test12= 1.20D-13 1.00D-09 XBig12= 3.46D-10 1.42D-06.
     97 vectors produced by pass  6 Test12= 1.20D-13 1.00D-09 XBig12= 1.81D-12 1.03D-07.
     27 vectors produced by pass  7 Test12= 1.20D-13 1.00D-09 XBig12= 1.13D-14 6.51D-09.
      3 vectors produced by pass  8 Test12= 1.20D-13 1.00D-09 XBig12= 8.89D-16 1.61D-09.
      2 vectors produced by pass  9 Test12= 1.20D-13 1.00D-09 XBig12= 1.06D-15 1.33D-09.
 InvSVY:  IOpt=1 It=  1 EMax= 5.00D-16
 Solved reduced A of dimension  1013 with   153 vectors.
 End of Minotr F.D. properties file   721 does not exist.
 End of Minotr F.D. properties file   722 does not exist.
 End of Minotr F.D. properties file   788 does not exist.

 **********************************************************************

            Population analysis using the SCF Density.

 **********************************************************************

 Orbital symmetries:
 Alpha Orbitals:
       Occupied  (A) (A) (A) (A) (A) (A) (A) (A) (A) (A) (A) (A)
                 (A) (A) (A) (A) (A) (A) (A) (A) (A) (A) (A) (A)
                 (A) (A) (A) (A) (A) (A) (A) (A) (A) (A) (A) (A)
                 (A) (A) (A) (A) (A) (A) (A) (A) (A) (A) (A) (A)
                 (A) (A) (A) (A) (A) (A) (A) (A) (A) (A) (A) (A)
                 (A) (A) (A) (A) (A) (A) (A) (A) (A) (A) (A) (A)
                 (A) (A) (A) (A) (A) (A) (A) (A) (A) (A) (A) (A)
                 (A) (A) (A) (A) (A) (A) (A) (A) (A) (A) (A) (A)
                 (A) (A) (A) (A) (A) (A) (A) (A) (A) (A) (A) (A)
                 (A)
       Virtual   (A) (A) (A) (A) (A) (A) (A) (A) (A) (A) (A) (A)
                 (A) (A) (A) (A) (A) (A) (A) (A) (A) (A) (A) (A)
                 (A) (A) (A) (A) (A) (A) (A) (A) (A) (A) (A) (A)
                 (A) (A) (A) (A) (A) (A) (A) (A) (A) (A) (A) (A)
                 (A) (A) (A) (A) (A) (A) (A) (A) (A) (A) (A) (A)
                 (A) (A) (A) (A) (A) (A) (A) (A) (A) (A) (A) (A)
                 (A) (A) (A) (A) (A) (A) (A) (A) (A) (A) (A) (A)
                 (A) (A) (A) (A) (A) (A) (A) (A) (A) (A) (A) (A)
                 (A) (A) (A) (A) (A) (A) (A) (A) (A) (A) (A) (A)
                 (A) (A) (A) (A) (A) (A) (A) (A) (A) (A) (A) (A)
                 (A) (A) (A) (A) (A) (A) (A) (A) (A) (A) (A) (A)
                 (A) (A) (A) (A) (A) (A) (A) (A) (A) (A) (A) (A)
                 (A) (A) (A) (A) (A) (A) (A) (A) (A) (A) (A) (A)
                 (A) (A) (A) (A) (A) (A) (A) (A) (A) (A) (A) (A)
                 (A) (A) (A) (A) (A) (A) (A) (A) (A) (A) (A) (A)
                 (A) (A) (A) (A) (A) (A) (A) (A) (A) (A) (A) (A)
                 (A) (A) (A) (A) (A) (A) (A) (A) (A) (A) (A) (A)
                 (A) (A) (A) (A) (A) (A) (A) (A) (A) (A) (A) (A)
                 (A) (A) (A) (A) (A) (A) (A) (A) (A) (A) (A) (A)
                 (A) (A) (A) (A) (A) (A) (A) (A) (A) (A) (A) (A)
                 (A) (A) (A) (A) (A) (A) (A) (A) (A) (A) (A) (A)
                 (A) (A) (A) (A) (A) (A) (A) (A) (A) (A) (A) (A)
                 (A) (A) (A) (A) (A) (A) (A) (A) (A) (A) (A) (A)
                 (A) (A) (A) (A) (A) (A) (A) (A) (A) (A) (A) (A)
                 (A) (A) (A) (A) (A) (A) (A) (A) (A) (A) (A) (A)
                 (A) (A) (A) (A) (A) (A) (A) (A) (A) (A) (A) (A)
                 (A) (A) (A) (A) (A) (A) (A) (A) (A) (A) (A) (A)
                 (A) (A) (A) (A) (A) (A) (A) (A) (A) (A) (A) (A)
                 (A) (A) (A) (A) (A) (A) (A) (A) (A) (A) (A) (A)
                 (A) (A) (A) (A) (A) (A) (A) (A) (A) (A) (A) (A)
                 (A) (A) (A) (A) (A) (A) (A) (A) (A) (A) (A) (A)
                 (A) (A) (A) (A) (A) (A) (A) (A) (A) (A) (A) (A)
                 (A) (A) (A) (A) (A) (A) (A) (A) (A) (A) (A) (A)
                 (A) (A) (A) (A) (A) (A) (A) (A) (A) (A) (A) (A)
                 (A) (A) (A) (A) (A) (A) (A) (A) (A) (A) (A) (A)
                 (A) (A) (A) (A) (A) (A) (A) (A) (A) (A) (A) (A)
                 (A) (A) (A) (A) (A) (A) (A) (A) (A) (A) (A) (A)
                 (A) (A) (A) (A) (A) (A) (A) (A) (A) (A) (A) (A)
                 (A) (A) (A) (A) (A) (A) (A) (A) (A) (A) (A) (A)
                 (A) (A) (A) (A) (A) (A) (A) (A) (A) (A) (A) (A)
                 (A) (A) (A) (A) (A) (A) (A) (A) (A) (A) (A) (A)
                 (A) (A) (A) (A) (A) (A) (A) (A) (A) (A) (A) (A)
                 (A) (A) (A) (A) (A) (A) (A) (A) (A) (A) (A) (A)
                 (A) (A) (A) (A) (A) (A) (A) (A) (A) (A) (A) (A)
                 (A) (A) (A) (A) (A) (A) (A) (A) (A) (A) (A) (A)
                 (A) (A) (A) (A) (A) (A) (A) (A) (A) (A) (A)
 Beta  Orbitals:
       Occupied  (A) (A) (A) (A) (A) (A) (A) (A) (A) (A) (A) (A)
                 (A) (A) (A) (A) (A) (A) (A) (A) (A) (A) (A) (A)
                 (A) (A) (A) (A) (A) (A) (A) (A) (A) (A) (A) (A)
                 (A) (A) (A) (A) (A) (A) (A) (A) (A) (A) (A) (A)
                 (A) (A) (A) (A) (A) (A) (A) (A) (A) (A) (A) (A)
                 (A) (A) (A) (A) (A) (A) (A) (A) (A) (A) (A) (A)
                 (A) (A) (A) (A) (A) (A) (A) (A) (A) (A) (A) (A)
                 (A) (A) (A) (A) (A) (A) (A) (A) (A) (A) (A) (A)
                 (A) (A) (A) (A) (A) (A) (A) (A) (A) (A) (A) (A)
       Virtual   (A) (A) (A) (A) (A) (A) (A) (A) (A) (A) (A) (A)
                 (A) (A) (A) (A) (A) (A) (A) (A) (A) (A) (A) (A)
                 (A) (A) (A) (A) (A) (A) (A) (A) (A) (A) (A) (A)
                 (A) (A) (A) (A) (A) (A) (A) (A) (A) (A) (A) (A)
                 (A) (A) (A) (A) (A) (A) (A) (A) (A) (A) (A) (A)
                 (A) (A) (A) (A) (A) (A) (A) (A) (A) (A) (A) (A)
                 (A) (A) (A) (A) (A) (A) (A) (A) (A) (A) (A) (A)
                 (A) (A) (A) (A) (A) (A) (A) (A) (A) (A) (A) (A)
                 (A) (A) (A) (A) (A) (A) (A) (A) (A) (A) (A) (A)
                 (A) (A) (A) (A) (A) (A) (A) (A) (A) (A) (A) (A)
                 (A) (A) (A) (A) (A) (A) (A) (A) (A) (A) (A) (A)
                 (A) (A) (A) (A) (A) (A) (A) (A) (A) (A) (A) (A)
                 (A) (A) (A) (A) (A) (A) (A) (A) (A) (A) (A) (A)
                 (A) (A) (A) (A) (A) (A) (A) (A) (A) (A) (A) (A)
                 (A) (A) (A) (A) (A) (A) (A) (A) (A) (A) (A) (A)
                 (A) (A) (A) (A) (A) (A) (A) (A) (A) (A) (A) (A)
                 (A) (A) (A) (A) (A) (A) (A) (A) (A) (A) (A) (A)
                 (A) (A) (A) (A) (A) (A) (A) (A) (A) (A) (A) (A)
                 (A) (A) (A) (A) (A) (A) (A) (A) (A) (A) (A) (A)
                 (A) (A) (A) (A) (A) (A) (A) (A) (A) (A) (A) (A)
                 (A) (A) (A) (A) (A) (A) (A) (A) (A) (A) (A) (A)
                 (A) (A) (A) (A) (A) (A) (A) (A) (A) (A) (A) (A)
                 (A) (A) (A) (A) (A) (A) (A) (A) (A) (A) (A) (A)
                 (A) (A) (A) (A) (A) (A) (A) (A) (A) (A) (A) (A)
                 (A) (A) (A) (A) (A) (A) (A) (A) (A) (A) (A) (A)
                 (A) (A) (A) (A) (A) (A) (A) (A) (A) (A) (A) (A)
                 (A) (A) (A) (A) (A) (A) (A) (A) (A) (A) (A) (A)
                 (A) (A) (A) (A) (A) (A) (A) (A) (A) (A) (A) (A)
                 (A) (A) (A) (A) (A) (A) (A) (A) (A) (A) (A) (A)
                 (A) (A) (A) (A) (A) (A) (A) (A) (A) (A) (A) (A)
                 (A) (A) (A) (A) (A) (A) (A) (A) (A) (A) (A) (A)
                 (A) (A) (A) (A) (A) (A) (A) (A) (A) (A) (A) (A)
                 (A) (A) (A) (A) (A) (A) (A) (A) (A) (A) (A) (A)
                 (A) (A) (A) (A) (A) (A) (A) (A) (A) (A) (A) (A)
                 (A) (A) (A) (A) (A) (A) (A) (A) (A) (A) (A) (A)
                 (A) (A) (A) (A) (A) (A) (A) (A) (A) (A) (A) (A)
                 (A) (A) (A) (A) (A) (A) (A) (A) (A) (A) (A) (A)
                 (A) (A) (A) (A) (A) (A) (A) (A) (A) (A) (A) (A)
                 (A) (A) (A) (A) (A) (A) (A) (A) (A) (A) (A) (A)
                 (A) (A) (A) (A) (A) (A) (A) (A) (A) (A) (A) (A)
                 (A) (A) (A) (A) (A) (A) (A) (A) (A) (A) (A) (A)
                 (A) (A) (A) (A) (A) (A) (A) (A) (A) (A) (A) (A)
                 (A) (A) (A) (A) (A) (A) (A) (A) (A) (A) (A) (A)
                 (A) (A) (A) (A) (A) (A) (A) (A) (A) (A) (A) (A)
                 (A) (A) (A) (A) (A) (A) (A) (A) (A) (A) (A) (A)
                 (A) (A) (A) (A) (A) (A) (A) (A) (A) (A) (A) (A)
 The electronic state is 2-A.
 Alpha  occ. eigenvalues --  -19.17063 -19.16497 -19.16390 -19.15989 -19.15409
 Alpha  occ. eigenvalues --  -19.13405 -19.10624 -19.10129 -14.55973 -10.26357
 Alpha  occ. eigenvalues --  -10.26231 -10.26074 -10.25944 -10.25706 -10.24733
 Alpha  occ. eigenvalues --  -10.23198 -10.21607 -10.21387 -10.20832 -10.20229
 Alpha  occ. eigenvalues --  -10.19764 -10.19636 -10.19458 -10.18766 -10.18277
 Alpha  occ. eigenvalues --  -10.18224 -10.17970 -10.17968 -10.17683 -10.17252
 Alpha  occ. eigenvalues --   -1.24636  -1.09324  -1.07891  -1.07249  -1.06799
 Alpha  occ. eigenvalues --   -1.04820  -1.04194  -1.03503  -0.89723  -0.86755
 Alpha  occ. eigenvalues --   -0.82151  -0.81187  -0.80827  -0.77611  -0.76120
 Alpha  occ. eigenvalues --   -0.75552  -0.73219  -0.71875  -0.69896  -0.68856
 Alpha  occ. eigenvalues --   -0.66189  -0.65625  -0.62626  -0.62138  -0.61176
 Alpha  occ. eigenvalues --   -0.58581  -0.57721  -0.56670  -0.55731  -0.54623
 Alpha  occ. eigenvalues --   -0.53083  -0.52961  -0.52741  -0.51726  -0.51125
 Alpha  occ. eigenvalues --   -0.50644  -0.49947  -0.48723  -0.48237  -0.47792
 Alpha  occ. eigenvalues --   -0.47279  -0.46173  -0.45565  -0.44833  -0.44291
 Alpha  occ. eigenvalues --   -0.44021  -0.43859  -0.43025  -0.42859  -0.42490
 Alpha  occ. eigenvalues --   -0.41780  -0.41169  -0.40633  -0.40166  -0.39414
 Alpha  occ. eigenvalues --   -0.39100  -0.38795  -0.38384  -0.37711  -0.37389
 Alpha  occ. eigenvalues --   -0.36803  -0.36356  -0.36026  -0.35902  -0.34105
 Alpha  occ. eigenvalues --   -0.33168  -0.32865  -0.32058  -0.30110  -0.29841
 Alpha  occ. eigenvalues --   -0.29256  -0.29131  -0.28233  -0.26513  -0.25342
 Alpha  occ. eigenvalues --   -0.24736  -0.23896  -0.22475  -0.22057
 Alpha virt. eigenvalues --   -0.09023  -0.07935  -0.06878  -0.03137  -0.01401
 Alpha virt. eigenvalues --   -0.00486   0.01252   0.03324   0.03923   0.05277
 Alpha virt. eigenvalues --    0.05779   0.06422   0.06949   0.07450   0.07714
 Alpha virt. eigenvalues --    0.07934   0.08288   0.09244   0.10406   0.10794
 Alpha virt. eigenvalues --    0.11759   0.12075   0.12271   0.12291   0.12749
 Alpha virt. eigenvalues --    0.13145   0.13766   0.14304   0.14874   0.16188
 Alpha virt. eigenvalues --    0.16703   0.16944   0.17056   0.18786   0.20298
 Alpha virt. eigenvalues --    0.21120   0.22003   0.23034   0.23515   0.24551
 Alpha virt. eigenvalues --    0.25591   0.26168   0.26504   0.26719   0.27441
 Alpha virt. eigenvalues --    0.27879   0.28806   0.29193   0.29806   0.30228
 Alpha virt. eigenvalues --    0.30792   0.30992   0.31644   0.32882   0.32939
 Alpha virt. eigenvalues --    0.33819   0.33994   0.34804   0.35162   0.35694
 Alpha virt. eigenvalues --    0.36008   0.36312   0.37184   0.37510   0.37793
 Alpha virt. eigenvalues --    0.38023   0.38515   0.39047   0.39856   0.39896
 Alpha virt. eigenvalues --    0.40558   0.40982   0.41696   0.41928   0.42128
 Alpha virt. eigenvalues --    0.42697   0.42823   0.43068   0.43359   0.44105
 Alpha virt. eigenvalues --    0.44827   0.44891   0.45012   0.45716   0.45892
 Alpha virt. eigenvalues --    0.46312   0.46657   0.47341   0.48136   0.48527
 Alpha virt. eigenvalues --    0.49170   0.49703   0.50423   0.51535   0.51661
 Alpha virt. eigenvalues --    0.51989   0.52182   0.52774   0.54255   0.54602
 Alpha virt. eigenvalues --    0.54921   0.55575   0.56115   0.56876   0.57412
 Alpha virt. eigenvalues --    0.57624   0.57910   0.58506   0.58704   0.59486
 Alpha virt. eigenvalues --    0.59897   0.60198   0.60849   0.61190   0.61441
 Alpha virt. eigenvalues --    0.61738   0.61924   0.62154   0.62400   0.62998
 Alpha virt. eigenvalues --    0.63354   0.63735   0.64158   0.64982   0.65767
 Alpha virt. eigenvalues --    0.66279   0.66426   0.67467   0.67931   0.68639
 Alpha virt. eigenvalues --    0.69680   0.69940   0.70745   0.72787   0.73341
 Alpha virt. eigenvalues --    0.73540   0.74099   0.74873   0.75587   0.76269
 Alpha virt. eigenvalues --    0.76964   0.77349   0.77579   0.77810   0.78536
 Alpha virt. eigenvalues --    0.79124   0.79434   0.79986   0.80100   0.80958
 Alpha virt. eigenvalues --    0.81570   0.82311   0.83434   0.83877   0.84287
 Alpha virt. eigenvalues --    0.84782   0.85560   0.86109   0.87174   0.87726
 Alpha virt. eigenvalues --    0.87875   0.88317   0.88711   0.89551   0.90136
 Alpha virt. eigenvalues --    0.91013   0.92255   0.93092   0.93615   0.93954
 Alpha virt. eigenvalues --    0.95278   0.95976   0.96584   0.97280   0.97606
 Alpha virt. eigenvalues --    0.98504   0.98901   0.99520   1.01038   1.01697
 Alpha virt. eigenvalues --    1.02458   1.03126   1.04805   1.05035   1.05653
 Alpha virt. eigenvalues --    1.06702   1.07179   1.07328   1.07821   1.08383
 Alpha virt. eigenvalues --    1.08798   1.09884   1.10417   1.11025   1.12488
 Alpha virt. eigenvalues --    1.13015   1.13329   1.15049   1.16007   1.16149
 Alpha virt. eigenvalues --    1.16604   1.16780   1.17962   1.19409   1.20378
 Alpha virt. eigenvalues --    1.22010   1.22298   1.23314   1.24502   1.28800
 Alpha virt. eigenvalues --    1.28983   1.31393   1.32489   1.33226   1.34874
 Alpha virt. eigenvalues --    1.35744   1.36031   1.38387   1.39410   1.39986
 Alpha virt. eigenvalues --    1.40904   1.41331   1.42953   1.43744   1.44131
 Alpha virt. eigenvalues --    1.44721   1.45001   1.45493   1.45658   1.46682
 Alpha virt. eigenvalues --    1.47578   1.47774   1.48210   1.48483   1.49458
 Alpha virt. eigenvalues --    1.49881   1.50289   1.51083   1.51383   1.51861
 Alpha virt. eigenvalues --    1.52489   1.52605   1.52999   1.53884   1.54340
 Alpha virt. eigenvalues --    1.54907   1.55873   1.56408   1.56944   1.58306
 Alpha virt. eigenvalues --    1.58702   1.58985   1.59253   1.59728   1.60639
 Alpha virt. eigenvalues --    1.61290   1.62137   1.62308   1.63779   1.64179
 Alpha virt. eigenvalues --    1.65184   1.66313   1.66921   1.67010   1.67705
 Alpha virt. eigenvalues --    1.68360   1.69458   1.69862   1.70269   1.70500
 Alpha virt. eigenvalues --    1.70748   1.71672   1.72843   1.73205   1.74213
 Alpha virt. eigenvalues --    1.74659   1.74977   1.75099   1.75765   1.76644
 Alpha virt. eigenvalues --    1.77438   1.78191   1.80071   1.80229   1.81834
 Alpha virt. eigenvalues --    1.82445   1.83699   1.83915   1.84933   1.85305
 Alpha virt. eigenvalues --    1.85989   1.86662   1.86689   1.87293   1.88635
 Alpha virt. eigenvalues --    1.89522   1.90361   1.91014   1.92294   1.92854
 Alpha virt. eigenvalues --    1.94290   1.94627   1.95256   1.97193   1.97438
 Alpha virt. eigenvalues --    1.98234   1.99228   1.99878   2.00733   2.01323
 Alpha virt. eigenvalues --    2.02824   2.03438   2.04824   2.05449   2.07081
 Alpha virt. eigenvalues --    2.07317   2.08638   2.09198   2.09843   2.10418
 Alpha virt. eigenvalues --    2.12066   2.12294   2.13636   2.14043   2.14969
 Alpha virt. eigenvalues --    2.16464   2.16796   2.17812   2.20840   2.21353
 Alpha virt. eigenvalues --    2.22257   2.23945   2.24960   2.26394   2.27413
 Alpha virt. eigenvalues --    2.28005   2.29019   2.30761   2.31269   2.31499
 Alpha virt. eigenvalues --    2.32255   2.32794   2.34741   2.34904   2.35441
 Alpha virt. eigenvalues --    2.36116   2.36403   2.36800   2.43257   2.44300
 Alpha virt. eigenvalues --    2.45662   2.46012   2.47068   2.47357   2.48197
 Alpha virt. eigenvalues --    2.48822   2.49254   2.50292   2.50898   2.51330
 Alpha virt. eigenvalues --    2.52183   2.52759   2.53415   2.54196   2.54643
 Alpha virt. eigenvalues --    2.54880   2.56951   2.58691   2.59570   2.60044
 Alpha virt. eigenvalues --    2.61844   2.62278   2.62511   2.62982   2.63703
 Alpha virt. eigenvalues --    2.64226   2.64638   2.64784   2.66963   2.67741
 Alpha virt. eigenvalues --    2.67966   2.70395   2.71115   2.71387   2.72132
 Alpha virt. eigenvalues --    2.72507   2.73596   2.74039   2.74776   2.76716
 Alpha virt. eigenvalues --    2.77674   2.79397   2.79527   2.80516   2.81631
 Alpha virt. eigenvalues --    2.82047   2.83471   2.83578   2.84503   2.84910
 Alpha virt. eigenvalues --    2.86909   2.87383   2.88030   2.88378   2.90517
 Alpha virt. eigenvalues --    2.90817   2.90999   2.91886   2.93056   2.94941
 Alpha virt. eigenvalues --    2.95860   2.96357   2.97206   2.97408   3.00303
 Alpha virt. eigenvalues --    3.01550   3.02354   3.03423   3.04963   3.05611
 Alpha virt. eigenvalues --    3.06589   3.08059   3.08242   3.09467   3.09994
 Alpha virt. eigenvalues --    3.10831   3.12569   3.14296   3.15437   3.15666
 Alpha virt. eigenvalues --    3.15869   3.17651   3.20971   3.21998   3.22596
 Alpha virt. eigenvalues --    3.23685   3.24835   3.25813   3.28810   3.30174
 Alpha virt. eigenvalues --    3.30472   3.31148   3.32752   3.33477   3.36301
 Alpha virt. eigenvalues --    3.36786   3.37950   3.38596   3.39958   3.43594
 Alpha virt. eigenvalues --    3.43736   3.44383   3.45887   3.49735   3.50989
 Alpha virt. eigenvalues --    3.51675   3.53798   3.55366   3.56279   3.57424
 Alpha virt. eigenvalues --    3.58259   3.58793   3.62821   3.63621   3.64856
 Alpha virt. eigenvalues --    3.65837   3.70602   3.77784   3.78198   3.79392
 Alpha virt. eigenvalues --    3.80354   3.83014   3.85225   3.85335   3.88341
 Alpha virt. eigenvalues --    3.89562   3.93028   3.95976   3.96483   3.98045
 Alpha virt. eigenvalues --    4.00465   4.01200   4.02167   4.02585   4.06119
 Alpha virt. eigenvalues --    4.06802   4.13474   4.13867   4.15117   4.26817
 Alpha virt. eigenvalues --    4.28563   4.39366   4.47133   4.53794   4.57092
 Alpha virt. eigenvalues --    4.77002   4.80785   4.81591   4.83309   4.85925
 Alpha virt. eigenvalues --    4.86913   4.88837   4.90026   4.94242   4.95471
 Alpha virt. eigenvalues --    5.01074   5.03239   5.06008   5.06796   5.22094
 Alpha virt. eigenvalues --    5.23441   5.33313   5.34352   5.48546   5.60629
 Alpha virt. eigenvalues --    5.62119   5.65513   5.66060   5.75905   5.76661
 Alpha virt. eigenvalues --    5.99656  23.40190  23.45553  23.70992  23.73771
 Alpha virt. eigenvalues --   23.79476  23.84581  23.86149  23.86357  23.86432
 Alpha virt. eigenvalues --   23.87924  23.89118  23.90913  23.93283  23.99464
 Alpha virt. eigenvalues --   24.00012  24.00988  24.09355  24.13459  24.15775
 Alpha virt. eigenvalues --   24.19355  24.19893  35.35773  49.83976  49.87642
 Alpha virt. eigenvalues --   49.88492  49.91364  49.93921  49.94877  49.96598
 Alpha virt. eigenvalues --   49.98808
[...]
    28  O    8.231155   8.426696   7.835385   9.001781   8.878992
    29  C   12.080414  12.525634  10.746845  11.834905  11.540714
    30  C   12.925079  13.426728  11.405784  12.397866  12.016084
    31  C   12.624665  13.035366  11.373004  12.554945  12.364737
    32  C   14.149210  14.669905  12.543313  13.548734  13.189279
    33  H   12.708602  13.232398  11.139276  12.035909  11.569904
    34  C   13.870428  14.306981  12.510785  13.690854  13.506991
    35  H   12.178891  12.536005  11.098930  12.343276  12.228985
    36  C   14.599434  15.090529  13.066355  14.163849  13.897831
    37  H   14.845782  15.399940  13.133636  14.069053  13.654243
    38  O   15.830820  16.336970  14.232523  15.332746  15.082715
    39  H   16.273179  16.809642  14.582417  15.624048  15.320904
    40  O   14.466095  14.870528  13.188821  14.434864  14.337781
    41  C   15.644609  16.001737  14.481713  15.730832  15.619371
    42  H   15.465089  15.771745  14.451534  15.694946  15.561908
    43  H   16.039733  16.376705  14.930333  16.221742  16.175566
    44  H   16.425879  16.815030  15.156462  16.365831  16.205665
    45  C    8.642902   8.969662   7.859777   8.778362   8.373253
    46  H    9.656173   9.985652   8.813532   9.669232   9.191660
    47  H    8.191659   8.427869   7.725946   8.589237   8.183892
    48  O    5.305799   6.168843   2.940583   3.480673   3.063110
    49  O    5.393035   6.154035   3.372156   4.558013   4.583757
    50  N    4.774288   5.576390   2.679588   3.663819   3.512614
                   21         22         23         24         25
    21  H    0.000000
    22  H    1.783885   0.000000
    23  C   11.280938  11.422633   0.000000
    24  H   10.977164  11.120390   1.085956   0.000000
    25  C   10.833403  10.834992   1.350397   2.097945   0.000000
    26  H   11.258494  11.258430   2.128800   3.076232   1.085500
    27  C    9.948519   9.767729   2.499405   2.722700   1.464551
    28  O    9.756586   9.436532   3.585222   3.933676   2.336690
    29  C   12.316194  12.593144   1.456275   2.146283   2.513452
    30  C   12.831302  13.213674   2.462237   2.592864   3.743039
    31  C   13.007660  13.294262   2.520880   3.444427   3.045223
    32  C   13.920070  14.398043   3.747833   3.980543   4.936813
    33  H   12.482916  12.859511   2.660466   2.324321   4.010489
    34  C   14.081369  14.469599   3.787285   4.584454   4.427109
    35  H   12.823357  13.027686   2.781071   3.840925   2.790257
    36  C   14.517102  14.996768   4.274519   4.802934   5.224324
    37  H   14.407823  14.949615   4.613614   4.652722   5.874209
    38  O   15.635427  16.189923   5.630740   6.142803   6.551339
    39  H   15.907420  16.508566   6.039535   6.402652   7.083770
    40  O   14.800559  15.190767   4.896734   5.797033   5.277211
    41  C   16.135077  16.458503   5.824149   6.699206   6.192330
    42  H   16.167676  16.376878   5.546903   6.425438   5.829183
    43  H   16.602744  16.932896   6.664833   7.596553   6.891040
    44  H   16.749319  17.129184   6.293140   7.057757   6.847975
    45  C    9.539459   9.319914   3.018390   2.636945   2.598073
    46  H   10.416012  10.233635   2.786536   2.185503   2.768240
    47  H    9.437367   9.017744   4.028867   3.685790   3.435758
    48  O    3.839653   4.451890   7.664221   7.259653   7.431046
    49  O    4.912124   5.395897   6.574746   6.465168   6.128410
    50  N    4.156880   4.510254   7.124919   6.858787   6.709839
                   26         27         28         29         30
    26  H    0.000000
    27  C    2.140973   0.000000
    28  O    2.515631   1.224818   0.000000
    29  C    2.805441   3.873446   4.849243   0.000000
    30  C    4.184597   4.955274   6.040611   1.403801   0.000000
    31  C    2.798976   4.509771   5.237396   1.408852   2.410092
    32  C    5.184668   6.242886   7.268721   2.431429   1.389002
    33  H    4.679715   4.986874   6.161232   2.155219   1.084309
    34  C    4.140159   5.891418   6.609809   2.438208   2.793038
    35  H    2.178855   4.191931   4.694251   2.175516   3.404916
    36  C    5.180021   6.649337   7.525548   2.818970   2.415663
    37  H    6.208360   7.106904   8.186061   3.414979   2.152047
    38  O    6.431627   7.988150   8.830850   4.174830   3.674294
    39  H    7.085748   8.481026   9.402274   4.610404   3.827238
    40  O    4.738897   6.718085   7.252631   3.678360   4.162045
    41  C    5.635149   7.608855   8.115481   4.615174   4.990862
    42  H    5.273344   7.184998   7.662392   4.481731   4.979290
    43  H    6.209870   8.273948   8.659216   5.520200   5.987695
    44  H    6.417091   8.286795   8.900157   4.970169   5.044393
    45  C    3.535533   1.536667   2.393100   4.468737   5.212557
    46  H    3.790264   2.172761   3.196525   4.141150   4.697739
    47  H    4.237039   2.124125   2.490164   5.478676   6.252154
    48  O    8.022252   6.690049   6.837071   8.677752   9.082758
    49  O    6.491761   5.521943   5.494794   7.523733   8.175149
    50  N    7.199501   5.916036   5.907050   8.186514   8.765410
                   31         32         33         34         35
    31  C    0.000000
    32  C    2.780946   0.000000
    33  H    3.396615   2.141526   0.000000
    34  C    1.383765   2.425347   3.877334   0.000000
    35  H    1.083278   3.863741   4.311364   2.112731   0.000000
    36  C    2.416324   1.394812   3.393603   1.413327   3.383354
    37  H    3.866781   1.085870   2.470347   3.407669   4.949468
    38  O    3.634370   2.417727   4.554173   2.369605   4.480739
    39  H    4.322191   2.448310   4.536088   3.181261   5.256659
    40  O    2.376442   3.684795   5.246224   1.370023   2.562220
    41  C    3.384008   4.374638   6.049153   2.376950   3.523755
    42  H    3.325799   4.569979   5.989706   2.666860   3.353501
    43  H    4.199636   5.377792   7.060013   3.263323   4.139447
    44  H    3.920669   4.174143   6.055469   2.710845   4.301897
    45  C    5.441018   6.591487   4.916080   6.772617   5.366688
    46  H    5.245831   6.072493   4.295704   6.506601   5.334754
    47  H    6.379981   7.627550   5.944023   7.730757   6.208929
    48  O    9.519089  10.200572   8.672007  10.591352   9.490342
    49  O    8.117724   9.249600   8.010952   9.196803   7.924477
    50  N    8.916783   9.910523   8.469877  10.043372   8.767543
                   36         37         38         39         40
    36  C    0.000000
    37  H    2.146171   0.000000
    38  O    1.356941   2.670721   0.000000
    39  H    1.908501   2.281405   0.966877   0.000000
    40  O    2.423958   4.564720   2.750113   3.708173   0.000000
    41  C    3.087486   5.128894   3.043441   3.949716   1.437900
    42  H    3.478367   5.376607   3.699517   4.540706   2.091807
    43  H    4.043372   6.121927   3.849218   4.756421   2.030883
    44  H    2.892636   4.731743   2.448810   3.239309   2.100431
    45  C    7.276816   7.289118   8.633319   8.980938   7.777926
    46  H    6.866441   6.694390   8.210346   8.487380   7.606313
    47  H    8.289001   8.324557   9.645407  10.009734   8.680870
    48  O   10.908598  10.655037  12.064868  12.283264  11.465210
    49  O    9.723633   9.871148  10.869289  11.229408   9.902044
    50  N   10.505661  10.476255  11.690001  11.998349  10.835510
                   41         42         43         44         45
    41  C    0.000000
    42  H    1.095237   0.000000
    43  H    1.089900   1.782401   0.000000
    44  H    1.092037   1.789671   1.780865   0.000000
    45  C    8.660212   8.234412   9.427973   9.212919   0.000000
    46  H    8.387598   7.918327   9.236735   8.842905   1.089482
    47  H    9.505103   9.007984  10.241527  10.097303   1.090071
    48  O   12.773083  12.784695  13.367048  13.297377   6.150744
    49  O   11.225396  11.261630  11.709980  11.853732   5.480091
    50  N   12.128520  12.106053  12.670083  12.730545   5.583082
                   46         47         48         49         50
    46  H    0.000000
    47  H    1.770931   0.000000
    48  O    6.912194   6.305865   0.000000
    49  O    6.381454   5.755047   2.167690   0.000000
    50  N    6.465882   5.701382   1.219793   1.220177   0.000000
 Stoichiometry    C21H20NO8(2)
 Framework group  C1[X(C21H20NO8)]
 Deg. of freedom   144
 Full point group                 C1      NOp   1
 Largest Abelian subgroup         C1      NOp   1
 Largest concise Abelian subgroup C1      NOp   1
                         Standard orientation:                         
 ---------------------------------------------------------------------
 Center     Atomic      Atomic             Coordinates (Angstroms)
 Number     Number       Type             X           Y           Z
 ---------------------------------------------------------------------
      1          6           0        2.241629    0.862627    0.825492
      2          1           0        1.806453    1.856829    0.827877
      3          6           0        1.528541   -0.149578    1.358202
      4          1           0        1.903005   -1.165512    1.408504
      5          6           0        0.181841   -0.012428    1.937454
      6          8           0       -0.407891   -1.003951    2.342434
      7          6           0        3.578049    0.822503    0.248584
      8          6           0        4.288415    2.024306    0.149407
      9          6           0        4.290682   -0.348775   -0.128313
     10          6           0        5.591063    2.081899   -0.330512
     11          1           0        3.801097    2.940140    0.462300
     12          6           0        5.569589   -0.308322   -0.706742
     13          1           0        4.786556   -0.834361    1.670307
     14          6           0        6.241181    0.926147   -0.762320
     15          1           0        6.103160    3.036377   -0.395578
     16          8           0        7.487436    0.923908   -1.288748
     17          1           0        7.831920    1.827573   -1.309534
     18          8           0        6.091647   -1.441453   -1.236135
     19          6           0        7.199220   -2.037250   -0.520135
     20          1           0        6.897948   -2.289147    0.499362
     21          1           0        7.444123   -2.947282   -1.065275
     22          1           0        8.060942   -1.368521   -0.509130
     23          6           0       -3.122377    0.474124    0.910230
     24          1           0       -2.725712    0.017850    1.812324
     25          6           0       -2.380868    1.412981    0.283904
     26          1           0       -2.717857    1.880110   -0.636171
     27          6           0       -1.066353    1.883365    0.726285
     28          8           0       -0.438800    2.691788    0.053376
     29          6           0       -4.421291   -0.039058    0.497674
     30          6           0       -5.028512   -1.042667    1.268849
     31          6           0       -5.110728    0.428066   -0.638696
     32          6           0       -6.265006   -1.567958    0.916035
     33          1           0       -4.520639   -1.419867    2.149481
     34          6           0       -6.343238   -0.085532   -1.001932
     35          1           0       -4.688309    1.200065   -1.270417
     36          6           0       -6.930699   -1.104922   -0.218844
     37          1           0       -6.718353   -2.352382    1.514592
     38          8           0       -8.126911   -1.599525   -0.625950
     39          1           0       -8.414494   -2.286873   -0.009752
     40          8           0       -6.941773    0.357530   -2.151896
     41          6           0       -8.140903    1.130262   -1.971537
     42          1           0       -7.938546    2.020283   -1.366179
     43          1           0       -8.455808    1.436709   -2.968937
     44          1           0       -8.932476    0.538648   -1.506832
     45          6           0       -0.473300    1.368758    2.047199
     46          1           0       -1.249502    1.285711    2.807188
     47          1           0        0.256325    2.110313    2.372774
     48          8           0        3.860966   -2.619373    0.275022
     49          8           0        2.723533   -1.603842   -1.265700
     50          7           0        3.560415   -1.634089   -0.378262
 ---------------------------------------------------------------------
 Rotational constants (GHZ):           0.3647757           0.0458765           0.0447491
 Standard basis: 6-31+(d') (6D, 7F)
 There are   610 symmetry adapted cartesian basis functions of A   symmetry.
 There are   610 symmetry adapted basis functions of A   symmetry.
   610 basis functions,  1040 primitive gaussians,   610 cartesian basis functions
   109 alpha electrons      108 beta electrons
       nuclear repulsion energy      2684.2560952132 Hartrees.
 NAtoms=   50 NActive=   50 NUniq=   50 SFac= 1.00D+00 NAtFMM=   60 NAOKFM=F Big=F
 Integral buffers will be    131072 words long.
 Raffenetti 2 integral format.
 Two-electron integral symmetry is turned on.
 ------------------------------------------------------------------------------
 Polarizable Continuum Model (PCM)
 =================================
 Model                : PCM.
 Atomic radii         : SMD-Coulomb.
 Polarization charges : Total charges.
 Charge compensation  : None.
 Solution method      : Matrix inversion.
 Cavity type          : VdW (van der Waals Surface) (Alpha=1.000).
 Cavity algorithm     : GePol (No added spheres)
                        Default sphere list used, NSphG=   50.
                        Lebedev-Laikov grids with approx.  5.0 points / Ang**2.
                        Smoothing algorithm: York/Karplus (Gamma=1.0000).
                        Polarization charges: spherical gaussians, with
                                              point-specific exponents (IZeta= 3).
                        Self-potential: point-specific (ISelfS= 7).
                        Self-field    : sphere-specific E.n sum rule (ISelfD= 2).
 Solvent              : Generic,
                        Eps                           =   7.000000
                        Eps(infinity)                 =   1.853410
                        RSolv                         =   0.000000 Ang.
                        Molar volume                  =   0.000000 cm**3/mol
                        Thermal expansion coefficient =   0.000000 K**-1
                        Absolute temperature          = 298.150000 K
                        Numeral density               =   0.000000 Ang**-3
                        Hydrogen bond acidity         =   0.000000
                        Hydrogen bond basicity        =   0.480000
                        Surface tension at interface  =  60.620000 (cal/mol)*Ang**-2
                        Carbon aromaticity            =   0.000000
                        Electronegative halogenicity  =   0.000000
 ------------------------------------------------------------------------------
 ------------------------------------------------------------------------------
 Atomic radii for non-electrostatic terms: SMD-CDS.
 ------------------------------------------------------------------------------
 Nuclear repulsion after PCM non-electrostatic terms =     2684.2526222045 Hartrees.
 One-electron integrals computed using PRISM.
 NBasis=   610 RedAO= T EigKep=  1.31D-06  NBF=   610
 NBsUse=   606 1.00D-06 EigRej=  7.93D-07 NBFU=   606
 Initial guess from the checkpoint file:  "CURCUMIN-OPT-FREQ-TS-CBSQB3-6-311G-D-298.chk"
 B after Tr=     0.000000   -0.000000   -0.000000
         Rot=    1.000000    0.000000    0.000000   -0.000000 Ang=   0.00 deg.
 Initial guess <Sx>= 0.0000 <Sy>= 0.0000 <Sz>= 0.5000 <S**2>= 0.7647 S= 0.5073
 Requested convergence on RMS density matrix=1.00D-08 within 128 cycles.
 Requested convergence on MAX density matrix=1.00D-06.
 Requested convergence on             energy=1.00D-06.
 No special actions if energy rises.
 Inv3:  Mode=1 IEnd=    50873772.
 Iteration    1 A*A^-1 deviation from unit magnitude is 3.22D-15 for   3188.
 Iteration    1 A*A^-1 deviation from orthogonality  is 2.11D-15 for   3712   1587.
 Iteration    1 A^-1*A deviation from unit magnitude is 3.33D-15 for   3549.
 Iteration    1 A^-1*A deviation from orthogonality  is 9.52D-15 for   3050   2185.
 Rare condition: small coef for last iteration:  0.000D+00
 Rare condition: small coef for last iteration:  0.000D+00
 Rare condition: small coef for last iteration:  0.000D+00
 Restarting incremental Fock formation.
 Restarting incremental Fock formation.
 Restarting incremental Fock formation.
 Error on total polarization charges =  0.03999
 SCF Done:  E(UHF) =  -1459.96394520     A.U. after   63 cycles
            NFock= 63  Conv=0.28D-08     -V/T= 2.0023
 <Sx>= 0.0000 <Sy>= 0.0000 <Sz>= 0.5000 <S**2>= 1.0042 S= 0.6199
 <L.S>=  0.00000000000    
 SMD-CDS (non-electrostatic) energy       (kcal/mol) =      -2.18
 (included in total energy above)
 Annihilation of the first spin contaminant:
 S**2 before annihilation     1.0042,   after     0.7840
 ExpMin= 4.38D-02 ExpMax= 5.48D+03 ExpMxC= 8.25D+02 IAcc=3 IRadAn=         5 AccDes= 0.00D+00
 HarFok:  IExCor=  205 AccDes= 0.00D+00 IRadAn=         5 IDoV=-2 UseB2=F ITyADJ=14
 ICtDFT= 12500011 ScaDFX=  1.000000  1.000000  1.000000  1.000000
 GSVD:  LWork=       -1140 too small for GESVD, short by        4950 words or        4950 for optimal perf.
 Range of M.O.s used for correlation:    31   606
 NBasis=   610 NAE=   109 NBE=   108 NFC=    30 NFV=     0
 NROrb=    576 NOA=    79 NOB=    78 NVA=   497 NVB=   498

 **** Warning!!: The largest alpha MO coefficient is  0.13110514D+03


 **** Warning!!: The largest beta MO coefficient is  0.13245972D+03

 Semi-Direct transformation.
 ModeAB=           4 MOrb=            79 LenV=      96245481
 LASXX=   6886452357 LTotXX=  6886452357 LenRXX= 13936136805
 LTotAB=  7049684448 MaxLAS=  5826286656 LenRXY=           0
 NonZer= 20822589162 LenScr= 41808568320 LnRSAI=  5826286656
 LnScr1= 11717424640 LExtra=           0 Total=  73288416421
 MaxDsk=          -1 SrtSym=           T ITran=            4
 JobTyp=1 Pass  1:  I=   1 to  79.
 ModeAB=           4 MOrb=            78 LenV=      96245481
 LASXX=   6808707165 LTotXX=  6808707165 LenRXX= 11997051690
 LTotAB=  5188344525 MaxLAS=  5752536192 LenRXY=           0
 NonZer= 18805758855 LenScr= 37759078400 LnRSAI=  5752536192
 LnScr1= 11569792000 LExtra=           0 Total=  67078458282
 MaxDsk=          -1 SrtSym=           T ITran=            4
 JobTyp=2 Pass  1:  I=   1 to  78.
 SymMOI:  orbitals are not symmetric.
 Spin components of T(2) and E(2):
     alpha-alpha T2 =       0.2085754657D+00 E2=     -0.6066667507D+00
     alpha-beta  T2 =       0.1056797132D+01 E2=     -0.3193073009D+01
     beta-beta   T2 =       0.2053524791D+00 E2=     -0.6007566765D+00
 ANorm=    0.1571854025D+01
 E2 =    -0.4400496436D+01 EUMP2 =    -0.14643644416367D+04
 (S**2,0)=  0.10042D+01           (S**2,1)=  0.95495D+00
 E(PUHF)=      -0.14599754149D+04        E(PMP2)=      -0.14643748810D+04
 CIDS: In Core Option IDoMem=           1.
 Iterations=  50 Convergence= 0.100D-06
 Produce multiple copies of IABC intergrals
 Iteration Nr.   1
 **********************
 DD1Dir will call FoFJK  85 times, MxPair=       218
 NAB=  6162 NAA=  3081 NBB=  3003 NumPrc=  1.
 FoFJK:  IHMeth= 1 ICntrl=     200 DoSepK=F KAlg= 0 I1Cent=           0 FoldK=F
 IRaf= 680000000 NMat=     218 IRICut=     272 DoRegI=T DoRafI=T ISym2E= 2 IDoP0=0 IntGTp=1.
 FoFCou: FMM=F IPFlag=           0 FMFlag=      100000 FMFlg1=           0
         NFxFlg=           0 DoJE=F BraDBF=F KetDBF=F FulRan=T
         wScrn=  0.000000 ICntrl=       200 IOpCl=  0 I1Cent=           0 NGrid=           0
         NMat0=  218 NMatS0=      0 NMatT0=  109 NMatD0=  218 NMtDS0=    0 NMtDT0=    0
 Integrals replicated using symmetry in FoFCou.
 Raff kept on since  67.44% of shell-pairs survive, threshold=   0.20 IRatSp=67.
