 Entering Gaussian System, Link 0=g16
 Initial command:
 /sw/cluster/pub/apps//g16/l1.exe "/data/natrosa/25735/Gau-2612745.inp" -scrdir="/data/natrosa/25735/"
 Entering Link 1 = /sw/cluster/pub/apps//g16/l1.exe PID=   2612746.
  
 Copyright (c) 1988,1990,1992,1993,1995,1998,2003,2009,2016,
            Gaussian, Inc.  All Rights Reserved.
  
 This is part of the Gaussian(R) 16 program.  It is based on
 the Gaussian(R) 09 system (copyright 2009, Gaussian, Inc.),
 the Gaussian(R) 03 system (copyright 2003, Gaussian, Inc.),
 the Gaussian(R) 98 system (copyright 1998, Gaussian, Inc.),
 the Gaussian(R) 94 system (copyright 1995, Gaussian, Inc.),
 the Gaussian 92(TM) system (copyright 1992, Gaussian, Inc.),
 the Gaussian 90(TM) system (copyright 1990, Gaussian, Inc.),
 the Gaussian 88(TM) system (copyright 1988, Gaussian, Inc.),
 the Gaussian 86(TM) system (copyright 1986, Carnegie Mellon
 University), and the Gaussian 82(TM) system (copyright 1983,
 Carnegie Mellon University). Gaussian is a federally registered
 trademark of Gaussian, Inc.
  
 This software contains proprietary and confidential information,
 including trade secrets, belonging to Gaussian, Inc.
  
 This software is provided under written license and may be
 used, copied, transmitted, or stored only in accord with that
 written license.
  
 The following legend is applicable only to US Government
 contracts under FAR:
  
                    RESTRICTED RIGHTS LEGEND
  
 Use, reproduction and disclosure by the US Government is
 subject to restrictions as set forth in subparagraphs (a)
 and (c) of the Commercial Computer Software - Restricted
 Rights clause in FAR 52.227-19.
  
 Gaussian, Inc.
 340 Quinnipiac St., Bldg. 40, Wallingford CT 06492
  
  
 ---------------------------------------------------------------
 Warning -- This program may not be used in any manner that
 competes with the business of Gaussian, Inc. or will provide
 assistance to any competitor of Gaussian, Inc.  The licensee
 of this program is prohibited from giving any competitor of
 Gaussian, Inc. access to this program.  By using this program,
 the user acknowledges that Gaussian, Inc. is engaged in the
 business of creating and licensing software in the field of
 computational chemistry and represents and warrants to the
 licensee that it is not a competitor of Gaussian, Inc. and that
 it will not use this program in any manner prohibited above.
 ---------------------------------------------------------------
  

 Cite this work as:
 Gaussian 16, Revision A.03,
 M. J. Frisch, G. W. Trucks, H. B. Schlegel, G. E. Scuseria, 
 M. A. Robb, J. R. Cheeseman, G. Scalmani, V. Barone, 
 G. A. Petersson, H. Nakatsuji, X. Li, M. Caricato, A. V. Marenich, 
 J. Bloino, B. G. Janesko, R. Gomperts, B. Mennucci, H. P. Hratchian, 
 J. V. Ortiz, A. F. Izmaylov, J. L. Sonnenberg, D. Williams-Young, 
 F. Ding, F. Lipparini, F. Egidi, J. Goings, B. Peng, A. Petrone, 
 T. Henderson, D. Ranasinghe, V. G. Zakrzewski, J. Gao, N. Rega, 
 G. Zheng, W. Liang, M. Hada, M. Ehara, K. Toyota, R. Fukuda, 
 J. Hasegawa, M. Ishida, T. Nakajima, Y. Honda, O. Kitao, H. Nakai, 
 T. Vreven, K. Throssell, J. A. Montgomery, Jr., J. E. Peralta, 
 F. Ogliaro, M. J. Bearpark, J. J. Heyd, E. N. Brothers, K. N. Kudin, 
 V. N. Staroverov, T. A. Keith, R. Kobayashi, J. Normand, 
 K. Raghavachari, A. P. Rendell, J. C. Burant, S. S. Iyengar, 
 J. Tomasi, M. Cossi, J. M. Millam, M. Klene, C. Adamo, R. Cammi, 
 J. W. Ochterski, R. L. Martin, K. Morokuma, O. Farkas, 
 J. B. Foresman, and D. J. Fox, Gaussian, Inc., Wallingford CT, 2016.
 
 ******************************************
 Gaussian 16:  ES64L-G16RevA.03 25-Dec-2016
                28-Nov-2024 
 ******************************************
 %oldchk=/home/natrosa/MOSSRI/REACAO-1/B3LYP-6-311+G-D/CURCUMIN-OPT-FREQ-Reag-1-B
 3LYP-6-311+G-D-298.chk
 %chk=CURCUMIN-OPT-FREQ-Reag-1-B3LYP-6-311+G-D-363.chk
 Copying data from "/home/natrosa/MOSSRI/REACAO-1/B3LYP-6-311+G-D/CURCUMIN-OPT-FREQ-Reag-1-B3LYP-6-311+G-D-298.chk" to current chk file "CURCUMIN-OPT-FREQ-Reag-1-B3LYP-6-311+G-D-363.chk"
 IOpt=  2 FromEx=T IUOpen= 4 IOptOp= 5 NList=   0 IFRang= 0 IUIn= 4 IUOut= 2.
 ----------------------------------------------------------------------
 # opt=(calcfc) freq=noraman b3lyp/6-311+g(d) scrf=(smd,solvent=generic
 ,read) temperature=363.15 Geom=Check Guess=Read
 ----------------------------------------------------------------------
 1/10=4,18=20,19=15,26=3,29=2,38=1,40=2,112=363150/1,3;
 2/9=110,12=2,40=1/2;
 3/5=4,6=6,7=11,11=2,14=-4,25=1,30=1,70=32203,71=2,72=-2,74=-5,116=-2,140=1/1,2,3;
 4/5=1/1;
 5/5=2,38=6/2;
 8/6=4,10=90,11=11/1;
 11/6=1,8=1,9=11,15=111,16=1/1,2,10;
 10/6=1,13=1/2;
 6/7=2,8=2,9=2,10=2,28=1/1;
 7/10=1,18=20,25=1/1,2,3,16;
 1/10=4,18=20,19=15,26=3/3(2);
 2/9=110/2;
 99//99;
 2/9=110/2;
 3/5=4,6=6,7=11,11=2,14=-2,25=1,30=1,70=32205,71=1,72=-2,74=-5/1,2,3;
 4/5=5,16=3,69=1/1;
 5/5=2,38=5/2;
 7//1,2,3,16;
 1/18=20,19=15,26=3/3(-5);
 2/9=110/2;
 6/7=2,8=2,9=2,10=2,19=2,28=1/1;
 99/9=1/99;
 ----------
 Reagente 1
 ----------
 Structure from the checkpoint file:  "CURCUMIN-OPT-FREQ-Reag-1-B3LYP-6-311+G-D-363.chk"
 Charge =  0 Multiplicity = 2
 Redundant internal coordinates found in file.  (old form).
 C,0,2.188276381,0.9305008344,0.9848040625
 H,0,1.7821956721,1.9375125496,0.9917593278
 C,0,1.4365132208,-0.0762872677,1.5113660339
 H,0,1.7937505944,-1.1009034133,1.5216266935
 C,0,0.1125318089,0.0886633594,2.1084798671
 O,0,-0.4806317224,-0.8837383742,2.5698063746
 C,0,3.4949260965,0.8329492942,0.4105044086
 C,0,4.1574244709,1.979027026,-0.0087537219
 C,0,4.1997920262,-0.481884767,0.256008119
 C,0,5.4841766254,1.9575092402,-0.4350984061
 H,0,3.6403272157,2.9316005004,0.0424795316
 C,0,5.6484161459,-0.4270477454,-0.0933258418
 H,0,4.033875217,-1.1584207686,1.0944848583
 C,0,6.2478553599,0.7678515273,-0.4303904256
 H,0,5.9675075245,2.8835263336,-0.7316403785
 O,0,7.5819864092,0.7955542879,-0.7253590787
 H,0,7.8570869982,1.7012537926,-0.9269363162
 O,0,6.2023456662,-1.6533899239,-0.0324457018
 C,0,7.384816964,-1.9987998753,-0.7862785536
 H,0,8.2735059236,-1.5490001226,-0.3485208318
 H,0,7.445881508,-3.0837634781,-0.7255832231
 H,0,7.2772441016,-1.6911627246,-1.8267218057
 C,0,-3.1638592361,0.5322392175,1.0047209501
 H,0,-2.8088907061,0.1302141607,1.949106709
 C,0,-2.4033074146,1.4475315393,0.3641876589
 H,0,-2.7125206196,1.8666180947,-0.5891260713
 C,0,-1.1193646512,1.9627784411,0.8424764153
 O,0,-0.5031533788,2.7941784069,0.181508257
 C,0,-4.4413272103,-0.013220069,0.5655396696
 C,0,-5.0685976862,-0.9856162314,1.3614722207
 C,0,-5.089839977,0.3875413066,-0.6192450326
 C,0,-6.285158909,-1.5431924671,0.9883688223
 H,0,-4.5922120674,-1.3139062355,2.2794634723
 C,0,-6.3047893645,-0.1562946209,-1.0007745365
 H,0,-4.6505509694,1.133749785,-1.2717797844
 C,0,-6.9102232037,-1.1434595155,-0.192878771
 H,0,-6.7506884649,-2.3040045421,1.6091006384
 O,0,-8.0872056557,-1.6726083242,-0.6190895835
 H,0,-8.3992510066,-2.3415344332,0.0078370082
 O,0,-6.8643109616,0.2184403838,-2.195236209
 C,0,-8.0517212782,1.021921312,-2.098905947
 H,0,-7.8382659972,1.9565037898,-1.5702750939
 H,0,-8.3508378033,1.2449049361,-3.1225904791
 H,0,-8.8562835329,0.4846226085,-1.5932140841
 C,0,-0.5393460773,1.4769392067,2.1783062309
 H,0,-1.3215011007,1.4216626479,2.9354996933
 H,0,0.1895041869,2.2227545375,2.4968857776
 O,0,2.7712542991,-2.235289719,-0.6190526001
 O,0,3.6835311636,-0.9220962362,-2.0789080683
 N,0,3.482683415,-1.2999382644,-0.938853255
 Recover connectivity data from disk.

 GradGradGradGradGradGradGradGradGradGradGradGradGradGradGradGradGradGrad
 Berny optimization.
 Initialization pass.
                           ----------------------------
                           !    Initial Parameters    !
                           ! (Angstroms and Degrees)  !
 --------------------------                            --------------------------
 ! Name  Definition              Value          Derivative Info.                !
 --------------------------------------------------------------------------------
 ! R1    R(1,2)                  1.0858         calculate D2E/DX2 analytically  !
 ! R2    R(1,3)                  1.3624         calculate D2E/DX2 analytically  !
 ! R3    R(1,7)                  1.4306         calculate D2E/DX2 analytically  !
 ! R4    R(3,4)                  1.0852         calculate D2E/DX2 analytically  !
 ! R5    R(3,5)                  1.4617         calculate D2E/DX2 analytically  !
 ! R6    R(5,6)                  1.2289         calculate D2E/DX2 analytically  !
 ! R7    R(5,45)                 1.5353         calculate D2E/DX2 analytically  !
 ! R8    R(7,8)                  1.3886         calculate D2E/DX2 analytically  !
 ! R9    R(7,9)                  1.4998         calculate D2E/DX2 analytically  !
 ! R10   R(8,10)                 1.3937         calculate D2E/DX2 analytically  !
 ! R11   R(8,11)                 1.0851         calculate D2E/DX2 analytically  !
 ! R12   R(9,12)                 1.4912         calculate D2E/DX2 analytically  !
 ! R13   R(9,13)                 1.0901         calculate D2E/DX2 analytically  !
 ! R14   R(9,50)                 1.6159         calculate D2E/DX2 analytically  !
 ! R15   R(10,14)                1.4137         calculate D2E/DX2 analytically  !
 ! R16   R(10,15)                1.0858         calculate D2E/DX2 analytically  !
 ! R17   R(12,14)                1.3787         calculate D2E/DX2 analytically  !
 ! R18   R(12,18)                1.347          calculate D2E/DX2 analytically  !
 ! R19   R(14,16)                1.3666         calculate D2E/DX2 analytically  !
 ! R20   R(16,17)                0.9678         calculate D2E/DX2 analytically  !
 ! R21   R(18,19)                1.4442         calculate D2E/DX2 analytically  !
 ! R22   R(19,20)                1.088          calculate D2E/DX2 analytically  !
 ! R23   R(19,21)                1.0884         calculate D2E/DX2 analytically  !
 ! R24   R(19,22)                1.0903         calculate D2E/DX2 analytically  !
 ! R25   R(23,24)                1.086          calculate D2E/DX2 analytically  !
 ! R26   R(23,25)                1.3515         calculate D2E/DX2 analytically  !
 ! R27   R(23,29)                1.4568         calculate D2E/DX2 analytically  !
 ! R28   R(25,26)                1.0863         calculate D2E/DX2 analytically  !
 ! R29   R(25,27)                1.4638         calculate D2E/DX2 analytically  !
 ! R30   R(27,28)                1.2279         calculate D2E/DX2 analytically  !
 ! R31   R(27,45)                1.5352         calculate D2E/DX2 analytically  !
 ! R32   R(29,30)                1.4045         calculate D2E/DX2 analytically  !
 ! R33   R(29,31)                1.4089         calculate D2E/DX2 analytically  !
 ! R34   R(30,32)                1.3893         calculate D2E/DX2 analytically  !
 ! R35   R(30,33)                1.0851         calculate D2E/DX2 analytically  !
 ! R36   R(31,34)                1.3847         calculate D2E/DX2 analytically  !
 ! R37   R(31,35)                1.0843         calculate D2E/DX2 analytically  !
 ! R38   R(32,36)                1.3949         calculate D2E/DX2 analytically  !
 ! R39   R(32,37)                1.0867         calculate D2E/DX2 analytically  !
 ! R40   R(34,36)                1.412          calculate D2E/DX2 analytically  !
 ! R41   R(34,40)                1.3712         calculate D2E/DX2 analytically  !
 ! R42   R(36,38)                1.359          calculate D2E/DX2 analytically  !
 ! R43   R(38,39)                0.9684         calculate D2E/DX2 analytically  !
 ! R44   R(40,41)                1.4369         calculate D2E/DX2 analytically  !
 ! R45   R(41,42)                1.0947         calculate D2E/DX2 analytically  !
 ! R46   R(41,43)                1.0896         calculate D2E/DX2 analytically  !
 ! R47   R(41,44)                1.0917         calculate D2E/DX2 analytically  !
 ! R48   R(45,46)                1.09           calculate D2E/DX2 analytically  !
 ! R49   R(45,47)                1.0904         calculate D2E/DX2 analytically  !
 ! R50   R(48,50)                1.2179         calculate D2E/DX2 analytically  !
 ! R51   R(49,50)                1.2177         calculate D2E/DX2 analytically  !
 ! A1    A(2,1,3)              118.4582         calculate D2E/DX2 analytically  !
 ! A2    A(2,1,7)              114.0407         calculate D2E/DX2 analytically  !
 ! A3    A(3,1,7)              127.4997         calculate D2E/DX2 analytically  !
 ! A4    A(1,3,4)              121.3168         calculate D2E/DX2 analytically  !
 ! A5    A(1,3,5)              125.0504         calculate D2E/DX2 analytically  !
 ! A6    A(4,3,5)              113.6324         calculate D2E/DX2 analytically  !
 ! A7    A(3,5,6)              120.0821         calculate D2E/DX2 analytically  !
 ! A8    A(3,5,45)             120.3445         calculate D2E/DX2 analytically  !
 ! A9    A(6,5,45)             119.5698         calculate D2E/DX2 analytically  !
 ! A10   A(1,7,8)              120.0454         calculate D2E/DX2 analytically  !
 ! A11   A(1,7,9)              122.0303         calculate D2E/DX2 analytically  !
 ! A12   A(8,7,9)              117.9194         calculate D2E/DX2 analytically  !
 ! A13   A(7,8,10)             122.2619         calculate D2E/DX2 analytically  !
 ! A14   A(7,8,11)             118.8778         calculate D2E/DX2 analytically  !
 ! A15   A(10,8,11)            118.7928         calculate D2E/DX2 analytically  !
 ! A16   A(7,9,12)             116.6444         calculate D2E/DX2 analytically  !
 ! A17   A(7,9,13)             113.1608         calculate D2E/DX2 analytically  !
 ! A18   A(7,9,50)             108.1445         calculate D2E/DX2 analytically  !
 ! A19   A(12,9,13)            110.5415         calculate D2E/DX2 analytically  !
 ! A20   A(12,9,50)            106.0521         calculate D2E/DX2 analytically  !
 ! A21   A(13,9,50)            100.7793         calculate D2E/DX2 analytically  !
 ! A22   A(8,10,14)            121.75           calculate D2E/DX2 analytically  !
 ! A23   A(8,10,15)            119.6105         calculate D2E/DX2 analytically  !
 ! A24   A(14,10,15)           118.5625         calculate D2E/DX2 analytically  !
 ! A25   A(9,12,14)            120.7666         calculate D2E/DX2 analytically  !
 ! A26   A(9,12,18)            110.8197         calculate D2E/DX2 analytically  !
 ! A27   A(14,12,18)           128.4118         calculate D2E/DX2 analytically  !
 ! A28   A(10,14,12)           119.6891         calculate D2E/DX2 analytically  !
 ! A29   A(10,14,16)           120.6358         calculate D2E/DX2 analytically  !
 ! A30   A(12,14,16)           119.6562         calculate D2E/DX2 analytically  !
 ! A31   A(14,16,17)           109.9637         calculate D2E/DX2 analytically  !
 ! A32   A(12,18,19)           122.0623         calculate D2E/DX2 analytically  !
 ! A33   A(18,19,20)           111.093          calculate D2E/DX2 analytically  !
 ! A34   A(18,19,21)           104.7881         calculate D2E/DX2 analytically  !
 ! A35   A(18,19,22)           110.477          calculate D2E/DX2 analytically  !
 ! A36   A(20,19,21)           110.1123         calculate D2E/DX2 analytically  !
 ! A37   A(20,19,22)           110.3588         calculate D2E/DX2 analytically  !
 ! A38   A(21,19,22)           109.8787         calculate D2E/DX2 analytically  !
 ! A39   A(24,23,25)           118.6135         calculate D2E/DX2 analytically  !
 ! A40   A(24,23,29)           114.2143         calculate D2E/DX2 analytically  !
 ! A41   A(25,23,29)           127.1692         calculate D2E/DX2 analytically  !
 ! A42   A(23,25,26)           121.1326         calculate D2E/DX2 analytically  !
 ! A43   A(23,25,27)           125.2492         calculate D2E/DX2 analytically  !
 ! A44   A(26,25,27)           113.6167         calculate D2E/DX2 analytically  !
 ! A45   A(25,27,28)           120.1728         calculate D2E/DX2 analytically  !
 ! A46   A(25,27,45)           120.2847         calculate D2E/DX2 analytically  !
 ! A47   A(28,27,45)           119.5406         calculate D2E/DX2 analytically  !
 ! A48   A(23,29,30)           118.6871         calculate D2E/DX2 analytically  !
 ! A49   A(23,29,31)           123.4117         calculate D2E/DX2 analytically  !
 ! A50   A(30,29,31)           117.9007         calculate D2E/DX2 analytically  !
 ! A51   A(29,30,32)           121.116          calculate D2E/DX2 analytically  !
 ! A52   A(29,30,33)           119.5269         calculate D2E/DX2 analytically  !
 ! A53   A(32,30,33)           119.3551         calculate D2E/DX2 analytically  !
 ! A54   A(29,31,34)           121.5919         calculate D2E/DX2 analytically  !
 ! A55   A(29,31,35)           121.0231         calculate D2E/DX2 analytically  !
 ! A56   A(34,31,35)           117.3843         calculate D2E/DX2 analytically  !
 ! A57   A(30,32,36)           120.3178         calculate D2E/DX2 analytically  !
 ! A58   A(30,32,37)           120.1802         calculate D2E/DX2 analytically  !
 ! A59   A(36,32,37)           119.4974         calculate D2E/DX2 analytically  !
 ! A60   A(31,34,36)           119.5471         calculate D2E/DX2 analytically  !
 ! A61   A(31,34,40)           119.3869         calculate D2E/DX2 analytically  !
 ! A62   A(36,34,40)           120.9648         calculate D2E/DX2 analytically  !
 ! A63   A(32,36,34)           119.5198         calculate D2E/DX2 analytically  !
 ! A64   A(32,36,38)           122.8249         calculate D2E/DX2 analytically  !
 ! A65   A(34,36,38)           117.653          calculate D2E/DX2 analytically  !
 ! A66   A(36,38,39)           110.1802         calculate D2E/DX2 analytically  !
 ! A67   A(34,40,41)           115.5693         calculate D2E/DX2 analytically  !
 ! A68   A(40,41,42)           110.402          calculate D2E/DX2 analytically  !
 ! A69   A(40,41,43)           106.1592         calculate D2E/DX2 analytically  !
 ! A70   A(40,41,44)           111.3993         calculate D2E/DX2 analytically  !
 ! A71   A(42,41,43)           109.4208         calculate D2E/DX2 analytically  !
 ! A72   A(42,41,44)           109.8887         calculate D2E/DX2 analytically  !
 ! A73   A(43,41,44)           109.4888         calculate D2E/DX2 analytically  !
 ! A74   A(5,45,27)            114.0165         calculate D2E/DX2 analytically  !
 ! A75   A(5,45,46)            106.8824         calculate D2E/DX2 analytically  !
 ! A76   A(5,45,47)            110.363          calculate D2E/DX2 analytically  !
 ! A77   A(27,45,46)           110.4497         calculate D2E/DX2 analytically  !
 ! A78   A(27,45,47)           106.8762         calculate D2E/DX2 analytically  !
 ! A79   A(46,45,47)           108.1414         calculate D2E/DX2 analytically  !
 ! A80   A(9,50,48)            116.9922         calculate D2E/DX2 analytically  !
 ! A81   A(9,50,49)            117.5162         calculate D2E/DX2 analytically  !
 ! A82   A(48,50,49)           125.4847         calculate D2E/DX2 analytically  !
 ! D1    D(2,1,3,4)            179.5323         calculate D2E/DX2 analytically  !
 ! D2    D(2,1,3,5)             -0.7087         calculate D2E/DX2 analytically  !
 ! D3    D(7,1,3,4)             -0.9373         calculate D2E/DX2 analytically  !
 ! D4    D(7,1,3,5)            178.8218         calculate D2E/DX2 analytically  !
 ! D5    D(2,1,7,8)              3.5133         calculate D2E/DX2 analytically  !
 ! D6    D(2,1,7,9)           -177.309          calculate D2E/DX2 analytically  !
 ! D7    D(3,1,7,8)           -176.0346         calculate D2E/DX2 analytically  !
 ! D8    D(3,1,7,9)              3.143          calculate D2E/DX2 analytically  !
 ! D9    D(1,3,5,6)           -179.2527         calculate D2E/DX2 analytically  !
 ! D10   D(1,3,5,45)             0.0558         calculate D2E/DX2 analytically  !
 ! D11   D(4,3,5,6)              0.5226         calculate D2E/DX2 analytically  !
 ! D12   D(4,3,5,45)           179.8311         calculate D2E/DX2 analytically  !
 ! D13   D(3,5,45,27)           76.5658         calculate D2E/DX2 analytically  !
 ! D14   D(3,5,45,46)         -161.0936         calculate D2E/DX2 analytically  !
 ! D15   D(3,5,45,47)          -43.7246         calculate D2E/DX2 analytically  !
 ! D16   D(6,5,45,27)         -104.1221         calculate D2E/DX2 analytically  !
 ! D17   D(6,5,45,46)           18.2185         calculate D2E/DX2 analytically  !
 ! D18   D(6,5,45,47)          135.5874         calculate D2E/DX2 analytically  !
 ! D19   D(1,7,8,10)           172.689          calculate D2E/DX2 analytically  !
 ! D20   D(1,7,8,11)            -4.2839         calculate D2E/DX2 analytically  !
 ! D21   D(9,7,8,10)            -6.5221         calculate D2E/DX2 analytically  !
 ! D22   D(9,7,8,11)           176.5051         calculate D2E/DX2 analytically  !
 ! D23   D(1,7,9,12)          -167.9287         calculate D2E/DX2 analytically  !
 ! D24   D(1,7,9,13)           -38.0156         calculate D2E/DX2 analytically  !
 ! D25   D(1,7,9,50)            72.7323         calculate D2E/DX2 analytically  !
 ! D26   D(8,7,9,12)            11.2657         calculate D2E/DX2 analytically  !
 ! D27   D(8,7,9,13)           141.1788         calculate D2E/DX2 analytically  !
 ! D28   D(8,7,9,50)          -108.0733         calculate D2E/DX2 analytically  !
 ! D29   D(7,8,10,14)           -1.7926         calculate D2E/DX2 analytically  !
 ! D30   D(7,8,10,15)         -178.556          calculate D2E/DX2 analytically  !
 ! D31   D(11,8,10,14)         175.1828         calculate D2E/DX2 analytically  !
 ! D32   D(11,8,10,15)          -1.5807         calculate D2E/DX2 analytically  !
 ! D33   D(7,9,12,14)           -8.4463         calculate D2E/DX2 analytically  !
 ! D34   D(7,9,12,18)          172.008          calculate D2E/DX2 analytically  !
 ! D35   D(13,9,12,14)        -139.5882         calculate D2E/DX2 analytically  !
 ! D36   D(13,9,12,18)          40.8661         calculate D2E/DX2 analytically  !
 ! D37   D(50,9,12,14)         112.0121         calculate D2E/DX2 analytically  !
 ! D38   D(50,9,12,18)         -67.5336         calculate D2E/DX2 analytically  !
 ! D39   D(7,9,50,48)         -105.786          calculate D2E/DX2 analytically  !
 ! D40   D(7,9,50,49)           73.3175         calculate D2E/DX2 analytically  !
 ! D41   D(12,9,50,48)         128.3858         calculate D2E/DX2 analytically  !
 ! D42   D(12,9,50,49)         -52.5106         calculate D2E/DX2 analytically  !
 ! D43   D(13,9,50,48)          13.1427         calculate D2E/DX2 analytically  !
 ! D44   D(13,9,50,49)        -167.7538         calculate D2E/DX2 analytically  !
 ! D45   D(8,10,14,12)           4.9782         calculate D2E/DX2 analytically  !
 ! D46   D(8,10,14,16)        -173.434          calculate D2E/DX2 analytically  !
 ! D47   D(15,10,14,12)       -178.2255         calculate D2E/DX2 analytically  !
 ! D48   D(15,10,14,16)          3.3622         calculate D2E/DX2 analytically  !
 ! D49   D(9,12,14,10)           0.5048         calculate D2E/DX2 analytically  !
 ! D50   D(9,12,14,16)         178.9328         calculate D2E/DX2 analytically  !
 ! D51   D(18,12,14,10)        179.9629         calculate D2E/DX2 analytically  !
 ! D52   D(18,12,14,16)         -1.6092         calculate D2E/DX2 analytically  !
 ! D53   D(9,12,18,19)         155.3949         calculate D2E/DX2 analytically  !
 ! D54   D(14,12,18,19)        -24.1069         calculate D2E/DX2 analytically  !
 ! D55   D(10,14,16,17)         -0.6818         calculate D2E/DX2 analytically  !
 ! D56   D(12,14,16,17)       -179.0945         calculate D2E/DX2 analytically  !
 ! D57   D(12,18,19,20)         74.3464         calculate D2E/DX2 analytically  !
 ! D58   D(12,18,19,21)       -166.7715         calculate D2E/DX2 analytically  !
 ! D59   D(12,18,19,22)        -48.4786         calculate D2E/DX2 analytically  !
 ! D60   D(24,23,25,26)        179.1743         calculate D2E/DX2 analytically  !
 ! D61   D(24,23,25,27)         -0.3597         calculate D2E/DX2 analytically  !
 ! D62   D(29,23,25,26)         -0.1551         calculate D2E/DX2 analytically  !
 ! D63   D(29,23,25,27)       -179.6892         calculate D2E/DX2 analytically  !
 ! D64   D(24,23,29,30)         -0.7985         calculate D2E/DX2 analytically  !
 ! D65   D(24,23,29,31)        178.9295         calculate D2E/DX2 analytically  !
 ! D66   D(25,23,29,30)        178.5561         calculate D2E/DX2 analytically  !
 ! D67   D(25,23,29,31)         -1.716          calculate D2E/DX2 analytically  !
 ! D68   D(23,25,27,28)        179.8433         calculate D2E/DX2 analytically  !
 ! D69   D(23,25,27,45)         -0.6618         calculate D2E/DX2 analytically  !
 ! D70   D(26,25,27,28)          0.2785         calculate D2E/DX2 analytically  !
 ! D71   D(26,25,27,45)        179.7735         calculate D2E/DX2 analytically  !
 ! D72   D(25,27,45,5)          77.8532         calculate D2E/DX2 analytically  !
 ! D73   D(25,27,45,46)        -42.5089         calculate D2E/DX2 analytically  !
 ! D74   D(25,27,45,47)       -159.9206         calculate D2E/DX2 analytically  !
 ! D75   D(28,27,45,5)        -102.6487         calculate D2E/DX2 analytically  !
 ! D76   D(28,27,45,46)        136.9892         calculate D2E/DX2 analytically  !
 ! D77   D(28,27,45,47)         19.5775         calculate D2E/DX2 analytically  !
 ! D78   D(23,29,30,32)       -179.7682         calculate D2E/DX2 analytically  !
 ! D79   D(23,29,30,33)         -0.2793         calculate D2E/DX2 analytically  !
 ! D80   D(31,29,30,32)          0.4888         calculate D2E/DX2 analytically  !
 ! D81   D(31,29,30,33)        179.9776         calculate D2E/DX2 analytically  !
 ! D82   D(23,29,31,34)       -179.9859         calculate D2E/DX2 analytically  !
 ! D83   D(23,29,31,35)          0.3323         calculate D2E/DX2 analytically  !
 ! D84   D(30,29,31,34)         -0.2559         calculate D2E/DX2 analytically  !
 ! D85   D(30,29,31,35)       -179.9377         calculate D2E/DX2 analytically  !
 ! D86   D(29,30,32,36)         -0.0154         calculate D2E/DX2 analytically  !
 ! D87   D(29,30,32,37)        179.195          calculate D2E/DX2 analytically  !
 ! D88   D(33,30,32,36)       -179.5051         calculate D2E/DX2 analytically  !
 ! D89   D(33,30,32,37)         -0.2947         calculate D2E/DX2 analytically  !
 ! D90   D(29,31,34,36)         -0.4423         calculate D2E/DX2 analytically  !
 ! D91   D(29,31,34,40)       -176.8212         calculate D2E/DX2 analytically  !
 ! D92   D(35,31,34,36)        179.2506         calculate D2E/DX2 analytically  !
 ! D93   D(35,31,34,40)          2.8717         calculate D2E/DX2 analytically  !
 ! D94   D(30,32,36,34)         -0.6938         calculate D2E/DX2 analytically  !
 ! D95   D(30,32,36,38)        178.7378         calculate D2E/DX2 analytically  !
 ! D96   D(37,32,36,34)       -179.9096         calculate D2E/DX2 analytically  !
 ! D97   D(37,32,36,38)         -0.4779         calculate D2E/DX2 analytically  !
 ! D98   D(31,34,36,32)          0.9174         calculate D2E/DX2 analytically  !
 ! D99   D(31,34,36,38)       -178.5434         calculate D2E/DX2 analytically  !
 ! D100  D(40,34,36,32)        177.2379         calculate D2E/DX2 analytically  !
 ! D101  D(40,34,36,38)         -2.223          calculate D2E/DX2 analytically  !
 ! D102  D(31,34,40,41)       -110.493          calculate D2E/DX2 analytically  !
 ! D103  D(36,34,40,41)         73.1807         calculate D2E/DX2 analytically  !
 ! D104  D(32,36,38,39)         -0.0508         calculate D2E/DX2 analytically  !
 ! D105  D(34,36,38,39)        179.3909         calculate D2E/DX2 analytically  !
 ! D106  D(34,40,41,42)         60.4206         calculate D2E/DX2 analytically  !
 ! D107  D(34,40,41,43)        178.9181         calculate D2E/DX2 analytically  !
 ! D108  D(34,40,41,44)        -61.9636         calculate D2E/DX2 analytically  !
 --------------------------------------------------------------------------------
 Trust Radius=3.00D-01 FncErr=1.00D-07 GrdErr=1.00D-06 EigMax=2.50D+02 EigMin=1.00D-04
 Number of steps in this run=    251 maximum allowed number of steps=    300.
 GradGradGradGradGradGradGradGradGradGradGradGradGradGradGradGradGradGrad

                          Input orientation:                          
 ---------------------------------------------------------------------
 Center     Atomic      Atomic             Coordinates (Angstroms)
 Number     Number       Type             X           Y           Z
 ---------------------------------------------------------------------
      1          6           0        2.188276    0.930501    0.984804
      2          1           0        1.782196    1.937513    0.991759
      3          6           0        1.436513   -0.076287    1.511366
      4          1           0        1.793751   -1.100903    1.521627
      5          6           0        0.112532    0.088663    2.108480
      6          8           0       -0.480632   -0.883738    2.569806
      7          6           0        3.494926    0.832949    0.410504
      8          6           0        4.157424    1.979027   -0.008754
      9          6           0        4.199792   -0.481885    0.256008
     10          6           0        5.484177    1.957509   -0.435098
     11          1           0        3.640327    2.931601    0.042480
     12          6           0        5.648416   -0.427048   -0.093326
     13          1           0        4.033875   -1.158421    1.094485
     14          6           0        6.247855    0.767852   -0.430390
     15          1           0        5.967508    2.883526   -0.731640
     16          8           0        7.581986    0.795554   -0.725359
     17          1           0        7.857087    1.701254   -0.926936
     18          8           0        6.202346   -1.653390   -0.032446
     19          6           0        7.384817   -1.998800   -0.786279
     20          1           0        8.273506   -1.549000   -0.348521
     21          1           0        7.445882   -3.083763   -0.725583
     22          1           0        7.277244   -1.691163   -1.826722
     23          6           0       -3.163859    0.532239    1.004721
     24          1           0       -2.808891    0.130214    1.949107
     25          6           0       -2.403307    1.447532    0.364188
     26          1           0       -2.712521    1.866618   -0.589126
     27          6           0       -1.119365    1.962778    0.842476
     28          8           0       -0.503153    2.794178    0.181508
     29          6           0       -4.441327   -0.013220    0.565540
     30          6           0       -5.068598   -0.985616    1.361472
     31          6           0       -5.089840    0.387541   -0.619245
     32          6           0       -6.285159   -1.543192    0.988369
     33          1           0       -4.592212   -1.313906    2.279463
     34          6           0       -6.304789   -0.156295   -1.000775
     35          1           0       -4.650551    1.133750   -1.271780
     36          6           0       -6.910223   -1.143460   -0.192879
     37          1           0       -6.750688   -2.304005    1.609101
     38          8           0       -8.087206   -1.672608   -0.619090
     39          1           0       -8.399251   -2.341534    0.007837
     40          8           0       -6.864311    0.218440   -2.195236
     41          6           0       -8.051721    1.021921   -2.098906
     42          1           0       -7.838266    1.956504   -1.570275
     43          1           0       -8.350838    1.244905   -3.122590
     44          1           0       -8.856284    0.484623   -1.593214
     45          6           0       -0.539346    1.476939    2.178306
     46          1           0       -1.321501    1.421663    2.935500
     47          1           0        0.189504    2.222755    2.496886
     48          8           0        2.771254   -2.235290   -0.619053
     49          8           0        3.683531   -0.922096   -2.078908
     50          7           0        3.482683   -1.299938   -0.938853
 ---------------------------------------------------------------------
                    Distance matrix (angstroms):
                    1          2          3          4          5
     1  C    0.000000
     2  H    1.085828   0.000000
     3  C    1.362365   2.108288   0.000000
     4  H    2.137857   3.084293   1.085155   0.000000
     5  C    2.506003   2.730034   1.461739   2.141486   0.000000
     6  O    3.595381   3.945894   2.334035   2.513694   1.228914
     7  C    1.430619   2.119284   2.505129   2.805063   3.857159
     8  C    2.442152   2.577685   3.733422   4.173127   4.941387
     9  C    2.563625   3.498512   3.062049   2.788191   4.523591
    10  C    3.732804   3.967491   4.930378   5.177056   6.230325
    11  H    2.645908   2.311276   4.007719   4.675341   4.979557
    12  C    3.870125   4.660066   4.520862   4.233273   5.979960
    13  H    2.789598   3.829545   2.844485   2.281209   4.237964
    14  C    4.302257   4.830397   5.256615   5.209766   6.674530
    15  H    4.587273   4.624055   5.858454   6.194606   7.082251
    16  O    5.659945   6.155496   6.597718   6.492239   8.020168
    17  H    6.031934   6.375070   7.094275   7.114183   8.473036
    18  O    4.880988   5.786303   5.252025   4.707026   6.686116
    19  C    6.222666   7.074273   6.660146   6.114954   8.100819
    20  H    6.704901   7.489274   7.236887   6.759103   8.678726
    21  H    6.832434   7.761431   7.082469   6.397521   8.477867
    22  H    6.377726   7.162868   6.918438   6.452019   8.365805
    23  C    5.366970   5.141830   4.668021   5.245211   3.485654
    24  H    5.151895   5.026024   4.272905   4.783586   2.926061
    25  C    4.662095   4.260559   4.287454   5.044748   3.349407
    26  H    5.231767   4.765155   5.039983   5.793785   4.291750
    27  C    3.467902   2.905508   3.337321   4.281779   2.575391
    28  O    3.370812   2.571615   3.710849   4.716285   3.378180
    29  C    6.709548   6.535997   5.953786   6.401043   4.809228
    30  C    7.515025   7.457529   6.570070   6.865185   5.343800
    31  C    7.472533   7.226522   6.880983   7.360884   5.881708
    32  C    8.827133   8.786212   7.877154   8.108561   6.696869
    33  H    7.258686   7.270693   6.202193   6.434299   4.912337
    34  C    8.789529   8.587989   8.139104   8.534702   7.135088
    35  H    7.204376   6.866577   6.801650   7.370605   5.933407
    36  C    9.405899   9.298059   8.585529   8.871330   7.492227
    37  H    9.526640   9.548910   8.485432   8.629168   7.285467
    38  O   10.720736  10.631693   9.888797  10.126342   8.819150
    39  H   11.124586  11.087840  10.204617  10.379210   9.097747
    40  O    9.621280   9.374125   9.095573   9.514083   8.198485
    41  C   10.694633  10.348741  10.211108  10.702708   9.231906
    42  H   10.397724   9.955785   9.982499  10.568034   8.957525
    43  H   11.315585  10.958373  10.909232  11.401063  10.016467
    44  H   11.350211  11.044013  10.765440  11.208896   9.710766
    45  C    3.027039   2.647561   2.600258   3.538339   1.535295
    46  H    4.045367   3.698265   3.446542   4.250549   2.125394
    47  H    2.819823   2.209849   2.794973   3.817255   2.170514
    48  O    3.596450   4.580964   3.313836   2.612442   4.461950
    49  O    3.879979   4.606673   4.319091   4.070269   5.595345
    50  N    3.217267   4.135216   3.418729   2.990998   4.751039
                    6          7          8          9         10
     6  O    0.000000
     7  C    4.838870   0.000000
     8  C    6.029591   1.388588   0.000000
     9  C    5.236556   1.499831   2.475476   0.000000
    10  C    7.258173   2.436554   1.393737   2.842167   0.000000
    11  H    6.158449   2.135631   1.085086   3.465614   2.139326
    12  C    6.698214   2.545380   2.831855   1.491158   2.414518
    13  H    4.757394   2.173442   3.328059   1.090079   3.761917
    14  C    7.549932   2.879229   2.452473   2.495505   1.413688
    15  H    8.165190   3.409255   2.148740   3.927628   1.085842
    16  O    8.870397   4.242128   3.693475   3.746221   2.415615
    17  H    9.403560   4.644475   3.822005   4.420550   2.436858
    18  O    7.212924   3.702460   4.168539   2.337916   3.703578
    19  C    8.623917   4.958058   5.181092   3.678556   4.403197
    20  H    9.251710   5.393017   5.431809   4.254331   4.481458
    21  H    8.861677   5.678150   6.079444   4.274388   5.417296
    22  H    8.953549   5.067766   5.148648   3.907791   4.297035
    23  C    3.413824   6.692006   7.531369   7.470768   8.882173
    24  H    2.614222   6.526809   7.468659   7.236220   8.820341
    25  C    3.741157   5.930347   6.592782   6.880063   7.944265
    26  H    4.746013   6.371823   6.895333   7.349135   8.198648
    27  C    3.390325   4.770198   5.345031   5.883345   6.725993
    28  O    4.385379   4.459092   4.735151   5.732001   6.076869
    29  C    4.523494   7.982741   8.845190   8.659353  10.168612
    30  C    4.745512   8.805990   9.787038   9.347665  11.101833
    31  C    5.747260   8.657770   9.403054   9.371192  10.691517
    32  C    6.052137  10.081173  11.065615  10.563944  12.361166
    33  H    4.144205   8.573436   9.624733   9.060131  10.936389
    34  C    6.870155   9.950112  10.723881  10.584505  11.990324
    35  H    6.017995   8.322821   8.938130   9.125403  10.202515
    36  C    7.002823  10.608364  11.501159  11.138744  12.778725
    37  H    6.500286  10.781917  11.829993  11.183202  13.116065
    38  O    8.285610  11.894690  12.792104  12.375538  14.049698
    39  H    8.449461  12.317099  13.279218  12.737966  14.540548
    40  O    8.041877  10.699593  11.373611  11.354005  12.593951
    41  C    9.096692  11.817695  12.423688  12.566091  13.669825
    42  H    8.907414  11.559719  12.096919  12.417564  13.370718
    43  H    9.943573  12.368290  12.910908  13.111638  14.111628
    44  H    9.452761  12.517532  13.194709  13.221757  14.462345
    45  C    2.393641   4.451427   5.205284   5.476463   6.583590
    46  H    2.481062   5.469932   6.244831   6.425562   7.613495
    47  H    3.178789   4.148537   4.699151   5.330949   6.058089
    48  O    4.750818   3.316290   4.478214   2.425053   4.997334
    49  O    6.241175   3.051710   3.595362   2.431490   3.773137
    50  N    5.309593   2.523911   3.474475   1.615905   3.856256
                   11         12         13         14         15
    11  H    0.000000
    12  C    3.915531   0.000000
    13  H    4.241447   2.133669   0.000000
    14  C    3.421201   1.378668   3.307186   0.000000
    15  H    2.453027   3.386616   4.838492   2.155325   0.000000
    16  O    4.548510   2.373376   4.440602   1.366631   2.639358
    17  H    4.498287   3.178490   5.184673   1.925467   2.237503
    18  O    5.252779   1.347019   2.493438   2.454148   4.596480
    19  C    6.246350   2.442473   3.933487   3.012258   5.084177
    20  H    6.457167   2.866182   4.495474   3.078598   5.011158
    21  H    7.159383   3.269368   4.319882   4.044421   6.147697
    22  H    6.171792   2.693646   4.397352   3.009341   4.882867
    23  C    7.278722   8.932085   7.394171   9.523415   9.587771
    24  H    7.285287   8.718263   7.015298   9.385800   9.580830
    25  C    6.231491   8.279711   6.982954   8.714123   8.563496
    26  H    6.472387   8.684007   7.582827   9.028888   8.740555
    27  C    4.922731   7.238083   6.030031   7.571260   7.317744
    28  O    4.148089   6.949363   6.086148   7.075065   6.535386
    29  C    8.617349  10.119698   8.568566  10.763855  10.881988
    30  C    9.640005  10.829719   9.108027  11.590838  11.880530
    31  C    9.117343  10.781943   9.411113  11.345644  11.336115
    32  C   10.928575  12.034370  10.326750  12.823036  13.140856
    33  H    9.529068  10.549271   8.708486  11.365918  11.755546
    34  C   10.465602  11.990659  10.596337  12.599535  12.646036
    35  H    8.584766  10.483013   9.288300  10.936959  10.774815
    36  C   11.312631  12.579451  11.019565  13.298291  13.503438
    37  H   11.740488  12.655395  10.857440  13.511401  13.933487
    38  O   12.616316  13.801998  12.252401  14.542538  14.775182
    39  H   13.143766  14.177886  12.536474  14.979922  15.305288
    40  O   11.077727  12.704449  11.466842  13.241806  13.187129
    41  C   12.038954  13.921768  12.689101  14.398833  14.208229
    42  H   11.632278  13.775097  12.559914  14.182068  13.862253
    43  H   12.516016  14.420506  13.301910  14.852520  14.608790
    44  H   12.838554  14.610514  13.269495  15.151481  15.041337
    45  C    4.914007   6.861041   5.388334   7.305765   7.265358
    46  H    5.938789   7.821206   6.223040   8.309744   8.289428
    47  H    4.293571   6.597755   5.308320   6.883989   6.651716
    48  O    5.281067   3.438632   2.385387   4.597957   6.035809
    49  O    4.399219   2.836967   3.201408   3.485584   4.638366
    50  N    4.346698   2.483395   2.111470   3.490052   4.870181
                   16         17         18         19         20
    16  O    0.000000
    17  H    0.967784   0.000000
    18  O    2.894972   3.846026   0.000000
    19  C    2.801964   3.732723   1.444233   0.000000
    20  H    2.473286   3.327479   2.097738   1.087989   0.000000
    21  H    3.881705   4.806873   2.018115   1.088374   1.783995
    22  H    2.736719   3.557291   2.091951   1.090291   1.788247
    23  C   10.887411  11.249851   9.673597  10.994926  11.703681
    24  H   10.750152  11.158085   9.397349  10.766927  11.441956
    25  C   10.065698  10.344422   9.155889  10.440697  11.112223
    26  H   10.350972  10.576297   9.600791  10.813721  11.507264
    27  C    8.918185   9.152918   8.212771   9.521977  10.098370
    28  O    8.377732   8.503926   8.049246   9.280589   9.806828
    29  C   12.119431  12.506714  10.785894  12.067627  12.839825
    30  C   12.944679  13.398858  11.376427  12.677812  13.463031
    31  C   12.678837  13.017044  11.490134  12.701952  13.505647
    32  C   14.167015  14.635503  12.529644  13.792215  14.619919
    33  H   12.715734  13.204440  11.044576  12.382127  13.133479
    34  C   13.922084  14.283371  12.633582  13.814708  14.659187
    35  H   12.249405  12.525254  11.273396  12.445829  13.231810
    36  C   14.631044  15.056716  13.123461  14.332896  15.189941
    37  H   14.848654  15.357756  13.072837  14.340276  15.169994
    38  O   15.862746  16.300251  14.301601  15.476364  16.363416
    39  H   16.302725  16.777558  14.617859  15.807748  16.695386
    40  O   14.532347  14.850147  13.376058  14.489271  15.352124
    41  C   15.695563  15.966377  14.649436  15.783994  16.618861
    42  H   15.486958  15.710606  14.578581  15.748058  16.533918
    43  H   16.118422  16.362334  15.157317  16.235480  17.084208
    44  H   16.464099  16.770834  15.289520  16.449677  17.294929
    45  C    8.651682   8.955051   7.754792   9.146687   9.654404
    46  H    9.647071   9.962081   8.652914  10.067332  10.567582
    47  H    8.189539   8.413462   7.587903   8.965111   9.363416
    48  O    5.686867   6.438700   3.529179   4.622646   5.551482
    49  O    4.469941   5.062368   3.326744   4.065673   4.945211
    50  N    4.608791   5.304970   2.888437   3.967157   4.833477
                   21         22         23         24         25
    21  H    0.000000
    22  H    1.783334   0.000000
    23  C   11.341782  11.044330   0.000000
    24  H   11.074474  10.922656   1.086044   0.000000
    25  C   10.896181  10.409830   1.351474   2.100426   0.000000
    26  H   11.301240  10.676369   2.127116   3.076851   1.086303
    27  C   10.064285   9.538288   2.500545   2.727163   1.463813
    28  O    9.927748   9.202492   3.587953   3.941768   2.336111
    29  C   12.345079  12.077389   1.456822   2.144686   2.515524
    30  C   12.859635  12.770364   2.461541   2.587792   3.744136
    31  C   13.007904  12.598563   2.523411   3.444616   3.050930
    32  C   13.923091  13.852271   3.748359   3.975896   4.939919
    33  H   12.533092  12.565312   2.659589   2.318373   4.010626
    34  C   14.061535  13.693416   3.789661   4.583142   4.433615
    35  H   12.822224  12.270305   2.784694   3.843554   2.797312
    36  C   14.496424  14.291734   4.275214   4.799091   5.228369
    37  H   14.408379  14.455564   4.612472   4.645298   5.875675
    38  O   15.597420  15.411847   5.633600   6.140555   6.558110
    39  H   15.879453  15.796870   6.054889   6.413283   7.101785
    40  O   14.759608  14.274662   4.902197   5.799120   5.287898
    41  C   16.090940  15.569589   5.810635   6.683474   6.176775
    42  H   16.115923  15.551523   5.523515   6.404373   5.791371
    43  H   16.553530  15.954207   6.666884   7.594592   6.897231
    44  H   16.710678  16.281256   6.257414   7.017450   6.811719
    45  C    9.643466   9.336820   3.026191   2.648968   2.601200
    46  H   10.515198  10.310522   2.813052   2.202984   2.789735
    47  H    9.549788   9.178692   4.040971   3.697183   3.445583
    48  O    4.752199   4.696646   6.746957   6.582482   6.426976
    49  O    4.545280   3.683726   7.649223   7.712574   6.973769
    50  N    4.351374   3.916639   7.163162   7.068915   6.625058
                   26         27         28         29         30
    26  H    0.000000
    27  C    2.144033   0.000000
    28  O    2.517052   1.227934   0.000000
    29  C    2.802823   3.875139   4.851616   0.000000
    30  C    4.182245   4.955687   6.043380   1.404468   0.000000
    31  C    2.800040   4.514718   5.241260   1.408862   2.410239
    32  C    5.184500   6.244882   7.272922   2.432964   1.389287
    33  H    4.677369   4.986207   6.164266   2.156869   1.085092
    34  C    4.143190   5.897175   6.615290   2.438504   2.792159
    35  H    2.181530   4.198410   4.697869   2.176019   3.405949
    36  C    5.180568   6.652422   7.529655   2.819235   2.415058
    37  H    6.207503   7.106684   8.189089   3.416118   2.151487
    38  O    6.435391   7.993936   8.838042   4.177241   3.675130
    39  H    7.099564   8.498263   9.420938   4.625715   3.842407
    40  O    4.746940   6.728657   7.262759   3.680543   4.162273
    41  C    5.612487   7.589105   8.082206   4.604968   4.990336
    42  H    5.219578   7.138981   7.587774   4.469979   4.992221
    43  H    6.212535   8.278363   8.654679   5.519914   5.987916
    44  H    6.376827   8.244844   8.846382   4.939626   5.023777
    45  C    3.540229   1.535221   2.392411   4.477393   5.219724
    46  H    3.815220   2.171270   3.184017   4.172399   4.723694
    47  H    4.251123   2.125511   2.483399   5.493112   6.263421
    48  O    6.848236   5.907348   6.054601   7.639515   8.182142
    49  O    7.134834   6.318607   6.037260   8.592583   9.404255
    50  N    6.966343   5.915852   5.822705   8.167545   8.860852
                   31         32         33         34         35
    31  C    0.000000
    32  C    2.782255   0.000000
    33  H    3.397803   2.141394   0.000000
    34  C    1.384711   2.424987   3.877234   0.000000
    35  H    1.084253   3.866036   4.313439   2.115222   0.000000
    36  C    2.416515   1.394933   3.393332   1.411999   3.384646
    37  H    3.868897   1.086674   2.467529   3.409242   4.952596
    38  O    3.637089   2.418273   4.554696   2.371054   4.484668
    39  H    4.335123   2.463367   4.550808   3.190508   5.269513
    40  O    2.379305   3.684306   5.247233   1.371215   2.567352
    41  C    3.371139   4.385410   6.049332   2.376101   3.502085
    42  H    3.304534   4.605070   6.004410   2.672040   3.305685
    43  H    4.199514   5.379638   7.060947   3.263706   4.138838
    44  H    3.891547   4.169806   6.034455   2.696643   4.267654
    45  C    5.451612   6.599357   4.921867   6.783387   5.377999
    46  H    5.282613   6.100785   4.314078   6.543498   5.372771
    47  H    6.399199   7.640631   5.951475   7.750442   6.230161
    48  O    8.287101   9.223959   7.966868   9.318932   8.176776
    49  O    8.989873  10.448384   9.361455  10.075484   8.621768
    50  N    8.742877   9.959122   8.692623   9.854257   8.496068
                   36         37         38         39         40
    36  C    0.000000
    37  H    2.149290   0.000000
    38  O    1.359022   2.673906   0.000000
    39  H    1.921685   2.298524   0.968438   0.000000
    40  O    2.422048   4.566029   2.748777   3.709858   0.000000
    41  C    3.102391   5.148182   3.074346   3.983965   1.436943
    42  H    3.516853   5.426158   3.759944   4.612838   2.088068
    43  H    4.045104   6.127327   3.853427   4.760721   2.030610
    44  H    2.898058   4.739704   2.488784   3.280153   2.097913
    45  C    7.285402   7.293854   8.643799   9.003876   7.792103
    46  H    6.899306   6.716845   8.245264   8.533897   7.648198
    47  H    8.304960   8.333426   9.663699  10.039662   8.705722
    48  O    9.752165   9.779406  10.873029  11.188586  10.067237
    49  O   10.762608  11.152758  11.884636  12.343538  10.609964
    50  N   10.420819  10.593494  11.580305  11.965012  10.533008
                   41         42         43         44         45
    41  C    0.000000
    42  H    1.094741   0.000000
    43  H    1.089551   1.782915   0.000000
    44  H    1.091666   1.789782   1.781150   0.000000
    45  C    8.656637   8.219250   9.443132   9.185886   0.000000
    46  H    8.414327   7.940799   9.281340   8.840828   1.090029
    47  H    9.512155   9.003209  10.269963  10.078507   1.090393
    48  O   11.398956  11.447178  11.919748  11.981091   5.706657
    49  O   11.895199  11.886835  12.272376  12.627815   6.458478
    50  N   11.822827  11.796907  12.299478  12.484508   5.796935
                   46         47         48         49         50
    46  H    0.000000
    47  H    1.765578   0.000000
    48  O    6.539021   6.020686   0.000000
    49  O    7.462428   6.560198   2.165157   0.000000
    50  N    6.745214   5.921038   1.217902   1.217715   0.000000
 Stoichiometry    C21H20NO8(2)
 Framework group  C1[X(C21H20NO8)]
 Deg. of freedom   144
 Full point group                 C1      NOp   1
 Largest Abelian subgroup         C1      NOp   1
 Largest concise Abelian subgroup C1      NOp   1
                         Standard orientation:                         
 ---------------------------------------------------------------------
 Center     Atomic      Atomic             Coordinates (Angstroms)
 Number     Number       Type             X           Y           Z
 ---------------------------------------------------------------------
      1          6           0        2.211670    1.148017    0.585318
      2          1           0        1.810248    2.102099    0.257280
      3          6           0        1.457469    0.378514    1.419036
      4          1           0        1.810039   -0.586152    1.769287
      5          6           0        0.136731    0.740542    1.930178
      6          8           0       -0.458984   -0.019180    2.690556
      7          6           0        3.515480    0.857235    0.073269
      8          6           0        4.181499    1.794328   -0.705481
      9          6           0        4.213660   -0.437939    0.364066
     10          6           0        5.506370    1.624418   -1.103415
     11          1           0        3.668996    2.712471   -0.973371
     12          6           0        5.661069   -0.510894    0.013012
     13          1           0        4.048096   -0.795477    1.380446
     14          6           0        6.264593    0.499977   -0.704361
     15          1           0        5.992721    2.395940   -1.692711
     16          8           0        7.597610    0.420206   -0.994846
     17          1           0        7.876032    1.205401   -1.487345
     18          8           0        6.209609   -1.650010    0.477745
     19          6           0        7.387365   -2.233595   -0.120694
     20          1           0        8.279906   -1.668712    0.140070
     21          1           0        7.443698   -3.236665    0.297916
     22          1           0        7.276919   -2.289604   -1.203930
     23          6           0       -3.142110    0.809672    0.749414
     24          1           0       -2.785102    0.743272    1.772951
     25          6           0       -2.380011    1.454883   -0.161293
     26          1           0       -2.691223    1.534134   -1.199041
     27          6           0       -1.091756    2.092723    0.114946
     28          8           0       -0.474464    2.652852   -0.786734
     29          6           0       -4.423868    0.156340    0.520099
     30          6           0       -5.052310   -0.491693    1.596039
     31          6           0       -5.075411    0.143121   -0.728984
     32          6           0       -6.272945   -1.134779    1.432919
     33          1           0       -4.573657   -0.498059    2.569833
     34          6           0       -6.294406   -0.489827   -0.904631
     35          1           0       -4.635394    0.626747   -1.593909
     36          6           0       -6.901031   -1.147922    0.187458
     37          1           0       -6.739400   -1.642621    2.272786
     38          8           0       -8.082177   -1.782127   -0.035300
     39          1           0       -8.394703   -2.202146    0.779429
     40          8           0       -6.857120   -0.531316   -2.154375
     41          6           0       -8.040422    0.265105   -2.328486
     42          1           0       -7.820502    1.321188   -2.141989
     43          1           0       -8.342728    0.135957   -3.367262
     44          1           0       -8.845351   -0.068398   -1.670764
     45          6           0       -0.508473    2.076446    1.534953
     46          1           0       -1.287747    2.281085    2.269133
     47          1           0        0.225100    2.881625    1.585089
     48          8           0        2.773494   -2.374543    0.126647
     49          8           0        3.685765   -1.628037   -1.689501
     50          7           0        3.487885   -1.603270   -0.488227
 ---------------------------------------------------------------------
 Rotational constants (GHZ):           0.3609147           0.0457847           0.0450019
 Standard basis: 6-311+G(d) (5D, 7F)
 There are   750 symmetry adapted cartesian basis functions of A   symmetry.
 There are   720 symmetry adapted basis functions of A   symmetry.
   720 basis functions,  1180 primitive gaussians,   750 cartesian basis functions
   109 alpha electrons      108 beta electrons
       nuclear repulsion energy      2676.5843762838 Hartrees.
 NAtoms=   50 NActive=   50 NUniq=   50 SFac= 1.00D+00 NAtFMM=   60 NAOKFM=F Big=F
 Integral buffers will be    131072 words long.
 Raffenetti 2 integral format.
 Two-electron integral symmetry is turned on.
 Force inversion solution in PCM.
 Using the following non-standard input for PCM:
 Eps=7
 EpsInf=1.85341
 HbondAcidity=0
 HbondBasicity=0.48
 SurfaceTensionAtInterface=60.62
 CarbonAromaticity=0
 ElectronegativeHalogenicity=0
 --- end of non-standard input.
 Force inversion solution in PCM.
 ------------------------------------------------------------------------------
 Polarizable Continuum Model (PCM)
 =================================
 Model                : PCM.
 Atomic radii         : SMD-Coulomb.
 Polarization charges : Total charges.
 Charge compensation  : None.
 Solution method      : Matrix inversion.
 Cavity type          : VdW (van der Waals Surface) (Alpha=1.000).
 Cavity algorithm     : GePol (No added spheres)
                        Default sphere list used, NSphG=   50.
                        Lebedev-Laikov grids with approx.  5.0 points / Ang**2.
                        Smoothing algorithm: York/Karplus (Gamma=1.0000).
                        Polarization charges: spherical gaussians, with
                                              point-specific exponents (IZeta= 3).
                        Self-potential: point-specific (ISelfS= 7).
                        Self-field    : sphere-specific E.n sum rule (ISelfD= 2).
 1st derivatives      : Analytical E(r).r(x)/FMM algorithm (CHGder, D1EAlg=3).
                        Cavity 1st derivative terms included.
 2nd derivatives      : Analytical E(r).r(xy)/FMM algorithm (CHGder, D2EAlg=3).
                        Cavity 2nd derivative terms included.
 Solvent              : Generic,
                        Eps                           =   7.000000
                        Eps(infinity)                 =   1.853410
                        RSolv                         =   0.000000 Ang.
                        Molar volume                  =   0.000000 cm**3/mol
                        Thermal expansion coefficient =   0.000000 K**-1
                        Absolute temperature          = 298.150000 K
                        Numeral density               =   0.000000 Ang**-3
                        Hydrogen bond acidity         =   0.000000
                        Hydrogen bond basicity        =   0.480000
                        Surface tension at interface  =  60.620000 (cal/mol)*Ang**-2
                        Carbon aromaticity            =   0.000000
                        Electronegative halogenicity  =   0.000000
 ------------------------------------------------------------------------------
 ------------------------------------------------------------------------------
 Atomic radii for non-electrostatic terms: SMD-CDS.
 ------------------------------------------------------------------------------
 Nuclear repulsion after PCM non-electrostatic terms =     2676.5804359420 Hartrees.
 One-electron integrals computed using PRISM.
 NBasis=   720 RedAO= T EigKep=  1.07D-06  NBF=   720
 NBsUse=   716 1.00D-06 EigRej=  8.57D-07 NBFU=   716
 Initial guess from the checkpoint file:  "CURCUMIN-OPT-FREQ-Reag-1-B3LYP-6-311+G-D-363.chk"
 B after Tr=    -0.000000   -0.000000    0.000000
         Rot=    1.000000   -0.000000   -0.000000    0.000000 Ang=   0.00 deg.
 Initial guess <Sx>= 0.0000 <Sy>= 0.0000 <Sz>= 0.5000 <S**2>= 0.7858 S= 0.5177
 Requested convergence on RMS density matrix=1.00D-08 within 128 cycles.
 Requested convergence on MAX density matrix=1.00D-06.
 Requested convergence on             energy=1.00D-06.
 No special actions if energy rises.
 Inv3:  Mode=1 IEnd=    50380812.
 Iteration    1 A*A^-1 deviation from unit magnitude is 3.55D-15 for   3689.
 Iteration    1 A*A^-1 deviation from orthogonality  is 2.79D-15 for   1572      2.
 Iteration    1 A^-1*A deviation from unit magnitude is 3.33D-15 for   2626.
 Iteration    1 A^-1*A deviation from orthogonality  is 2.19D-12 for   1727   1697.
 Error on total polarization charges =  0.03974
 SCF Done:  E(UB3LYP) =  -1469.02643643     A.U. after    2 cycles
            NFock=  2  Conv=0.37D-09     -V/T= 2.0038
 <Sx>= 0.0000 <Sy>= 0.0000 <Sz>= 0.5000 <S**2>= 0.7858 S= 0.5177
 <L.S>=  0.00000000000    
 SMD-CDS (non-electrostatic) energy       (kcal/mol) =      -2.47
 (included in total energy above)
 Annihilation of the first spin contaminant:
 S**2 before annihilation     0.7858,   after     0.7508
 DoSCS=F DFT=T ScalE2(SS,OS)=  1.000000  1.000000
 Range of M.O.s used for correlation:     1   716
 NBasis=   720 NAE=   109 NBE=   108 NFC=     0 NFV=     0
 NROrb=    716 NOA=   109 NOB=   108 NVA=   607 NVB=   608

 **** Warning!!: The largest alpha MO coefficient is  0.13377780D+03


 **** Warning!!: The largest beta MO coefficient is  0.13310986D+03


 **** Warning!!: The smallest beta delta epsilon is  0.93202947D-01

 Symmetrizing basis deriv contribution to polar:
 IMax=3 JMax=2 DiffMx= 0.00D+00
 G2DrvN: will do    26 centers at a time, making    2 passes.
 Calling FoFCou, ICntrl=  3107 FMM=F I1Cent=   0 AccDes= 0.00D+00.
 Calling FoFCou, ICntrl=  3107 FMM=F I1Cent=   0 AccDes= 0.00D+00.
 NEqPCM:  Using equilibrium solvation (IEInf=0, Eps=   7.0000, EpsInf=   1.8534)
 G2PCM: DoFxE=T DoFxN=T DoGrad=T DoDP/DQ/DG/TGxP=FFFF NFrqRd=   0 IEInf=0 SqF1=F DoCFld=F IF1Alg=4.
 End of G2Drv F.D. properties file   721 does not exist.
 End of G2Drv F.D. properties file   722 does not exist.
 End of G2Drv F.D. properties file   788 does not exist.
          IDoAtm=11111111111111111111111111111111111111111111111111
 NEqPCM:  Using equilibrium solvation (IEInf=0, Eps=   7.0000, EpsInf=   1.8534)
          Differentiating once with respect to nuclear coordinates.
 CalDSu exits because no D1Ps are significant.
          There are   153 degrees of freedom in the 1st order CPHF.  IDoFFX=6 NUNeed=     0.
    150 vectors produced by pass  0 Test12= 1.32D-13 1.00D-09 XBig12= 7.42D-01 2.60D-01.
 AX will form    38 AO Fock derivatives at one time.
    148 vectors produced by pass  1 Test12= 1.32D-13 1.00D-09 XBig12= 5.85D-02 4.89D-02.
    147 vectors produced by pass  2 Test12= 1.32D-13 1.00D-09 XBig12= 2.47D-03 1.07D-02.
    147 vectors produced by pass  3 Test12= 1.32D-13 1.00D-09 XBig12= 2.98D-05 4.59D-04.
    147 vectors produced by pass  4 Test12= 1.32D-13 1.00D-09 XBig12= 2.22D-07 3.44D-05.
    145 vectors produced by pass  5 Test12= 1.32D-13 1.00D-09 XBig12= 1.84D-09 2.12D-06.
    125 vectors produced by pass  6 Test12= 1.32D-13 1.00D-09 XBig12= 1.01D-11 2.18D-07.
     93 vectors produced by pass  7 Test12= 1.32D-13 1.00D-09 XBig12= 1.11D-13 1.59D-08.
     84 vectors produced by pass  8 Test12= 1.32D-13 1.00D-09 XBig12= 6.40D-14 1.25D-08.
     79 vectors produced by pass  9 Test12= 1.32D-13 1.00D-09 XBig12= 8.22D-14 1.03D-08.
     71 vectors produced by pass 10 Test12= 1.32D-13 1.00D-09 XBig12= 6.11D-14 9.20D-09.
     69 vectors produced by pass 11 Test12= 1.32D-13 1.00D-09 XBig12= 7.89D-14 1.10D-08.
     66 vectors produced by pass 12 Test12= 1.32D-13 1.00D-09 XBig12= 7.46D-14 9.14D-09.
     58 vectors produced by pass 13 Test12= 1.32D-13 1.00D-09 XBig12= 5.38D-14 8.26D-09.
     55 vectors produced by pass 14 Test12= 1.32D-13 1.00D-09 XBig12= 4.79D-14 7.30D-09.
     54 vectors produced by pass 15 Test12= 1.32D-13 1.00D-09 XBig12= 7.42D-14 8.69D-09.
     47 vectors produced by pass 16 Test12= 1.32D-13 1.00D-09 XBig12= 4.79D-14 6.80D-09.
     45 vectors produced by pass 17 Test12= 1.32D-13 1.00D-09 XBig12= 4.27D-14 6.34D-09.
     37 vectors produced by pass 18 Test12= 1.32D-13 1.00D-09 XBig12= 3.91D-14 6.46D-09.
     26 vectors produced by pass 19 Test12= 1.32D-13 1.00D-09 XBig12= 2.61D-14 4.94D-09.
     23 vectors produced by pass 20 Test12= 1.32D-13 1.00D-09 XBig12= 3.60D-14 5.30D-09.
     22 vectors produced by pass 21 Test12= 1.32D-13 1.00D-09 XBig12= 2.17D-14 4.33D-09.
     22 vectors produced by pass 22 Test12= 1.32D-13 1.00D-09 XBig12= 3.11D-14 5.99D-09.
     19 vectors produced by pass 23 Test12= 1.32D-13 1.00D-09 XBig12= 1.70D-14 4.15D-09.
     19 vectors produced by pass 24 Test12= 1.32D-13 1.00D-09 XBig12= 3.70D-14 5.81D-09.
     19 vectors produced by pass 25 Test12= 1.32D-13 1.00D-09 XBig12= 3.75D-14 6.27D-09.
     19 vectors produced by pass 26 Test12= 1.32D-13 1.00D-09 XBig12= 3.78D-14 6.70D-09.
     11 vectors produced by pass 27 Test12= 1.32D-13 1.00D-09 XBig12= 1.44D-14 3.74D-09.
     11 vectors produced by pass 28 Test12= 1.32D-13 1.00D-09 XBig12= 2.47D-14 4.51D-09.
     11 vectors produced by pass 29 Test12= 1.32D-13 1.00D-09 XBig12= 1.21D-14 3.63D-09.
     11 vectors produced by pass 30 Test12= 1.32D-13 1.00D-09 XBig12= 3.14D-14 5.51D-09.
     11 vectors produced by pass 31 Test12= 1.32D-13 1.00D-09 XBig12= 3.13D-14 5.65D-09.
     11 vectors produced by pass 32 Test12= 1.32D-13 1.00D-09 XBig12= 2.74D-14 4.88D-09.
     11 vectors produced by pass 33 Test12= 1.32D-13 1.00D-09 XBig12= 2.29D-14 4.95D-09.
     10 vectors produced by pass 34 Test12= 1.32D-13 1.00D-09 XBig12= 2.33D-14 4.58D-09.
     10 vectors produced by pass 35 Test12= 1.32D-13 1.00D-09 XBig12= 3.31D-14 4.80D-09.
     10 vectors produced by pass 36 Test12= 1.32D-13 1.00D-09 XBig12= 2.45D-14 5.12D-09.
     10 vectors produced by pass 37 Test12= 1.32D-13 1.00D-09 XBig12= 2.81D-14 4.25D-09.
     10 vectors produced by pass 38 Test12= 1.32D-13 1.00D-09 XBig12= 2.25D-14 6.13D-09.
     10 vectors produced by pass 39 Test12= 1.32D-13 1.00D-09 XBig12= 3.54D-14 5.54D-09.
      9 vectors produced by pass 40 Test12= 1.32D-13 1.00D-09 XBig12= 1.61D-14 3.64D-09.
      9 vectors produced by pass 41 Test12= 1.32D-13 1.00D-09 XBig12= 4.36D-14 6.05D-09.
      9 vectors produced by pass 42 Test12= 1.32D-13 1.00D-09 XBig12= 2.11D-14 4.11D-09.
      9 vectors produced by pass 43 Test12= 1.32D-13 1.00D-09 XBig12= 1.67D-14 4.54D-09.
      9 vectors produced by pass 44 Test12= 1.32D-13 1.00D-09 XBig12= 2.70D-14 5.35D-09.
      9 vectors produced by pass 45 Test12= 1.32D-13 1.00D-09 XBig12= 2.15D-14 4.55D-09.
      7 vectors produced by pass 46 Test12= 1.32D-13 1.00D-09 XBig12= 1.08D-14 2.67D-09.
      7 vectors produced by pass 47 Test12= 1.32D-13 1.00D-09 XBig12= 1.93D-14 3.96D-09.
      7 vectors produced by pass 48 Test12= 1.32D-13 1.00D-09 XBig12= 1.18D-14 3.03D-09.
      7 vectors produced by pass 49 Test12= 1.32D-13 1.00D-09 XBig12= 2.43D-14 4.84D-09.
      7 vectors produced by pass 50 Test12= 1.32D-13 1.00D-09 XBig12= 1.20D-14 3.73D-09.
      7 vectors produced by pass 51 Test12= 1.32D-13 1.00D-09 XBig12= 2.40D-14 4.48D-09.
      7 vectors produced by pass 52 Test12= 1.32D-13 1.00D-09 XBig12= 3.44D-14 6.02D-09.
      7 vectors produced by pass 53 Test12= 1.32D-13 1.00D-09 XBig12= 1.46D-14 3.58D-09.
      7 vectors produced by pass 54 Test12= 1.32D-13 1.00D-09 XBig12= 3.00D-14 4.58D-09.
      7 vectors produced by pass 55 Test12= 1.32D-13 1.00D-09 XBig12= 1.65D-14 4.27D-09.
      7 vectors produced by pass 56 Test12= 1.32D-13 1.00D-09 XBig12= 2.98D-14 4.89D-09.
      7 vectors produced by pass 57 Test12= 1.32D-13 1.00D-09 XBig12= 1.87D-14 4.09D-09.
      7 vectors produced by pass 58 Test12= 1.32D-13 1.00D-09 XBig12= 2.08D-14 4.85D-09.
      5 vectors produced by pass 59 Test12= 1.32D-13 1.00D-09 XBig12= 9.23D-15 2.84D-09.
      5 vectors produced by pass 60 Test12= 1.32D-13 1.00D-09 XBig12= 2.05D-14 4.57D-09.
      5 vectors produced by pass 61 Test12= 1.32D-13 1.00D-09 XBig12= 2.84D-14 6.51D-09.
      5 vectors produced by pass 62 Test12= 1.32D-13 1.00D-09 XBig12= 1.64D-14 3.41D-09.
      5 vectors produced by pass 63 Test12= 1.32D-13 1.00D-09 XBig12= 2.84D-14 4.74D-09.
      5 vectors produced by pass 64 Test12= 1.32D-13 1.00D-09 XBig12= 1.51D-14 3.63D-09.
      5 vectors produced by pass 65 Test12= 1.32D-13 1.00D-09 XBig12= 3.34D-14 5.23D-09.
      5 vectors produced by pass 66 Test12= 1.32D-13 1.00D-09 XBig12= 2.71D-14 4.70D-09.
      5 vectors produced by pass 67 Test12= 1.32D-13 1.00D-09 XBig12= 1.42D-14 3.05D-09.
      5 vectors produced by pass 68 Test12= 1.32D-13 1.00D-09 XBig12= 1.75D-14 3.90D-09.
      5 vectors produced by pass 69 Test12= 1.32D-13 1.00D-09 XBig12= 1.87D-14 3.99D-09.
      5 vectors produced by pass 70 Test12= 1.32D-13 1.00D-09 XBig12= 2.29D-14 4.68D-09.
      5 vectors produced by pass 71 Test12= 1.32D-13 1.00D-09 XBig12= 1.94D-14 4.20D-09.
      5 vectors produced by pass 72 Test12= 1.32D-13 1.00D-09 XBig12= 2.46D-14 4.14D-09.
      5 vectors produced by pass 73 Test12= 1.32D-13 1.00D-09 XBig12= 2.48D-14 4.48D-09.
      5 vectors produced by pass 74 Test12= 1.32D-13 1.00D-09 XBig12= 1.70D-14 5.21D-09.
      5 vectors produced by pass 75 Test12= 1.32D-13 1.00D-09 XBig12= 2.56D-14 4.39D-09.
      5 vectors produced by pass 76 Test12= 1.32D-13 1.00D-09 XBig12= 1.60D-14 3.66D-09.
      4 vectors produced by pass 77 Test12= 1.32D-13 1.00D-09 XBig12= 1.12D-14 3.25D-09.
      4 vectors produced by pass 78 Test12= 1.32D-13 1.00D-09 XBig12= 1.18D-14 2.63D-09.
      4 vectors produced by pass 79 Test12= 1.32D-13 1.00D-09 XBig12= 1.50D-14 3.83D-09.
      4 vectors produced by pass 80 Test12= 1.32D-13 1.00D-09 XBig12= 8.95D-15 3.04D-09.
      4 vectors produced by pass 81 Test12= 1.32D-13 1.00D-09 XBig12= 2.24D-14 4.37D-09.
      4 vectors produced by pass 82 Test12= 1.32D-13 1.00D-09 XBig12= 1.03D-14 2.75D-09.
      4 vectors produced by pass 83 Test12= 1.32D-13 1.00D-09 XBig12= 2.12D-14 4.76D-09.
      4 vectors produced by pass 84 Test12= 1.32D-13 1.00D-09 XBig12= 1.89D-14 3.78D-09.
      4 vectors produced by pass 85 Test12= 1.32D-13 1.00D-09 XBig12= 1.43D-14 3.76D-09.
      4 vectors produced by pass 86 Test12= 1.32D-13 1.00D-09 XBig12= 1.67D-14 3.97D-09.
      4 vectors produced by pass 87 Test12= 1.32D-13 1.00D-09 XBig12= 1.28D-14 2.88D-09.
      4 vectors produced by pass 88 Test12= 1.32D-13 1.00D-09 XBig12= 1.79D-14 3.80D-09.
      4 vectors produced by pass 89 Test12= 1.32D-13 1.00D-09 XBig12= 1.08D-14 3.18D-09.
      4 vectors produced by pass 90 Test12= 1.32D-13 1.00D-09 XBig12= 1.62D-14 3.93D-09.
      4 vectors produced by pass 91 Test12= 1.32D-13 1.00D-09 XBig12= 1.62D-14 3.58D-09.
      4 vectors produced by pass 92 Test12= 1.32D-13 1.00D-09 XBig12= 1.04D-14 3.00D-09.
      4 vectors produced by pass 93 Test12= 1.32D-13 1.00D-09 XBig12= 1.35D-14 3.39D-09.
      4 vectors produced by pass 94 Test12= 1.32D-13 1.00D-09 XBig12= 3.60D-14 5.06D-09.
      4 vectors produced by pass 95 Test12= 1.32D-13 1.00D-09 XBig12= 1.56D-14 3.45D-09.
      4 vectors produced by pass 96 Test12= 1.32D-13 1.00D-09 XBig12= 2.70D-14 4.72D-09.
      4 vectors produced by pass 97 Test12= 1.32D-13 1.00D-09 XBig12= 1.54D-14 3.24D-09.
      4 vectors produced by pass 98 Test12= 1.32D-13 1.00D-09 XBig12= 1.60D-14 3.92D-09.
      4 vectors produced by pass 99 Test12= 1.32D-13 1.00D-09 XBig12= 1.54D-14 4.41D-09.
      4 vectors produced by pass100 Test12= 1.32D-13 1.00D-09 XBig12= 1.75D-14 3.52D-09.
      4 vectors produced by pass101 Test12= 1.32D-13 1.00D-09 XBig12= 1.07D-14 3.42D-09.
      4 vectors produced by pass102 Test12= 1.32D-13 1.00D-09 XBig12= 1.16D-14 2.86D-09.
      4 vectors produced by pass103 Test12= 1.32D-13 1.00D-09 XBig12= 1.72D-14 4.13D-09.
      4 vectors produced by pass104 Test12= 1.32D-13 1.00D-09 XBig12= 1.31D-14 3.92D-09.
      4 vectors produced by pass105 Test12= 1.32D-13 1.00D-09 XBig12= 1.38D-14 3.37D-09.
      4 vectors produced by pass106 Test12= 1.32D-13 1.00D-09 XBig12= 9.08D-15 3.03D-09.
      3 vectors produced by pass107 Test12= 1.32D-13 1.00D-09 XBig12= 5.37D-15 2.29D-09.
      3 vectors produced by pass108 Test12= 1.32D-13 1.00D-09 XBig12= 1.50D-14 3.39D-09.
      3 vectors produced by pass109 Test12= 1.32D-13 1.00D-09 XBig12= 1.96D-14 3.86D-09.
      3 vectors produced by pass110 Test12= 1.32D-13 1.00D-09 XBig12= 9.86D-15 3.24D-09.
      3 vectors produced by pass111 Test12= 1.32D-13 1.00D-09 XBig12= 2.59D-14 5.98D-09.
      3 vectors produced by pass112 Test12= 1.32D-13 1.00D-09 XBig12= 9.44D-15 3.03D-09.
      3 vectors produced by pass113 Test12= 1.32D-13 1.00D-09 XBig12= 2.37D-14 4.94D-09.
      3 vectors produced by pass114 Test12= 1.32D-13 1.00D-09 XBig12= 1.10D-14 3.41D-09.
      3 vectors produced by pass115 Test12= 1.32D-13 1.00D-09 XBig12= 1.80D-14 3.99D-09.
      3 vectors produced by pass116 Test12= 1.32D-13 1.00D-09 XBig12= 1.02D-14 2.70D-09.
      3 vectors produced by pass117 Test12= 1.32D-13 1.00D-09 XBig12= 1.07D-14 3.26D-09.
      3 vectors produced by pass118 Test12= 1.32D-13 1.00D-09 XBig12= 1.40D-14 3.23D-09.
      3 vectors produced by pass119 Test12= 1.32D-13 1.00D-09 XBig12= 2.03D-14 4.15D-09.
      3 vectors produced by pass120 Test12= 1.32D-13 1.00D-09 XBig12= 8.88D-15 2.79D-09.
      3 vectors produced by pass121 Test12= 1.32D-13 1.00D-09 XBig12= 1.38D-14 3.56D-09.
      3 vectors produced by pass122 Test12= 1.32D-13 1.00D-09 XBig12= 1.70D-14 4.33D-09.
      3 vectors produced by pass123 Test12= 1.32D-13 1.00D-09 XBig12= 8.45D-15 2.72D-09.
      3 vectors produced by pass124 Test12= 1.32D-13 1.00D-09 XBig12= 1.37D-14 3.08D-09.
      3 vectors produced by pass125 Test12= 1.32D-13 1.00D-09 XBig12= 1.72D-14 4.15D-09.
      3 vectors produced by pass126 Test12= 1.32D-13 1.00D-09 XBig12= 6.56D-15 2.71D-09.
      3 vectors produced by pass127 Test12= 1.32D-13 1.00D-09 XBig12= 1.82D-14 3.73D-09.
      3 vectors produced by pass128 Test12= 1.32D-13 1.00D-09 XBig12= 2.13D-14 4.75D-09.
      3 vectors produced by pass129 Test12= 1.32D-13 1.00D-09 XBig12= 5.66D-15 2.33D-09.
      3 vectors produced by pass130 Test12= 1.32D-13 1.00D-09 XBig12= 1.42D-14 3.30D-09.
      3 vectors produced by pass131 Test12= 1.32D-13 1.00D-09 XBig12= 1.72D-14 3.99D-09.
      3 vectors produced by pass132 Test12= 1.32D-13 1.00D-09 XBig12= 1.54D-14 3.42D-09.
      3 vectors produced by pass133 Test12= 1.32D-13 1.00D-09 XBig12= 2.08D-14 5.55D-09.
      3 vectors produced by pass134 Test12= 1.32D-13 1.00D-09 XBig12= 3.80D-14 5.37D-09.
      3 vectors produced by pass135 Test12= 1.32D-13 1.00D-09 XBig12= 1.56D-14 3.63D-09.
      3 vectors produced by pass136 Test12= 1.32D-13 1.00D-09 XBig12= 1.36D-14 3.42D-09.
      3 vectors produced by pass137 Test12= 1.32D-13 1.00D-09 XBig12= 1.04D-14 3.11D-09.
      3 vectors produced by pass138 Test12= 1.32D-13 1.00D-09 XBig12= 1.74D-14 3.55D-09.
      3 vectors produced by pass139 Test12= 1.32D-13 1.00D-09 XBig12= 1.30D-14 3.66D-09.
      3 vectors produced by pass140 Test12= 1.32D-13 1.00D-09 XBig12= 1.83D-14 3.75D-09.
      3 vectors produced by pass141 Test12= 1.32D-13 1.00D-09 XBig12= 1.09D-14 3.05D-09.
      3 vectors produced by pass142 Test12= 1.32D-13 1.00D-09 XBig12= 1.47D-14 3.29D-09.
      3 vectors produced by pass143 Test12= 1.32D-13 1.00D-09 XBig12= 1.40D-14 3.31D-09.
      3 vectors produced by pass144 Test12= 1.32D-13 1.00D-09 XBig12= 1.57D-14 3.60D-09.
      3 vectors produced by pass145 Test12= 1.32D-13 1.00D-09 XBig12= 1.34D-14 3.06D-09.
      3 vectors produced by pass146 Test12= 1.32D-13 1.00D-09 XBig12= 1.01D-14 2.86D-09.
      3 vectors produced by pass147 Test12= 1.32D-13 1.00D-09 XBig12= 1.33D-14 3.50D-09.
      3 vectors produced by pass148 Test12= 1.32D-13 1.00D-09 XBig12= 2.44D-14 4.54D-09.
      3 vectors produced by pass149 Test12= 1.32D-13 1.00D-09 XBig12= 1.51D-14 3.94D-09.
      3 vectors produced by pass150 Test12= 1.32D-13 1.00D-09 XBig12= 8.65D-15 2.75D-09.
      3 vectors produced by pass151 Test12= 1.32D-13 1.00D-09 XBig12= 7.83D-15 2.22D-09.
      3 vectors produced by pass152 Test12= 1.32D-13 1.00D-09 XBig12= 9.96D-15 2.94D-09.
      3 vectors produced by pass153 Test12= 1.32D-13 1.00D-09 XBig12= 7.35D-15 2.32D-09.
      3 vectors produced by pass154 Test12= 1.32D-13 1.00D-09 XBig12= 1.32D-14 3.97D-09.
      3 vectors produced by pass155 Test12= 1.32D-13 1.00D-09 XBig12= 7.49D-15 2.42D-09.
      3 vectors produced by pass156 Test12= 1.32D-13 1.00D-09 XBig12= 1.16D-14 2.73D-09.
      3 vectors produced by pass157 Test12= 1.32D-13 1.00D-09 XBig12= 2.25D-14 4.40D-09.
      3 vectors produced by pass158 Test12= 1.32D-13 1.00D-09 XBig12= 9.99D-15 2.70D-09.
      3 vectors produced by pass159 Test12= 1.32D-13 1.00D-09 XBig12= 1.62D-14 3.93D-09.
      3 vectors produced by pass160 Test12= 1.32D-13 1.00D-09 XBig12= 1.33D-14 4.06D-09.
      3 vectors produced by pass161 Test12= 1.32D-13 1.00D-09 XBig12= 1.32D-14 3.20D-09.
      3 vectors produced by pass162 Test12= 1.32D-13 1.00D-09 XBig12= 1.87D-14 3.93D-09.
      3 vectors produced by pass163 Test12= 1.32D-13 1.00D-09 XBig12= 1.02D-14 2.98D-09.
      3 vectors produced by pass164 Test12= 1.32D-13 1.00D-09 XBig12= 1.36D-14 3.21D-09.
      3 vectors produced by pass165 Test12= 1.32D-13 1.00D-09 XBig12= 2.84D-14 4.44D-09.
      3 vectors produced by pass166 Test12= 1.32D-13 1.00D-09 XBig12= 1.20D-14 2.99D-09.
      3 vectors produced by pass167 Test12= 1.32D-13 1.00D-09 XBig12= 1.38D-14 3.65D-09.
      3 vectors produced by pass168 Test12= 1.32D-13 1.00D-09 XBig12= 1.26D-14 3.54D-09.
      3 vectors produced by pass169 Test12= 1.32D-13 1.00D-09 XBig12= 8.44D-15 2.77D-09.
      3 vectors produced by pass170 Test12= 1.32D-13 1.00D-09 XBig12= 1.19D-14 3.24D-09.
      3 vectors produced by pass171 Test12= 1.32D-13 1.00D-09 XBig12= 1.67D-14 3.76D-09.
      3 vectors produced by pass172 Test12= 1.32D-13 1.00D-09 XBig12= 1.16D-14 2.96D-09.
      3 vectors produced by pass173 Test12= 1.32D-13 1.00D-09 XBig12= 1.88D-14 3.97D-09.
      3 vectors produced by pass174 Test12= 1.32D-13 1.00D-09 XBig12= 9.88D-15 2.84D-09.
      3 vectors produced by pass175 Test12= 1.32D-13 1.00D-09 XBig12= 1.39D-14 3.24D-09.
      3 vectors produced by pass176 Test12= 1.32D-13 1.00D-09 XBig12= 8.94D-15 2.58D-09.
      3 vectors produced by pass177 Test12= 1.32D-13 1.00D-09 XBig12= 1.42D-14 3.36D-09.
      3 vectors produced by pass178 Test12= 1.32D-13 1.00D-09 XBig12= 8.43D-15 2.57D-09.
      3 vectors produced by pass179 Test12= 1.32D-13 1.00D-09 XBig12= 2.20D-14 3.64D-09.
      3 vectors produced by pass180 Test12= 1.32D-13 1.00D-09 XBig12= 1.71D-14 3.68D-09.
      3 vectors produced by pass181 Test12= 1.32D-13 1.00D-09 XBig12= 9.16D-15 2.67D-09.
      3 vectors produced by pass182 Test12= 1.32D-13 1.00D-09 XBig12= 1.45D-14 3.34D-09.
      3 vectors produced by pass183 Test12= 1.32D-13 1.00D-09 XBig12= 8.42D-15 2.57D-09.
      3 vectors produced by pass184 Test12= 1.32D-13 1.00D-09 XBig12= 9.14D-15 2.86D-09.
      3 vectors produced by pass185 Test12= 1.32D-13 1.00D-09 XBig12= 1.20D-14 3.08D-09.
      3 vectors produced by pass186 Test12= 1.32D-13 1.00D-09 XBig12= 7.20D-15 2.32D-09.
      3 vectors produced by pass187 Test12= 1.32D-13 1.00D-09 XBig12= 9.57D-15 2.61D-09.
      3 vectors produced by pass188 Test12= 1.32D-13 1.00D-09 XBig12= 1.65D-14 4.12D-09.
      3 vectors produced by pass189 Test12= 1.32D-13 1.00D-09 XBig12= 9.86D-15 2.83D-09.
      3 vectors produced by pass190 Test12= 1.32D-13 1.00D-09 XBig12= 1.30D-14 3.37D-09.
      3 vectors produced by pass191 Test12= 1.32D-13 1.00D-09 XBig12= 9.46D-15 2.74D-09.
      3 vectors produced by pass192 Test12= 1.32D-13 1.00D-09 XBig12= 1.22D-14 3.01D-09.
      3 vectors produced by pass193 Test12= 1.32D-13 1.00D-09 XBig12= 6.21D-15 2.57D-09.
      3 vectors produced by pass194 Test12= 1.32D-13 1.00D-09 XBig12= 1.35D-14 3.45D-09.
      3 vectors produced by pass195 Test12= 1.32D-13 1.00D-09 XBig12= 5.71D-15 2.34D-09.
      3 vectors produced by pass196 Test12= 1.32D-13 1.00D-09 XBig12= 1.32D-14 3.23D-09.
      3 vectors produced by pass197 Test12= 1.32D-13 1.00D-09 XBig12= 1.10D-14 2.97D-09.
      3 vectors produced by pass198 Test12= 1.32D-13 1.00D-09 XBig12= 1.24D-14 3.48D-09.
      3 vectors produced by pass199 Test12= 1.32D-13 1.00D-09 XBig12= 1.17D-14 2.97D-09.
      3 vectors produced by pass200 Test12= 1.32D-13 1.00D-09 XBig12= 7.40D-15 2.66D-09.
      3 vectors produced by pass201 Test12= 1.32D-13 1.00D-09 XBig12= 7.49D-15 2.48D-09.
      3 vectors produced by pass202 Test12= 1.32D-13 1.00D-09 XBig12= 9.87D-15 2.67D-09.
      3 vectors produced by pass203 Test12= 1.32D-13 1.00D-09 XBig12= 7.83D-15 2.46D-09.
      3 vectors produced by pass204 Test12= 1.32D-13 1.00D-09 XBig12= 1.35D-14 3.79D-09.
      3 vectors produced by pass205 Test12= 1.32D-13 1.00D-09 XBig12= 1.02D-14 3.14D-09.
      3 vectors produced by pass206 Test12= 1.32D-13 1.00D-09 XBig12= 1.90D-14 3.89D-09.
      3 vectors produced by pass207 Test12= 1.32D-13 1.00D-09 XBig12= 1.00D-14 2.86D-09.
      3 vectors produced by pass208 Test12= 1.32D-13 1.00D-09 XBig12= 9.66D-15 2.83D-09.
      3 vectors produced by pass209 Test12= 1.32D-13 1.00D-09 XBig12= 1.27D-14 3.11D-09.
      3 vectors produced by pass210 Test12= 1.32D-13 1.00D-09 XBig12= 6.09D-15 2.25D-09.
      3 vectors produced by pass211 Test12= 1.32D-13 1.00D-09 XBig12= 1.43D-14 3.48D-09.
      3 vectors produced by pass212 Test12= 1.32D-13 1.00D-09 XBig12= 1.17D-14 3.53D-09.
      3 vectors produced by pass213 Test12= 1.32D-13 1.00D-09 XBig12= 1.67D-14 3.38D-09.
      3 vectors produced by pass214 Test12= 1.32D-13 1.00D-09 XBig12= 7.49D-15 2.27D-09.
      3 vectors produced by pass215 Test12= 1.32D-13 1.00D-09 XBig12= 7.32D-15 2.63D-09.
      3 vectors produced by pass216 Test12= 1.32D-13 1.00D-09 XBig12= 4.48D-15 2.07D-09.
      3 vectors produced by pass217 Test12= 1.32D-13 1.00D-09 XBig12= 1.98D-14 3.57D-09.
[...]
 352,0.00004228,-0.00002408,0.00003561,-0.00000657,0.00006717,-0.000038
 09,0.00000674,-0.00003803,0.00000642,0.00000077,-0.00000355,-0.0000127
 3,-0.00004170,0.00002499,0.00000081,0.00001252,-0.00000915,0.00005340,
 0.00002517,0.00002029,-0.00000132,-0.00000148,-0.00000090,-0.00006269,
 -0.00003068,-0.00001673,0.00000754,0.00000787,-0.00000554,-0.00001704,
 0.00001016,-0.00002196,0.00001253,-0.00000868,0.00000071,-0.00000079,0
 .00000275,0.00000187,-0.00000210,0.00000162,-0.00000226,-0.00000050,-0
 .00000103,0.00000118,-0.12613056,-0.17228860,-0.05949694,0.00039767,0.
 00005090,0.00051654,0.13365889,0.18758667,0.00033964,-0.00120858,-0.00
 009894,0.00111365,-0.00043718,-0.00118819,0.00045176,0.00041316,0.0000
 3090,-0.00002623,0.00006623,0.00012223,-0.00145705,0.00042809,-0.00143
 888,-0.00065021,0.00055683,0.00038450,0.00008231,0.00028568,-0.0001418
 1,-0.00005236,-0.00007634,0.00003690,-0.00010736,0.00000857,0.00003680
 ,0.00003879,-0.00003527,-0.00001351,0.00001622,0.00000856,-0.00000328,
 0.00000490,-0.00007450,0.00001387,0.00000954,0.00000239,0.00001527,0.0
 0005418,0.00008051,-0.00002333,-0.00000754,-0.00000725,0.00000550,-0.0
 0005922,-0.00001352,0.00001375,0.00000667,0.00000536,0.00000208,-0.000
 06957,0.00009666,0.00000242,0.00003407,-0.00001034,-0.00001743,-0.0000
 0417,-0.00000044,0.00000431,-0.00000392,0.00000260,0.00000235,-0.00000
 442,0.00000038,0.00000329,0.00093655,0.00079275,-0.00040451,-0.0000206
 9,-0.00014737,0.00029270,-0.00103691,0.00280330,-0.00352179,-0.0012445
 7,-0.00013948,-0.00017718,-0.02353648,-0.02019082,-0.01352448,0.001296
 77,-0.00078824,0.00425314,-0.00006643,-0.00024562,0.00012290,0.0000064
 5,0.00004795,-0.00003721,0.00004991,0.00002764,0.00000382,-0.00004603,
 -0.00001726,-0.00003820,-0.00000036,-0.00001035,0.00000431,-0.00000817
 ,-0.00008411,0.00007025,0.00000414,-0.00000150,0.00004076,0.00006791,0
 .00003710,0.00001268,-0.00000667,-0.00000536,0.00000288,-0.00008816,-0
 .00004094,-0.00002263,0.00000214,0.00000769,-0.00000305,-0.00001897,0.
 00001915,-0.00002094,0.00001704,-0.00001143,0.00000134,-0.00000032,0.0
 0000129,0.00000030,-0.00000181,0.00000198,-0.00000102,-0.00000094,-0.0
 0000086,0.00000166,-0.04522320,-0.05458673,-0.06778414,0.01355647,0.01
 640075,0.00840169,0.05566865,0.05604041,0.07459842,-0.00331482,-0.0014
 9343,0.00155023,0.00023699,0.00010436,-0.00013643,0.00279878,-0.000484
 87,0.00064605,0.00008344,0.00085094,-0.00094809,-0.00220756,0.00056785
 ,0.00094976,0.00113176,0.00101006,-0.00057319,-0.00342350,-0.00211904,
 -0.00277579,0.00108373,-0.00083146,-0.00100937,-0.00206356,-0.02577799
 ,0.00372282,-0.00031825,-0.00048664,-0.00008737,-0.00003729,-0.0003175
 2,0.00040946,0.00110392,-0.00275811,-0.00176783,0.00009362,0.00054352,
 0.00075722,0.00087761,0.00061171,-0.00027913,-0.00009342,-0.00005823,-
 0.00001316,-0.00113482,-0.00032738,0.00046325,0.00013821,0.00010947,0.
 00001554,-0.00173858,0.00197212,0.00014058,0.00067764,-0.00022890,-0.0
 0023686,-0.00006666,0.00000002,0.00003077,-0.00012483,0.00010068,0.000
 04776,-0.00010129,0.00000358,0.00006914,-0.00004198,0.00001139,-0.0001
 4888,-0.00001814,-0.00001702,-0.00000624,0.00007024,0.00010863,0.00020
 153,0.00002783,-0.00002205,0.00001427,-0.00023022,-0.00001344,-0.00032
 149,0.00008521,0.00000102,0.00008050,0.00006760,0.00002690,0.00008333,
 -0.00001574,0.00009382,0.00010512,-0.00002742,0.00000740,-0.00002133,-
 0.00004953,-0.00015333,-0.00002896,-0.00000509,-0.00001273,-0.00001752
 ,0.00003546,-0.00004754,-0.00001590,0.00000717,-0.00001464,-0.00000262
 ,0.00003937,0.00009463,-0.00004328,0.00000973,-0.00000752,-0.00000402,
 -0.00001953,0.00003792,-0.00001107,0.00000921,-0.00001342,-0.00000275,
 -0.00001503,0.00000885,0.00000764,0.00003422,-0.00003813,0.00002105,0.
 00000133,0.00000913,0.00000443,-0.00000677,0.00000380,0.00000174,-0.00
 000502,0.00000223,-0.00000318,-0.00010309,-0.00022208,0.00009643,-0.00
 002695,0.00005335,-0.00002408,0.00002805,-0.00002482,-0.00000710,0.245
 15659,-0.00262682,-0.00109069,0.00132429,0.00020098,0.00003055,-0.0000
 8558,0.00288654,0.00015139,-0.00126812,-0.00000633,-0.00049325,-0.0010
 7368,-0.00224575,0.00004906,0.00118642,0.00117135,0.00108257,-0.000729
 86,0.00021749,0.00329286,-0.00120703,-0.00149905,-0.00154568,0.0009210
 0,-0.02596013,-0.01401741,0.00527108,0.00118115,0.00030266,-0.00077166
 ,0.00005778,-0.00018708,0.00024028,0.00060567,-0.00626888,-0.00421869,
 -0.00003643,0.00063658,-0.00081906,0.00027523,0.00143652,-0.00102307,-
 0.00009106,-0.00011974,-0.00003200,-0.00200432,-0.00075167,0.00095457,
 0.00010059,0.00023124,0.00017932,-0.00007630,0.00131113,0.00051035,0.0
 0041079,-0.00017099,0.00001620,0.00000313,-0.00000733,-0.00001763,-0.0
 0015875,0.00011865,0.00003598,0.00001079,-0.00000201,-0.00004510,-0.00
 012480,-0.00011515,0.00005600,-0.00004625,-0.00001447,-0.00000138,0.00
 019501,0.00016111,0.00004128,0.00002320,-0.00000490,0.00001680,-0.0003
 6479,-0.00005463,-0.00035915,0.00016712,0.00001301,0.00007051,0.000059
 56,0.00002988,0.00000191,-0.00004580,-0.00006001,0.00000650,-0.0000212
 2,0.00002615,-0.00002798,0.00005173,0.00007172,0.00006952,0.00001003,-
 0.00002139,-0.00001159,0.00002700,0.00003881,0.00000025,0.00000340,-0.
 00001342,-0.00000767,-0.00003059,-0.00004872,-0.00000802,0.00000504,-0
 .00001254,0.00000379,0.00005077,0.00004008,0.00001544,-0.00000067,-0.0
 0002545,0.00000713,-0.00001761,0.00002735,-0.00001586,0.00000945,-0.00
 000785,-0.00001044,-0.00000169,-0.00000176,-0.00000047,0.00000181,-0.0
 0000368,0.00000308,-0.00000144,0.00000150,0.00000018,0.00005338,-0.000
 21855,0.00014023,0.00002348,0.00001119,-0.00002191,0.00000621,-0.00002
 609,0.00001801,0.28878344,0.39337116,-0.00013944,-0.00041306,0.0005204
 1,0.00015768,-0.00010375,0.00015447,0.00079513,0.00103274,-0.00194973,
 0.00039388,-0.00140725,0.00030318,-0.00092964,-0.00057712,0.00049996,0
 .00048127,0.00031582,-0.00027290,-0.00128922,0.00044446,-0.00077409,0.
 00002412,-0.00116390,0.00048833,-0.01176019,-0.01171765,0.01018436,0.0
 0090710,-0.00062252,-0.00012458,-0.00006405,-0.00027229,0.00013674,-0.
 00133240,-0.00455817,-0.00192253,-0.00060758,-0.00189957,0.00344721,-0
 .00051575,0.00234625,-0.00004020,-0.00006363,-0.00006555,-0.00003857,-
 0.00107138,-0.00072747,0.00045736,-0.00007954,0.00006724,0.00001019,-0
 .00071412,0.00049871,0.00028538,0.00034024,-0.00016238,-0.00049513,-0.
 00008365,-0.00000040,0.00009056,-0.00004806,0.00005731,0.00004106,-0.0
 0010289,-0.00003585,0.00012608,-0.00003773,-0.00008208,0.00011537,-0.0
 0004221,-0.00000459,0.00000249,0.00007956,0.00007708,-0.00005539,0.000
 02715,-0.00000211,0.00001194,-0.00019713,0.00002357,-0.00037255,0.0000
 7907,-0.00007055,0.00018502,0.00001091,-0.00000106,-0.00003430,-0.0000
 1469,-0.00008309,-0.00006831,0.00000895,0.00001963,-0.00000041,0.00006
 029,0.00013604,0.00005358,0.00000655,-0.00000208,0.00000651,-0.0000068
 2,0.00006416,-0.00000162,-0.00000044,-0.00000715,-0.00000686,-0.000050
 00,-0.00009197,0.00001903,-0.00000185,0.00000216,-0.00000165,0.0000419
 5,-0.00000349,0.00003089,0.00000044,0.00000071,-0.00000319,-0.00000156
 ,0.00000288,0.00001172,-0.00000692,0.00001268,-0.00002025,-0.00000139,
 -0.00000173,-0.00000220,0.00000600,-0.00000356,-0.00000089,0.00000016,
 -0.00000255,0.00000357,0.00032074,-0.00014559,0.00005401,0.00006677,-0
 .00005878,-0.00000136,-0.00001470,0.00000499,0.00002879,-0.08678040,-0
 .12313644,0.16186178,-0.00131735,-0.00073361,0.00061177,0.00009326,0.0
 0000576,-0.00003218,0.00113942,-0.00007196,-0.00052614,0.00002061,-0.0
 0006888,-0.00024427,-0.00117157,-0.00001559,0.00049851,0.00057816,0.00
 052332,-0.00031373,-0.00011268,-0.00151850,-0.00179838,0.00085641,-0.0
 0005374,-0.00025557,0.01427852,0.00160691,-0.00834108,-0.00085676,0.00
 075424,-0.00005559,0.00007328,-0.00007452,0.00019050,0.00135149,0.0009
 7767,-0.00086245,-0.00057197,-0.00148180,-0.00325109,0.00123071,-0.000
 74794,-0.00143531,-0.00005470,-0.00005717,0.00002115,-0.00072239,0.000
 04578,0.00041397,0.00009637,0.00007732,-0.00011964,-0.00077494,0.00010
 523,-0.00017320,0.00061669,-0.00020950,-0.00015150,-0.00008587,-0.0000
 1113,-0.00000609,-0.00005390,0.00007049,0.00001303,0.00004235,0.000013
 61,-0.00006564,-0.00001163,-0.00000130,-0.00005734,-0.00001588,-0.0000
 0693,-0.00000170,0.00002599,0.00005438,0.00008660,0.00002209,-0.000012
 41,0.00000813,-0.00011443,0.00002265,-0.00025897,0.00002758,-0.0000302
 4,0.00011024,0.00002627,0.00001185,0.00003995,-0.00000255,0.00003720,0
 .00003539,-0.00000883,0.00000572,-0.00000475,-0.00002131,-0.00005530,-
 0.00001533,-0.00000323,-0.00000393,-0.00000679,0.00001404,-0.00001452,
 -0.00000532,0.00000338,-0.00000782,-0.00000259,0.00001382,0.00003238,-
 0.00001597,0.00000570,0.00000029,-0.00000486,-0.00000953,0.00001179,0.
 00000092,0.00000753,-0.00000170,-0.00000480,-0.00000860,0.00000199,0.0
 0000866,0.00001786,-0.00001830,0.00000797,0.00000045,0.00000599,0.0000
 0280,-0.00000287,0.00000203,-0.00000111,-0.00000254,0.00000012,-0.0000
 0033,0.00009218,-0.00014102,0.00007625,0.00000613,0.00000379,-0.000009
 81,0.00001118,-0.00000218,0.00000399,-0.00126123,-0.03589699,0.0620593
 3,0.08094856,-0.00073869,0.00007734,0.00046155,0.00006192,0.00002598,-
 0.00013140,0.00078721,-0.00035928,0.00042687,0.00000072,0.00017158,-0.
 00076954,-0.00058336,0.00026585,0.00036140,0.00035371,0.00030622,-0.00
 021568,-0.00037111,0.00166785,-0.00024459,-0.00004858,0.00040514,0.000
 00859,-0.00020156,0.01465762,-0.00698529,-0.00008872,0.00152379,-0.000
 55215,0.00004147,-0.00003831,-0.00003338,-0.00047487,-0.00057414,-0.00
 181232,-0.00207905,-0.00123201,-0.00373168,0.00079554,-0.00084650,-0.0
 0095203,-0.00006516,-0.00004574,-0.00001607,-0.00122759,-0.00003582,0.
 00057182,0.00006250,0.00013080,0.00000845,0.00058475,-0.00057475,0.000
 46103,-0.00009360,-0.00008215,-0.00008443,-0.00001289,-0.00001196,0.00
 002259,-0.00002511,0.00003559,-0.00001004,-0.00000020,-0.00002737,-0.0
 0001122,-0.00002995,-0.00007930,0.00014710,-0.00002095,0.00000365,-0.0
 0001202,0.00006049,0.00006112,-0.00010176,-0.00000087,0.00000139,-0.00
 000749,-0.00018907,-0.00014919,0.00006953,0.00012941,0.00009917,-0.000
 08331,-0.00000083,-0.00000669,-0.00005419,-0.00001263,-0.00008693,-0.0
 0008113,0.00000827,0.00000260,0.00002494,0.00006126,0.00018186,0.00004
 083,0.00001013,-0.00000393,-0.00000474,-0.00000181,0.00005318,0.000044
 53,-0.00000040,-0.00000086,-0.00000633,-0.00003866,-0.00010905,0.00003
 948,0.00000496,0.00000569,-0.00000670,0.00002131,-0.00001516,0.0000265
 4,0.00000988,0.00000389,-0.00000583,-0.00002303,0.00002479,-0.00003262
 ,0.00000251,0.00000319,-0.00002224,-0.00000411,0.00000171,0.00000364,0
 .00000149,-0.00000341,-0.00000731,0.00000213,-0.00000132,0.00000510,-0
 .00011522,-0.00000433,-0.00001021,0.00000213,0.00000832,-0.00000057,0.
 00001231,-0.00001905,0.00001318,-0.03241766,-0.02969443,0.08165828,0.0
 7875406,0.14032918,-0.00060385,-0.00167462,0.00055020,0.00017148,-0.00
 012699,-0.00011380,0.00115175,0.00065227,-0.00131552,-0.00021506,-0.00
 023434,0.00089242,-0.00176882,-0.00021889,0.00082760,0.00086946,0.0005
 1022,-0.00049430,-0.00153340,0.00274183,-0.00088302,0.00041264,-0.0015
 3339,0.00004722,0.00261946,0.01167052,-0.03689314,0.00083484,-0.001410
 70,-0.00020393,0.00000886,-0.00034105,0.00031368,0.00415487,-0.0046495
 5,-0.00107394,-0.00354686,-0.00447426,-0.00573290,0.00087786,0.0036972
 1,-0.00042345,-0.00010473,-0.00011926,0.00006395,-0.00226234,-0.000950
 07,0.00074793,0.00001976,0.00019271,-0.00009322,-0.00240571,0.00354001
 ,0.00089093,0.00070133,-0.00033524,-0.00102664,-0.00014622,0.00002001,
 0.00024404,-0.00014064,0.00010483,0.00008217,-0.00035809,-0.00007294,0
 .00035356,-0.00006460,-0.00006464,-0.00000472,-0.00005583,-0.00001341,
 0.00001966,0.00011291,0.00010704,0.00006175,0.00004872,-0.00000794,0.0
 0003333,-0.00021752,0.00019214,-0.00072542,0.00001588,-0.00020077,0.00
 038522,0.00004622,0.00001874,0.00002349,-0.00001924,-0.00003192,0.0000
 0413,-0.00000408,0.00003342,-0.00004191,0.00002673,-0.00000576,0.00004
 968,-0.00000065,-0.00000483,0.00001127,-0.00000030,0.00004833,-0.00006
 410,0.00000094,-0.00001480,-0.00000561,-0.00004716,-0.00002394,-0.0000
 2763,-0.00000544,-0.00000559,0.00000427,0.00006229,0.00003331,0.000023
 68,-0.00001102,-0.00001179,0.00000221,0.00002605,-0.00002084,0.0000633
 2,-0.00001137,0.00000982,-0.00000569,0.00000287,-0.00000299,-0.0000068
 5,0.00000713,-0.00000233,0.00000809,-0.00000308,-0.00000169,-0.0000014
 3,0.00039152,-0.00034798,0.00018656,0.00006147,-0.00003356,-0.00001105
 ,-0.00001278,0.00001245,0.00002268,0.04882537,0.06911361,-0.03425892,-
 0.08851183,-0.17167075,0.58303660,0.00077550,0.00359014,0.00053839,-0.
 00068392,-0.00023063,-0.00002496,-0.00130904,0.00166436,-0.00082989,-0
 .00011585,-0.00030396,0.00186606,0.00126868,-0.00029970,-0.00054835,-0
 .00076220,-0.00076867,0.00039669,0.01622041,-0.00142212,0.00960059,-0.
 00422393,0.00188179,0.00240492,-0.05631547,0.02906277,0.01338859,0.001
 81911,-0.00127835,0.00007298,0.00001380,0.00050009,-0.00113623,-0.0419
 8591,-0.02258577,-0.01850706,-0.00060544,-0.00221389,0.00048342,-0.002
 27016,0.00566961,-0.00311567,0.00019998,0.00003851,-0.00017880,-0.0001
 4599,-0.00053881,0.00085332,-0.00014503,0.00012011,0.00059343,0.006580
 04,-0.00531634,0.00025298,-0.00203720,0.00102827,0.00140332,0.00059141
 ,-0.00013602,-0.00022250,0.00027729,-0.00022041,-0.00010453,0.00013978
 ,-0.00002253,-0.00019437,-0.00000580,-0.00001880,0.00011687,0.00000829
 ,0.00001233,0.00001777,-0.00002392,-0.00012210,-0.00016583,-0.00002615
 ,0.00002776,-0.00000057,0.00027932,0.00017760,0.00015298,-0.00019600,-
 0.00008500,-0.00001923,-0.00005051,-0.00001885,-0.00008194,-0.00000693
 ,-0.00010308,-0.00007321,0.00001691,0.00000770,-0.00001324,0.00005966,
 0.00011364,0.00006426,0.00000766,0.00000500,0.00002169,-0.00003090,0.0
 0004681,-0.00001338,-0.00000679,0.00001174,0.00000496,-0.00003742,-0.0
 0006985,0.00001924,-0.00001831,-0.00000809,0.00001830,0.00004170,-0.00
 001324,-0.00000112,-0.00002642,-0.00000556,0.00001739,0.00002838,-0.00
 001252,0.00000106,-0.00004636,0.00004891,-0.00001896,0.00000030,-0.000
 01849,-0.00001192,0.00001069,-0.00000534,0.00000792,0.00000428,-0.0000
 0044,-0.00000008,0.00008905,0.00012571,-0.00002069,0.00000845,-0.00004
 956,0.00000421,-0.00002800,-0.00002458,-0.00001288,-0.23734733,-0.2253
 3531,0.04009008,-0.09441526,-0.04290246,0.04060021,0.41442557,-0.00243
 343,-0.00022122,0.00084710,-0.00027092,0.00011310,0.00138445,-0.000483
 08,0.00233606,-0.00276826,0.00024677,-0.00052425,0.00178458,0.00032482
 ,-0.00082199,-0.00035368,-0.00038627,-0.00028427,0.00022732,-0.0003207
 0,-0.03515952,-0.02285175,0.00147223,0.00089386,-0.00244571,0.02349967
 ,-0.03953462,0.01829642,0.00076589,-0.00566015,0.00147682,0.00008185,0
 .00025470,0.00040165,-0.02370169,-0.00485676,0.00359205,0.00612832,0.0
 0496410,0.01297085,-0.00084963,0.00719094,-0.00088632,0.00015078,0.000
 13197,-0.00013504,0.00319900,0.00017195,-0.00126011,-0.00012478,-0.000
 33588,-0.00004194,0.00144651,0.00107355,-0.00090776,-0.00016934,0.0004
 0666,0.00024843,0.00012975,-0.00006862,-0.00005311,0.00017496,-0.00015
 028,-0.00004940,-0.00006129,-0.00004026,0.00004043,0.00003391,0.000137
 75,-0.00037533,0.00002905,0.00000651,0.00003212,-0.00010508,-0.0001297
 0,0.00022645,-0.00001926,0.00001464,0.00001741,0.00031844,0.00032251,-
 0.00017388,-0.00023993,-0.00025009,0.00014704,0.00004577,0.00001381,0.
 00016151,0.00004221,0.00022143,0.00020599,-0.00001772,-0.00002559,-0.0
 0005090,-0.00015063,-0.00046120,-0.00012999,-0.00003873,0.00002501,0.0
 0001195,0.00000374,-0.00011016,-0.00014196,-0.00000780,0.00001716,0.00
 001824,0.00002678,0.00023181,-0.00009412,0.00000098,0.00001042,0.00000
 057,0.00000388,0.00005535,-0.00003982,-0.00001948,0.00000559,0.0000043
 3,0.00009605,-0.00008741,0.00011346,-0.00002964,0.,0.00005991,0.000011
 21,0.00000229,-0.00000223,-0.00000671,0.00000827,0.00001135,-0.0000007
 8,0.00000362,-0.00001413,0.00035406,-0.00002802,0.00005577,-0.00001148
 ,-0.00003643,-0.00001692,-0.00001949,0.00000442,-0.00003269,-0.2272288
 5,-0.34745737,0.06065901,-0.04188759,-0.12604584,0.09590837,0.25999765
 ,0.54367215,-0.00359908,0.00088071,0.00142501,-0.00062653,0.00035115,0
 .00058267,0.00009106,-0.00026623,0.00084250,0.00077374,0.00060987,-0.0
 0204673,0.00151558,0.00052705,-0.00081221,-0.00086828,-0.00035070,0.00
 048195,0.01352306,-0.02543139,-0.00544728,-0.00030670,0.00560084,-0.00
 239676,0.02802480,0.03845573,-0.03687147,-0.00163990,-0.00055406,0.001
 14318,0.00028322,0.00102385,-0.00081420,-0.02361712,0.00414275,0.01249
 425,-0.01563010,-0.01568660,-0.03202153,0.00205708,0.00004509,-0.00314
 881,0.00025999,0.00020202,0.00000849,0.00276025,0.00167937,-0.00118542
 ,0.00022198,-0.00014108,0.00001605,0.00568433,-0.00401589,-0.00187600,
 -0.00131766,0.00084410,0.00206017,0.00049420,-0.00009251,-0.00045932,0
 .00023326,-0.00019637,-0.00021292,0.00061154,0.00004848,-0.00064409,0.
 00003624,0.00017908,-0.00035840,0.00009220,0.00000835,-0.00000450,-0.0
 0013046,-0.00016279,0.00020518,-0.00007390,0.00000942,-0.00002483,0.00
 035373,-0.00006783,0.00079578,-0.00013222,0.00015171,-0.00047289,0.000
 02310,0.00001693,0.00013667,0.00002926,0.00024457,0.00022460,-0.000036
 53,-0.00005381,-0.00000895,-0.00016912,-0.00042360,-0.00015285,-0.0000
 2555,0.00000751,-0.00002181,0.00003339,-0.00017528,-0.00002972,-0.0000
 0089,0.00002070,0.00001930,0.00010986,0.00026207,-0.00006911,0.0000125
 5,-0.00000014,-0.00000112,-0.00008035,0.00004054,-0.00007512,0.0000004
 8,-0.00000518,0.00000681,0.00002180,-0.00001798,-0.00000867,0.00001534
 ,-0.00003940,0.00006382,0.00000532,0.00000821,0.00000880,-0.00001818,0
 .00001011,0.00000217,-0.00000013,0.00000797,-0.00001217,-0.00053283,0.
 00037348,-0.00009221,-0.00014326,0.00009938,-0.00001726,0.00001137,-0.
 00004193,-0.00007198,0.03702206,0.05468868,-0.13868435,0.04234421,0.10
 326156,-0.50554244,-0.08769622,-0.16607852,0.71306773\\-0.00007450,-0.
 00006130,-0.00003708,0.00006266,0.00002552,-0.00008883,-0.00004773,0.0
 0000500,-0.00001686,-0.00001063,-0.00003970,-0.00000331,0.00000580,0.0
 0006605,-0.00006587,-0.00002218,-0.00001373,0.00004990,0.00000198,-0.0
 0000536,0.00001056,-0.00006681,0.00002272,0.00003933,-0.00001016,-0.00
 000205,0.00000699,-0.00001531,0.00001176,-0.00000186,0.00004243,-0.000
 01808,0.00000665,-0.00000817,0.00001705,-0.00000460,0.00004815,0.00007
 252,0.00005097,-0.00002718,-0.00004156,0.00001453,0.00004613,-0.000039
 69,-0.00001874,-0.00003001,0.00005981,0.00000876,0.00000606,0.00001035
 ,-0.00001538,0.00003548,-0.00001750,-0.00003204,0.00000875,-0.00001273
 ,-0.00000463,0.00000584,0.00000965,0.00001179,-0.00000123,-0.00002288,
 0.00001541,0.00000321,-0.00002554,-0.00000118,-0.00001775,0.00001510,-
 0.00000481,0.00000373,0.00007565,0.00000969,0.00005569,0.00002412,0.00
 001931,0.00007413,-0.00006842,0.00003587,-0.00003166,-0.00005867,0.000
 00756,-0.00000297,0.00000705,0.00000177,-0.00001156,0.00001773,-0.0000
 0872,-0.00001323,-0.00002559,0.00001804,-0.00002652,-0.00003409,-0.000
 04139,-0.00001678,0.00000012,-0.00000629,0.00002001,-0.00000987,0.0000
 0173,-0.00001845,-0.00000896,0.00002141,-0.00005730,0.00009047,-0.0000
 3773,0.00002116,0.00001845,-0.00000619,-0.00004935,-0.00001411,0.00001
 762,0.00003587,-0.00000765,-0.00003027,-0.00001322,-0.00000869,-0.0000
 0106,0.00001214,0.00002879,0.00002303,-0.00001087,0.00001902,-0.000006
 17,-0.00000076,-0.00000694,-0.00001065,-0.00001274,-0.00000109,-0.0000
 1346,0.00000951,-0.00000860,0.00001691,0.00003756,-0.00000425,0.000011
 78,0.00002162,-0.00005115,-0.00000379,0.00002830,0.00004849,0.00005163
 ,-0.00004692,-0.00003216,0.00000715,0.00001264,-0.00001017,-0.00001224
 ,0.00004516,0.00000513,0.00001476\\\@


 IF YOU GIVE EVERYONE A PIECE OF YOUR MIND,
 PRETTY SOON IT WILL BE ALL GONE.
 Job cpu time:       0 days 23 hours 49 minutes 55.2 seconds.
 Elapsed time:       0 days 23 hours 52 minutes 40.6 seconds.
 File lengths (MBytes):  RWF=   9476 Int=      0 D2E=      0 Chk=     76 Scr=      1
 Normal termination of Gaussian 16 at Sat Nov 30 16:39:30 2024.
