 Entering Gaussian System, Link 0=g16
 Initial command:
 /home/aderezen/G16/AVX2//g16/l1.exe "/lustre/scratch/natrosa/14340211/Gau-47381.inp" -scrdir="/lustre/scratch/natrosa/14340211/"
 Entering Link 1 = /home/aderezen/G16/AVX2//g16/l1.exe PID=     47383.
  
 Copyright (c) 1988-2019, Gaussian, Inc.  All Rights Reserved.
  
 This is part of the Gaussian(R) 16 program.  It is based on
 the Gaussian(R) 09 system (copyright 2009, Gaussian, Inc.),
 the Gaussian(R) 03 system (copyright 2003, Gaussian, Inc.),
 the Gaussian(R) 98 system (copyright 1998, Gaussian, Inc.),
 the Gaussian(R) 94 system (copyright 1995, Gaussian, Inc.),
 the Gaussian 92(TM) system (copyright 1992, Gaussian, Inc.),
 the Gaussian 90(TM) system (copyright 1990, Gaussian, Inc.),
 the Gaussian 88(TM) system (copyright 1988, Gaussian, Inc.),
 the Gaussian 86(TM) system (copyright 1986, Carnegie Mellon
 University), and the Gaussian 82(TM) system (copyright 1983,
 Carnegie Mellon University). Gaussian is a federally registered
 trademark of Gaussian, Inc.
  
 This software contains proprietary and confidential information,
 including trade secrets, belonging to Gaussian, Inc.
  
 This software is provided under written license and may be
 used, copied, transmitted, or stored only in accord with that
 written license.
  
 The following legend is applicable only to US Government
 contracts under FAR:
  
                    RESTRICTED RIGHTS LEGEND
  
 Use, reproduction and disclosure by the US Government is
 subject to restrictions as set forth in subparagraphs (a)
 and (c) of the Commercial Computer Software - Restricted
 Rights clause in FAR 52.227-19.
  
 Gaussian, Inc.
 340 Quinnipiac St., Bldg. 40, Wallingford CT 06492
  
  
 ---------------------------------------------------------------
 Warning -- This program may not be used in any manner that
 competes with the business of Gaussian, Inc. or will provide
 assistance to any competitor of Gaussian, Inc.  The licensee
 of this program is prohibited from giving any competitor of
 Gaussian, Inc. access to this program.  By using this program,
 the user acknowledges that Gaussian, Inc. is engaged in the
 business of creating and licensing software in the field of
 computational chemistry and represents and warrants to the
 licensee that it is not a competitor of Gaussian, Inc. and that
 it will not use this program in any manner prohibited above.
 ---------------------------------------------------------------
  

 Cite this work as:
 Gaussian 16, Revision C.01,
 M. J. Frisch, G. W. Trucks, H. B. Schlegel, G. E. Scuseria, 
 M. A. Robb, J. R. Cheeseman, G. Scalmani, V. Barone, 
 G. A. Petersson, H. Nakatsuji, X. Li, M. Caricato, A. V. Marenich, 
 J. Bloino, B. G. Janesko, R. Gomperts, B. Mennucci, H. P. Hratchian, 
 J. V. Ortiz, A. F. Izmaylov, J. L. Sonnenberg, D. Williams-Young, 
 F. Ding, F. Lipparini, F. Egidi, J. Goings, B. Peng, A. Petrone, 
 T. Henderson, D. Ranasinghe, V. G. Zakrzewski, J. Gao, N. Rega, 
 G. Zheng, W. Liang, M. Hada, M. Ehara, K. Toyota, R. Fukuda, 
 J. Hasegawa, M. Ishida, T. Nakajima, Y. Honda, O. Kitao, H. Nakai, 
 T. Vreven, K. Throssell, J. A. Montgomery, Jr., J. E. Peralta, 
 F. Ogliaro, M. J. Bearpark, J. J. Heyd, E. N. Brothers, K. N. Kudin, 
 V. N. Staroverov, T. A. Keith, R. Kobayashi, J. Normand, 
 K. Raghavachari, A. P. Rendell, J. C. Burant, S. S. Iyengar, 
 J. Tomasi, M. Cossi, J. M. Millam, M. Klene, C. Adamo, R. Cammi, 
 J. W. Ochterski, R. L. Martin, K. Morokuma, O. Farkas, 
 J. B. Foresman, and D. J. Fox, Gaussian, Inc., Wallingford CT, 2019.
 
 ******************************************
 Gaussian 16:  ES64L-G16RevC.01  3-Jul-2019
                27-Nov-2024 
 ******************************************
 %oldchk=/home/natrosa/DPD/teste/teste3.chk
 %chk=teste3-1.chk
 %Nproc=68
 Will use up to   68 processors via shared memory.
 Copying data from "/home/natrosa/DPD/teste/teste3.chk" to current chk file "teste3-1.chk"
 IOpt=  2 FromEx=T IUOpen= 4 IOptOp= 5 NList=   0 IFRang= 0 IUIn= 4 IUOut= 2.
 ----------------------------------------------------------------------
 # opt=(loose,calcfc,ts,noeigen) freq=noraman b3lyp/6-311+g(d) scrf=(sm
 d,solvent=generic,read) temperature=298.15 guess=read geom=check
 ----------------------------------------------------------------------
 1/5=1,7=-1,10=4,11=1,18=20,26=3,29=2,38=1,40=2,112=298150/1,3;
 2/9=110,12=2,40=1/2;
 3/5=4,6=6,7=11,11=2,14=-4,25=1,30=1,70=32203,71=2,72=-2,74=-5,116=-2,140=1/1,2,3;
 4/5=1/1;
 5/5=2,38=6/2;
 8/6=4,10=90,11=11/1;
 11/6=1,8=1,9=11,15=111,16=1/1,2,10;
 10/6=1,13=1/2;
 6/7=2,8=2,9=2,10=2,28=1/1;
 7/10=1,25=1/1,2,3,16;
 1/5=1,7=-1,10=4,11=1,18=20,26=3/3(2);
 2/9=110/2;
 99//99;
 2/9=110/2;
 3/5=4,6=6,7=11,11=2,14=-2,25=1,30=1,70=32205,71=1,72=-2,74=-5/1,2,3;
 4/5=5,16=3,69=1/1;
 5/5=2,38=5/2;
 7//1,2,3,16;
 1/5=1,7=-1,11=1,18=20,26=3/3(-5);
 2/9=110/2;
 6/7=2,8=2,9=2,10=2,19=2,28=1/1;
 99/9=1/99;
 --------------
 TS1 - reacao 1
 --------------
 Structure from the checkpoint file:  "teste3-1.chk"
 Charge =  0 Multiplicity = 2
 Redundant internal coordinates found in file.  (old form).
 C,0,-2.7433069262,-0.6363693302,-0.9019674089
 H,0,-2.3784939292,-0.5093738697,-1.9161137474
 C,0,-2.0172182547,-1.3813142649,-0.0436025591
 H,0,-2.3471039717,-1.5837915308,0.9699345637
 C,0,-0.7339620491,-2.024181462,-0.3669952794
 O,0,-0.1655312945,-2.7010392647,0.4811427553
 C,0,-4.023336401,0.0180255065,-0.6697032277
 C,0,-4.8066665775,0.3417010532,-1.7834631474
 C,0,-4.6155858525,0.2728347761,0.5978172023
 C,0,-6.0640918923,0.9213911421,-1.6656166045
 H,0,-4.4165518362,0.1265704859,-2.7720043658
 C,0,-5.843305225,0.9431383159,0.7448438278
 H,0,-5.2279075238,-1.5327162306,0.8871141276
 C,0,-6.5860898649,1.2369295201,-0.4117592484
 H,0,-6.6349081728,1.1618934339,-2.5578178554
 O,0,-7.7730768226,1.8666411832,-0.2388497788
 H,0,-8.1813594588,2.0619324037,-1.0954923103
 O,0,-6.2278399835,1.3478626854,1.9793761203
 C,0,-7.388666276,0.7004795607,2.5514024313
 H,0,-7.2214803501,-0.376424725,2.6230251827
 H,0,-7.4964919986,1.122583602,3.5485618059
 H,0,-8.2808384904,0.90939377,1.9613351816
 C,0,2.556786298,-0.9539049487,-0.6677650172
 H,0,2.1765882246,-1.9434196377,-0.4314121324
 C,0,1.8099412206,-0.1407416917,-1.4475240095
 H,0,2.1473744356,0.8607807496,-1.6983864112
 C,0,0.505380105,-0.4799802399,-2.0164419091
 O,0,-0.0981070518,0.3332790853,-2.7098806274
 C,0,3.851007461,-0.6540983893,-0.0707096174
 C,0,4.4487952633,-1.6159111464,0.7598863952
 C,0,4.542872606,0.5545316077,-0.2852682117
 C,0,5.6778337516,-1.3795647487,1.3627508695
 H,0,3.9382144502,-2.5556018263,0.9431713369
 C,0,5.7716397795,0.800413888,0.3036914793
 H,0,4.128417459,1.330918817,-0.9186614397
 C,0,6.3456056576,-0.1734390531,1.150224141
 H,0,6.1203092817,-2.1289868077,2.0135138518
 O,0,7.5363934356,0.1219810315,1.7340355733
 H,0,7.8237874485,-0.6121578568,2.2964821135
 O,0,6.3792897789,2.0150522915,0.1156867122
 C,0,7.5558057506,1.9967543818,-0.7091966213
 H,0,7.3058831485,1.6653276701,-1.7221886903
 H,0,7.9188778478,3.023443117,-0.743843259
 H,0,8.3290632493,1.352111457,-0.2868988775
 C,0,-0.1143210871,-1.8627315032,-1.7592280867
 H,0,0.6402254925,-2.6425020755,-1.8634359112
 H,0,-0.8723169361,-2.0182377414,-2.5279146578
 O,0,-4.0334358577,-0.4671380526,2.7506912455
 O,0,-2.8714497475,1.1251767816,1.8519581021
 N,0,-3.7683359119,0.295264942,1.8363749603
 Recover connectivity data from disk.

 GradGradGradGradGradGradGradGradGradGradGradGradGradGradGradGradGradGrad
 Berny optimization.
 Initialization pass.
                           ----------------------------
                           !    Initial Parameters    !
                           ! (Angstroms and Degrees)  !
 --------------------------                            --------------------------
 ! Name  Definition              Value          Derivative Info.                !
 --------------------------------------------------------------------------------
 ! R1    R(1,2)                  1.0852         calculate D2E/DX2 analytically  !
 ! R2    R(1,3)                  1.3487         calculate D2E/DX2 analytically  !
 ! R3    R(1,7)                  1.4562         calculate D2E/DX2 analytically  !
 ! R4    R(3,4)                  1.0849         calculate D2E/DX2 analytically  !
 ! R5    R(3,5)                  1.4713         calculate D2E/DX2 analytically  !
 ! R6    R(5,6)                  1.225          calculate D2E/DX2 analytically  !
 ! R7    R(5,45)                 1.5324         calculate D2E/DX2 analytically  !
 ! R8    R(7,8)                  1.3996         calculate D2E/DX2 analytically  !
 ! R9    R(7,9)                  1.4221         calculate D2E/DX2 analytically  !
 ! R10   R(8,10)                 1.3896         calculate D2E/DX2 analytically  !
 ! R11   R(8,11)                 1.0843         calculate D2E/DX2 analytically  !
 ! R12   R(9,12)                 1.4065         calculate D2E/DX2 analytically  !
 ! R13   R(9,13)                 1.9284         calculate D2E/DX2 analytically  !
 ! R14   R(9,50)                 1.5008         calculate D2E/DX2 analytically  !
 ! R15   R(10,14)                1.3943         calculate D2E/DX2 analytically  !
 ! R16   R(10,15)                1.0861         calculate D2E/DX2 analytically  !
 ! R17   R(12,14)                1.4056         calculate D2E/DX2 analytically  !
 ! R18   R(12,18)                1.3549         calculate D2E/DX2 analytically  !
 ! R19   R(13,50)                2.5245         calculate D2E/DX2 analytically  !
 ! R20   R(14,16)                1.3548         calculate D2E/DX2 analytically  !
 ! R21   R(16,17)                0.9688         calculate D2E/DX2 analytically  !
 ! R22   R(18,19)                1.447          calculate D2E/DX2 analytically  !
 ! R23   R(19,20)                1.0922         calculate D2E/DX2 analytically  !
 ! R24   R(19,21)                1.0882         calculate D2E/DX2 analytically  !
 ! R25   R(19,22)                1.0899         calculate D2E/DX2 analytically  !
 ! R26   R(23,24)                1.0861         calculate D2E/DX2 analytically  !
 ! R27   R(23,25)                1.3517         calculate D2E/DX2 analytically  !
 ! R28   R(23,29)                1.4565         calculate D2E/DX2 analytically  !
 ! R29   R(25,26)                1.0862         calculate D2E/DX2 analytically  !
 ! R30   R(25,27)                1.4631         calculate D2E/DX2 analytically  !
 ! R31   R(27,28)                1.2274         calculate D2E/DX2 analytically  !
 ! R32   R(27,45)                1.5369         calculate D2E/DX2 analytically  !
 ! R33   R(29,30)                1.4044         calculate D2E/DX2 analytically  !
 ! R34   R(29,31)                1.4091         calculate D2E/DX2 analytically  !
 ! R35   R(30,32)                1.3892         calculate D2E/DX2 analytically  !
 ! R36   R(30,33)                1.085          calculate D2E/DX2 analytically  !
 ! R37   R(31,34)                1.3846         calculate D2E/DX2 analytically  !
 ! R38   R(31,35)                1.0843         calculate D2E/DX2 analytically  !
 ! R39   R(32,36)                1.3949         calculate D2E/DX2 analytically  !
 ! R40   R(32,37)                1.0867         calculate D2E/DX2 analytically  !
 ! R41   R(34,36)                1.4122         calculate D2E/DX2 analytically  !
 ! R42   R(34,40)                1.3711         calculate D2E/DX2 analytically  !
 ! R43   R(36,38)                1.3587         calculate D2E/DX2 analytically  !
 ! R44   R(38,39)                0.9685         calculate D2E/DX2 analytically  !
 ! R45   R(40,41)                1.437          calculate D2E/DX2 analytically  !
 ! R46   R(41,42)                1.0947         calculate D2E/DX2 analytically  !
 ! R47   R(41,43)                1.0895         calculate D2E/DX2 analytically  !
 ! R48   R(41,44)                1.0917         calculate D2E/DX2 analytically  !
 ! R49   R(45,46)                1.0901         calculate D2E/DX2 analytically  !
 ! R50   R(45,47)                1.0907         calculate D2E/DX2 analytically  !
 ! R51   R(48,50)                1.2196         calculate D2E/DX2 analytically  !
 ! R52   R(49,50)                1.222          calculate D2E/DX2 analytically  !
 ! R53   R(4,49)                 2.8968         calculate D2E/DX2 analytically  !
 ! R54   R(13,48)                2.4567         calculate D2E/DX2 analytically  !
 ! A1    A(2,1,3)              118.5823         calculate D2E/DX2 analytically  !
 ! A2    A(2,1,7)              113.0758         calculate D2E/DX2 analytically  !
 ! A3    A(3,1,7)              128.3105         calculate D2E/DX2 analytically  !
 ! A4    A(1,3,4)              122.2729         calculate D2E/DX2 analytically  !
 ! A5    A(1,3,5)              124.822          calculate D2E/DX2 analytically  !
 ! A6    A(4,3,5)              112.8924         calculate D2E/DX2 analytically  !
 ! A7    A(3,5,6)              119.6027         calculate D2E/DX2 analytically  !
 ! A8    A(3,5,45)             120.4207         calculate D2E/DX2 analytically  !
 ! A9    A(6,5,45)             119.974          calculate D2E/DX2 analytically  !
 ! A10   A(1,7,8)              117.967          calculate D2E/DX2 analytically  !
 ! A11   A(1,7,9)              126.0685         calculate D2E/DX2 analytically  !
 ! A12   A(8,7,9)              115.7701         calculate D2E/DX2 analytically  !
 ! A13   A(7,8,10)             122.3733         calculate D2E/DX2 analytically  !
 ! A14   A(7,8,11)             118.5714         calculate D2E/DX2 analytically  !
 ! A15   A(10,8,11)            119.0547         calculate D2E/DX2 analytically  !
 ! A16   A(7,9,12)             122.8268         calculate D2E/DX2 analytically  !
 ! A17   A(7,9,13)              95.6349         calculate D2E/DX2 analytically  !
 ! A18   A(7,9,50)             120.2084         calculate D2E/DX2 analytically  !
 ! A19   A(12,9,13)             98.8222         calculate D2E/DX2 analytically  !
 ! A20   A(12,9,50)            113.54           calculate D2E/DX2 analytically  !
 ! A21   A(8,10,14)            120.6249         calculate D2E/DX2 analytically  !
 ! A22   A(8,10,15)            119.8849         calculate D2E/DX2 analytically  !
 ! A23   A(14,10,15)           119.4604         calculate D2E/DX2 analytically  !
 ! A24   A(9,12,14)            118.3507         calculate D2E/DX2 analytically  !
 ! A25   A(9,12,18)            119.0351         calculate D2E/DX2 analytically  !
 ! A26   A(14,12,18)           122.5022         calculate D2E/DX2 analytically  !
 ! A27   A(10,14,12)           119.6569         calculate D2E/DX2 analytically  !
 ! A28   A(10,14,16)           123.2274         calculate D2E/DX2 analytically  !
 ! A29   A(12,14,16)           117.0732         calculate D2E/DX2 analytically  !
 ! A30   A(14,16,17)           110.4913         calculate D2E/DX2 analytically  !
 ! A31   A(12,18,19)           117.0158         calculate D2E/DX2 analytically  !
 ! A32   A(18,19,20)           110.1371         calculate D2E/DX2 analytically  !
 ! A33   A(18,19,21)           105.5571         calculate D2E/DX2 analytically  !
 ! A34   A(18,19,22)           110.9111         calculate D2E/DX2 analytically  !
 ! A35   A(20,19,21)           109.7282         calculate D2E/DX2 analytically  !
 ! A36   A(20,19,22)           110.4769         calculate D2E/DX2 analytically  !
 ! A37   A(21,19,22)           109.9171         calculate D2E/DX2 analytically  !
 ! A38   A(24,23,25)           118.7004         calculate D2E/DX2 analytically  !
 ! A39   A(24,23,29)           114.167          calculate D2E/DX2 analytically  !
 ! A40   A(25,23,29)           127.1295         calculate D2E/DX2 analytically  !
 ! A41   A(23,25,26)           121.0831         calculate D2E/DX2 analytically  !
 ! A42   A(23,25,27)           125.2745         calculate D2E/DX2 analytically  !
 ! A43   A(26,25,27)           113.6392         calculate D2E/DX2 analytically  !
 ! A44   A(25,27,28)           120.2962         calculate D2E/DX2 analytically  !
 ! A45   A(25,27,45)           120.2016         calculate D2E/DX2 analytically  !
 ! A46   A(28,27,45)           119.5003         calculate D2E/DX2 analytically  !
 ! A47   A(23,29,30)           118.6659         calculate D2E/DX2 analytically  !
 ! A48   A(23,29,31)           123.3974         calculate D2E/DX2 analytically  !
 ! A49   A(30,29,31)           117.9364         calculate D2E/DX2 analytically  !
 ! A50   A(29,30,32)           121.1131         calculate D2E/DX2 analytically  !
 ! A51   A(29,30,33)           119.5198         calculate D2E/DX2 analytically  !
 ! A52   A(32,30,33)           119.3639         calculate D2E/DX2 analytically  !
 ! A53   A(29,31,34)           121.5529         calculate D2E/DX2 analytically  !
 ! A54   A(29,31,35)           121.0263         calculate D2E/DX2 analytically  !
 ! A55   A(34,31,35)           117.4206         calculate D2E/DX2 analytically  !
 ! A56   A(30,32,36)           120.2991         calculate D2E/DX2 analytically  !
 ! A57   A(30,32,37)           120.1845         calculate D2E/DX2 analytically  !
 ! A58   A(36,32,37)           119.5122         calculate D2E/DX2 analytically  !
 ! A59   A(31,34,36)           119.55           calculate D2E/DX2 analytically  !
 ! A60   A(31,34,40)           119.4909         calculate D2E/DX2 analytically  !
 ! A61   A(36,34,40)           120.861          calculate D2E/DX2 analytically  !
 ! A62   A(32,36,34)           119.5386         calculate D2E/DX2 analytically  !
 ! A63   A(32,36,38)           122.8257         calculate D2E/DX2 analytically  !
 ! A64   A(34,36,38)           117.6339         calculate D2E/DX2 analytically  !
 ! A65   A(36,38,39)           110.1699         calculate D2E/DX2 analytically  !
 ! A66   A(34,40,41)           115.4852         calculate D2E/DX2 analytically  !
 ! A67   A(40,41,42)           110.3718         calculate D2E/DX2 analytically  !
 ! A68   A(40,41,43)           106.2055         calculate D2E/DX2 analytically  !
 ! A69   A(40,41,44)           111.4309         calculate D2E/DX2 analytically  !
 ! A70   A(42,41,43)           109.3859         calculate D2E/DX2 analytically  !
 ! A71   A(42,41,44)           109.9299         calculate D2E/DX2 analytically  !
 ! A72   A(43,41,44)           109.4325         calculate D2E/DX2 analytically  !
 ! A73   A(5,45,27)            114.1965         calculate D2E/DX2 analytically  !
 ! A74   A(5,45,46)            106.9406         calculate D2E/DX2 analytically  !
 ! A75   A(5,45,47)            110.1366         calculate D2E/DX2 analytically  !
 ! A76   A(27,45,46)           110.3944         calculate D2E/DX2 analytically  !
 ! A77   A(27,45,47)           106.8902         calculate D2E/DX2 analytically  !
 ! A78   A(46,45,47)           108.1613         calculate D2E/DX2 analytically  !
 ! A79   A(9,50,48)            119.1191         calculate D2E/DX2 analytically  !
 ! A80   A(9,50,49)            115.7852         calculate D2E/DX2 analytically  !
 ! A81   A(13,50,48)            72.7571         calculate D2E/DX2 analytically  !
 ! A82   A(13,50,49)           157.0544         calculate D2E/DX2 analytically  !
 ! A83   A(48,50,49)           125.0636         calculate D2E/DX2 analytically  !
 ! A84   A(9,13,48)             63.4671         calculate D2E/DX2 analytically  !
 ! D1    D(2,1,3,4)           -177.2357         calculate D2E/DX2 analytically  !
 ! D2    D(2,1,3,5)              1.373          calculate D2E/DX2 analytically  !
 ! D3    D(7,1,3,4)              0.572          calculate D2E/DX2 analytically  !
 ! D4    D(7,1,3,5)            179.1807         calculate D2E/DX2 analytically  !
 ! D5    D(2,1,7,8)             19.4063         calculate D2E/DX2 analytically  !
 ! D6    D(2,1,7,9)           -165.8938         calculate D2E/DX2 analytically  !
 ! D7    D(3,1,7,8)           -158.5012         calculate D2E/DX2 analytically  !
 ! D8    D(3,1,7,9)             16.1987         calculate D2E/DX2 analytically  !
 ! D9    D(1,3,5,6)           -178.7121         calculate D2E/DX2 analytically  !
 ! D10   D(1,3,5,45)             0.6895         calculate D2E/DX2 analytically  !
 ! D11   D(4,3,5,6)              0.011          calculate D2E/DX2 analytically  !
 ! D12   D(4,3,5,45)           179.4126         calculate D2E/DX2 analytically  !
 ! D13   D(3,5,45,27)           74.3503         calculate D2E/DX2 analytically  !
 ! D14   D(3,5,45,46)         -163.2214         calculate D2E/DX2 analytically  !
 ! D15   D(3,5,45,47)          -45.9161         calculate D2E/DX2 analytically  !
 ! D16   D(6,5,45,27)         -106.2503         calculate D2E/DX2 analytically  !
 ! D17   D(6,5,45,46)           16.178          calculate D2E/DX2 analytically  !
 ! D18   D(6,5,45,47)          133.4833         calculate D2E/DX2 analytically  !
 ! D19   D(1,7,8,10)           177.5402         calculate D2E/DX2 analytically  !
 ! D20   D(1,7,8,11)            -2.1726         calculate D2E/DX2 analytically  !
 ! D21   D(9,7,8,10)             2.2962         calculate D2E/DX2 analytically  !
 ! D22   D(9,7,8,11)          -177.4166         calculate D2E/DX2 analytically  !
 ! D23   D(1,7,9,12)           178.3003         calculate D2E/DX2 analytically  !
 ! D24   D(1,7,9,13)           -77.3966         calculate D2E/DX2 analytically  !
 ! D25   D(1,7,9,50)            20.5466         calculate D2E/DX2 analytically  !
 ! D26   D(8,7,9,12)            -6.8976         calculate D2E/DX2 analytically  !
 ! D27   D(8,7,9,13)            97.4055         calculate D2E/DX2 analytically  !
 ! D28   D(8,7,9,50)          -164.6513         calculate D2E/DX2 analytically  !
 ! D29   D(7,8,10,14)            1.6006         calculate D2E/DX2 analytically  !
 ! D30   D(7,8,10,15)          179.6029         calculate D2E/DX2 analytically  !
 ! D31   D(11,8,10,14)        -178.6878         calculate D2E/DX2 analytically  !
 ! D32   D(11,8,10,15)          -0.6856         calculate D2E/DX2 analytically  !
 ! D33   D(7,9,12,14)            7.4335         calculate D2E/DX2 analytically  !
 ! D34   D(7,9,12,18)         -168.8166         calculate D2E/DX2 analytically  !
 ! D35   D(13,9,12,14)         -95.18           calculate D2E/DX2 analytically  !
 ! D36   D(13,9,12,18)          88.5699         calculate D2E/DX2 analytically  !
 ! D37   D(50,9,12,14)         166.5251         calculate D2E/DX2 analytically  !
 ! D38   D(50,9,12,18)          -9.7251         calculate D2E/DX2 analytically  !
 ! D39   D(7,9,50,48)         -122.1599         calculate D2E/DX2 analytically  !
 ! D40   D(7,9,50,49)           59.7961         calculate D2E/DX2 analytically  !
 ! D41   D(12,9,50,48)          78.1447         calculate D2E/DX2 analytically  !
 ! D42   D(12,9,50,49)         -99.8993         calculate D2E/DX2 analytically  !
 ! D43   D(8,10,14,12)          -1.1752         calculate D2E/DX2 analytically  !
 ! D44   D(8,10,14,16)         176.3837         calculate D2E/DX2 analytically  !
 ! D45   D(15,10,14,12)       -179.1859         calculate D2E/DX2 analytically  !
 ! D46   D(15,10,14,16)         -1.627          calculate D2E/DX2 analytically  !
 ! D47   D(9,12,14,10)          -3.1746         calculate D2E/DX2 analytically  !
 ! D48   D(9,12,14,16)         179.1186         calculate D2E/DX2 analytically  !
 ! D49   D(18,12,14,10)        172.9377         calculate D2E/DX2 analytically  !
 ! D50   D(18,12,14,16)         -4.7691         calculate D2E/DX2 analytically  !
 ! D51   D(9,12,18,19)        -113.2843         calculate D2E/DX2 analytically  !
 ! D52   D(14,12,18,19)         70.6289         calculate D2E/DX2 analytically  !
 ! D53   D(10,14,16,17)         -0.4873         calculate D2E/DX2 analytically  !
 ! D54   D(12,14,16,17)        177.1304         calculate D2E/DX2 analytically  !
 ! D55   D(12,18,19,20)         58.694          calculate D2E/DX2 analytically  !
 ! D56   D(12,18,19,21)        177.0724         calculate D2E/DX2 analytically  !
 ! D57   D(12,18,19,22)        -63.9204         calculate D2E/DX2 analytically  !
 ! D58   D(24,23,25,26)        179.2706         calculate D2E/DX2 analytically  !
 ! D59   D(24,23,25,27)         -0.0347         calculate D2E/DX2 analytically  !
 ! D60   D(29,23,25,26)         -0.0487         calculate D2E/DX2 analytically  !
 ! D61   D(29,23,25,27)       -179.354          calculate D2E/DX2 analytically  !
 ! D62   D(24,23,29,30)         -1.9642         calculate D2E/DX2 analytically  !
 ! D63   D(24,23,29,31)        177.8388         calculate D2E/DX2 analytically  !
 ! D64   D(25,23,29,30)        177.3813         calculate D2E/DX2 analytically  !
 ! D65   D(25,23,29,31)         -2.8156         calculate D2E/DX2 analytically  !
 ! D66   D(23,25,27,28)        179.6901         calculate D2E/DX2 analytically  !
 ! D67   D(23,25,27,45)         -0.8131         calculate D2E/DX2 analytically  !
 ! D68   D(26,25,27,28)          0.3395         calculate D2E/DX2 analytically  !
 ! D69   D(26,25,27,45)        179.8364         calculate D2E/DX2 analytically  !
 ! D70   D(25,27,45,5)          77.2125         calculate D2E/DX2 analytically  !
 ! D71   D(25,27,45,46)        -43.3094         calculate D2E/DX2 analytically  !
 ! D72   D(25,27,45,47)       -160.7233         calculate D2E/DX2 analytically  !
 ! D73   D(28,27,45,5)        -103.2866         calculate D2E/DX2 analytically  !
 ! D74   D(28,27,45,46)        136.1914         calculate D2E/DX2 analytically  !
 ! D75   D(28,27,45,47)         18.7775         calculate D2E/DX2 analytically  !
 ! D76   D(23,29,30,32)       -179.5607         calculate D2E/DX2 analytically  !
 ! D77   D(23,29,30,33)         -0.2229         calculate D2E/DX2 analytically  !
 ! D78   D(31,29,30,32)          0.6254         calculate D2E/DX2 analytically  !
 ! D79   D(31,29,30,33)        179.9632         calculate D2E/DX2 analytically  !
 ! D80   D(23,29,31,34)        179.909          calculate D2E/DX2 analytically  !
 ! D81   D(23,29,31,35)          0.0953         calculate D2E/DX2 analytically  !
 ! D82   D(30,29,31,34)         -0.2866         calculate D2E/DX2 analytically  !
 ! D83   D(30,29,31,35)        179.8997         calculate D2E/DX2 analytically  !
 ! D84   D(29,30,32,36)         -0.0844         calculate D2E/DX2 analytically  !
 ! D85   D(29,30,32,37)        179.1663         calculate D2E/DX2 analytically  !
 ! D86   D(33,30,32,36)       -179.4232         calculate D2E/DX2 analytically  !
 ! D87   D(33,30,32,37)         -0.1725         calculate D2E/DX2 analytically  !
 ! D88   D(29,31,34,36)         -0.5827         calculate D2E/DX2 analytically  !
 ! D89   D(29,31,34,40)       -177.0146         calculate D2E/DX2 analytically  !
 ! D90   D(35,31,34,36)        179.2375         calculate D2E/DX2 analytically  !
 ! D91   D(35,31,34,40)          2.8055         calculate D2E/DX2 analytically  !
 ! D92   D(30,32,36,34)         -0.7992         calculate D2E/DX2 analytically  !
 ! D93   D(30,32,36,38)        178.6889         calculate D2E/DX2 analytically  !
 ! D94   D(37,32,36,34)        179.9451         calculate D2E/DX2 analytically  !
 ! D95   D(37,32,36,38)         -0.5668         calculate D2E/DX2 analytically  !
 ! D96   D(31,34,36,32)          1.1259         calculate D2E/DX2 analytically  !
 ! D97   D(31,34,36,38)       -178.3885         calculate D2E/DX2 analytically  !
 ! D98   D(40,34,36,32)        177.5078         calculate D2E/DX2 analytically  !
 ! D99   D(40,34,36,38)         -2.0066         calculate D2E/DX2 analytically  !
 ! D100  D(31,34,40,41)       -109.9677         calculate D2E/DX2 analytically  !
 ! D101  D(36,34,40,41)         73.6482         calculate D2E/DX2 analytically  !
 ! D102  D(32,36,38,39)         -0.1758         calculate D2E/DX2 analytically  !
 ! D103  D(34,36,38,39)        179.3214         calculate D2E/DX2 analytically  !
 ! D104  D(34,40,41,42)         62.3833         calculate D2E/DX2 analytically  !
 ! D105  D(34,40,41,43)       -179.1501         calculate D2E/DX2 analytically  !
 ! D106  D(34,40,41,44)        -60.0541         calculate D2E/DX2 analytically  !
 ! D107  D(7,9,13,48)          131.9536         calculate D2E/DX2 analytically  !
 ! D108  D(12,9,13,48)        -103.5351         calculate D2E/DX2 analytically  !
 --------------------------------------------------------------------------------
 Trust Radius=3.00D-01 FncErr=1.00D-07 GrdErr=1.00D-06 EigMax=2.50D+02 EigMin=1.00D-04
 Number of steps in this run=    256 maximum allowed number of steps=    300.
 Search for a saddle point of order  1.
 GradGradGradGradGradGradGradGradGradGradGradGradGradGradGradGradGradGrad

                          Input orientation:                          
 ---------------------------------------------------------------------
 Center     Atomic      Atomic             Coordinates (Angstroms)
 Number     Number       Type             X           Y           Z
 ---------------------------------------------------------------------
      1          6           0       -2.743307   -0.636369   -0.901967
      2          1           0       -2.378494   -0.509374   -1.916114
      3          6           0       -2.017218   -1.381314   -0.043603
      4          1           0       -2.347104   -1.583792    0.969935
      5          6           0       -0.733962   -2.024181   -0.366995
      6          8           0       -0.165531   -2.701039    0.481143
      7          6           0       -4.023336    0.018026   -0.669703
      8          6           0       -4.806667    0.341701   -1.783463
      9          6           0       -4.615586    0.272835    0.597817
     10          6           0       -6.064092    0.921391   -1.665617
     11          1           0       -4.416552    0.126570   -2.772004
     12          6           0       -5.843305    0.943138    0.744844
     13          1           0       -5.227908   -1.532716    0.887114
     14          6           0       -6.586090    1.236930   -0.411759
     15          1           0       -6.634908    1.161893   -2.557818
     16          8           0       -7.773077    1.866641   -0.238850
     17          1           0       -8.181359    2.061932   -1.095492
     18          8           0       -6.227840    1.347863    1.979376
     19          6           0       -7.388666    0.700480    2.551402
     20          1           0       -7.221480   -0.376425    2.623025
     21          1           0       -7.496492    1.122584    3.548562
     22          1           0       -8.280838    0.909394    1.961335
     23          6           0        2.556786   -0.953905   -0.667765
     24          1           0        2.176588   -1.943420   -0.431412
     25          6           0        1.809941   -0.140742   -1.447524
     26          1           0        2.147374    0.860781   -1.698386
     27          6           0        0.505380   -0.479980   -2.016442
     28          8           0       -0.098107    0.333279   -2.709881
     29          6           0        3.851007   -0.654098   -0.070710
     30          6           0        4.448795   -1.615911    0.759886
     31          6           0        4.542873    0.554532   -0.285268
     32          6           0        5.677834   -1.379565    1.362751
     33          1           0        3.938214   -2.555602    0.943171
     34          6           0        5.771640    0.800414    0.303691
     35          1           0        4.128417    1.330919   -0.918661
     36          6           0        6.345606   -0.173439    1.150224
     37          1           0        6.120309   -2.128987    2.013514
     38          8           0        7.536393    0.121981    1.734036
     39          1           0        7.823787   -0.612158    2.296482
     40          8           0        6.379290    2.015052    0.115687
     41          6           0        7.555806    1.996754   -0.709197
     42          1           0        7.305883    1.665328   -1.722189
     43          1           0        7.918878    3.023443   -0.743843
     44          1           0        8.329063    1.352111   -0.286899
     45          6           0       -0.114321   -1.862732   -1.759228
     46          1           0        0.640225   -2.642502   -1.863436
     47          1           0       -0.872317   -2.018238   -2.527915
     48          8           0       -4.033436   -0.467138    2.750691
     49          8           0       -2.871450    1.125177    1.851958
     50          7           0       -3.768336    0.295265    1.836375
 ---------------------------------------------------------------------
                    Distance matrix (angstroms):
                    1          2          3          4          5
     1  C    0.000000
     2  H    1.085223   0.000000
     3  C    1.348680   2.096926   0.000000
     4  H    2.135088   3.079713   1.084933   0.000000
     5  C    2.499937   2.720091   1.471261   2.140923   0.000000
     6  O    3.580612   3.930323   2.333619   2.499284   1.224985
     7  C    1.456247   2.130069   2.524810   2.839716   3.883584
     8  C    2.447674   2.576421   3.711727   4.163913   4.918405
     9  C    2.565431   3.454892   3.146290   2.954918   4.612391
    10  C    3.746651   3.961498   4.930575   5.199814   6.226805
    11  H    2.622759   2.300142   3.933789   4.605438   4.896046
    12  C    3.849262   4.603847   4.545731   4.319660   6.012201
    13  H    3.190218   4.126072   3.346294   2.882446   4.691468
    14  C    4.303084   4.797554   5.278762   5.275846   6.699571
    15  H    4.595666   4.617573   5.840569   6.194279   7.054923
    16  O    5.657152   6.128637   6.611902   6.542769   8.043883
    17  H    6.073771   6.399866   7.138561   7.183024   8.525888
    18  O    4.937741   5.782874   5.410193   4.967261   6.859944
    19  C    5.940732   6.820870   6.318257   5.756413   7.760535
    20  H    5.705014   6.638974   5.933384   5.286775   7.330977
    21  H    6.744916   7.662889   7.013957   6.363174   8.424104
    22  H    6.422783   7.203137   6.964198   6.512147   8.425101
    23  C    5.314759   5.110085   4.636138   5.208355   3.473468
    24  H    5.112257   5.000960   4.249044   4.749410   2.912383
    25  C    4.612521   4.230657   4.261123   5.020709   3.344597
    26  H    5.176341   4.733731   5.010901   5.770287   4.289255
    27  C    3.438092   2.885768   3.326860   4.274753   2.577053
    28  O    3.347514   2.557400   3.705652   4.719554   3.383939
    29  C    6.646524   6.498704   5.913176   6.353255   4.794461
    30  C    7.446314   7.416015   6.519966   6.799220   5.319541
    31  C    7.408574   7.190053   6.844026   7.322550   5.873791
    32  C    8.751965   8.741430   7.822510   8.037141   6.672232
    33  H    7.192407   7.229341   6.149785   6.360060   4.881411
    34  C    8.719075   8.547968   8.096102   8.487774   7.123975
    35  H    7.147804   6.835312   6.774273   7.348109   5.933276
    36  C    9.329208   9.253388   8.533523   8.808223   7.473117
    37  H    9.449425   9.502356   8.426749   8.548882   7.256641
    38  O   10.639354  10.584290   9.833178  10.058679   8.798814
    39  H   11.040568  11.038255  10.144604  10.302953   9.073202
    40  O    9.554445   9.338079   9.058809   9.477941   8.194312
    41  C   10.632132  10.316377  10.173355  10.663368   9.219831
    42  H   10.341992   9.927441   9.950874  10.534916   8.949198
    43  H   11.273926  10.949469  10.891200  11.382180  10.024578
    44  H   11.266310  10.989597  10.704034  11.143595   9.671825
    45  C    3.024967   2.642474   2.606943   3.537154   1.532427
    46  H    4.049356   3.696712   3.458959   4.251234   2.123687
    47  H    2.837934   2.218004   2.808608   3.820823   2.165352
    48  O    3.877498   4.951736   3.564959   2.694759   4.799050
    49  O    3.271631   4.136802   3.256587   2.896794   4.405799
    50  N    3.068737   4.081700   3.067841   2.510273   4.409319
                    6          7          8          9         10
     6  O    0.000000
     7  C    4.858026   0.000000
     8  C    5.993901   1.399583   0.000000
     9  C    5.353553   1.422074   2.389927   0.000000
    10  C    7.247316   2.443890   1.389621   2.764404   0.000000
    11  H    6.053885   2.141511   1.084290   3.378862   2.137808
    12  C    6.751791   2.483760   2.797978   1.406492   2.420649
    13  H    5.211281   2.505887   3.289813   1.928379   3.638445
    14  C    7.584751   2.849556   2.418544   2.414873   1.394347
    15  H    8.124676   3.419608   2.148210   3.850470   1.086138
    16  O    8.902631   4.202805   3.675713   3.634554   2.418634
    17  H    9.456489   4.652742   3.849812   4.333925   2.471578
    18  O    7.442439   3.694039   4.146210   2.379864   3.673508
    19  C    8.248029   4.708154   5.058310   3.418969   4.425669
    20  H    7.731618   4.607144   5.075842   3.363583   4.627777
    21  H    8.818851   5.574641   6.022909   4.210533   5.411091
    22  H    9.004688   5.083623   5.139617   3.962129   4.250752
    23  C    3.432707   6.651516   7.559353   7.385764   8.878738
    24  H    2.625313   6.507159   7.470988   7.218360   8.811311
    25  C    3.765285   5.887048   6.642673   6.755876   7.948339
    26  H    4.773515   6.312377   6.973906   7.166301   8.211755
    27  C    3.408981   4.750893   5.380268   5.798739   6.726432
    28  O    4.403892   4.434990   4.798839   5.599298   6.085174
    29  C    4.541706   7.925644   8.881467   8.543380  10.165387
    30  C    4.748390   8.745884   9.796144   9.260488  11.083400
    31  C    5.775396   8.591599   9.471207   9.205246  10.702693
    32  C    6.055447  10.009837  11.080892  10.453231  12.342537
    33  H    4.132233   8.521221   9.607385   9.015921  10.906025
    34  C    6.895046   9.874269  10.791997  10.404773  11.999056
    35  H    6.054266   8.260554   9.031177   8.937385  10.228045
    36  C    7.016505  10.529186  11.543183  10.984172  12.772165
    37  H    6.495167  10.709942  11.828784  11.091997  13.088179
    38  O    8.298122  11.807460  12.836363  12.205915  14.041720
    39  H    8.455063  12.229053  13.307298  12.585972  14.523195
    40  O    8.075256  10.621656  11.468762  11.142489  12.617721
    41  C    9.116206  11.747062  12.518945  12.362158  13.695720
    42  H    8.929830  11.496632  12.184810  12.224684  13.390776
    43  H    9.981381  12.314809  13.046533  12.902662  14.170100
    44  H    9.443307  12.430129  13.259262  13.019658  14.465452
    45  C    2.392623   4.472663   5.184421   5.511596   6.569618
    46  H    2.479863   5.500201   6.211320   6.494652   7.595284
    47  H    3.165468   4.186674   4.647863   5.388068   6.028226
    48  O    5.010175   3.454647   4.670189   2.349750   5.055230
    49  O    4.882731   2.985197   4.192277   2.311140   4.754769
    50  N    4.877981   2.534229   3.766101   1.500787   4.233967
                   11         12         13         14         15
    11  H    0.000000
    12  C    3.882091   0.000000
    13  H    4.098863   2.555154   0.000000
    14  C    3.392720   1.405622   3.347039   0.000000
    15  H    2.457412   3.403243   4.594358   2.147925   0.000000
    16  O    4.550932   2.354682   4.393326   1.354759   2.677631
    17  H    4.553031   3.178842   5.057184   1.921719   2.310839
    18  O    5.229525   1.354894   3.238925   2.420367   4.559212
    19  C    6.123846   2.389702   3.525039   3.116446   5.185093
    20  H    6.101391   2.677345   2.885261   3.495218   5.436141
    21  H    7.101241   3.259764   4.390945   4.065224   6.166988
    22  H    6.160359   2.724437   4.054410   2.934456   4.816180
    23  C    7.363606   8.726728   7.959531   9.405184   9.619571
    24  H    7.296076   8.604329   7.532181   9.321992   9.581599
    25  C    6.371414   8.034516   7.544498   8.571122   8.616559
    26  H    6.691551   8.356262   8.173642   8.835740   8.829370
    27  C    5.016392   7.067940   6.512256   7.470725   7.346602
    28  O    4.323835   6.731594   6.537214   6.942036   6.590864
    29  C    8.732638   9.858803   9.171483  10.612507  10.928768
    30  C    9.700767  10.605484   9.677897  11.457755  11.898397
    31  C    9.307969  10.444369  10.059783  11.150582  11.422616
    32  C   11.011869  11.769172  10.917183  12.664863  13.169415
    33  H    9.528835  10.390315   9.223190  11.268545  11.741704
    34  C   10.663640  11.624196  11.259392  12.386117  12.737399
    35  H    8.826202  10.116960   9.949977  10.726903  10.888736
    36  C   11.458530  12.246658  11.656031  13.101820  13.565634
    37  H   11.790427  12.416745  11.419560  13.366522  13.943548
    38  O   12.774088  13.441322  12.898941  14.328017  14.843423
    39  H   13.268805  13.842541  13.159806  14.778304  15.354653
    40  O   11.333813  12.285628  12.161776  12.999413  13.313334
    41  C   12.291872  13.518895  13.357720  14.165416  14.334949
    42  H   11.869514  13.398095  13.195903  13.960217  13.974884
    43  H   12.832308  13.997912  14.009160  14.618345  14.784064
    44  H   13.043328  14.215758  13.910140  14.916120  15.136502
    45  C    4.846878   6.853068   5.767218   7.301189   7.232161
    46  H    5.836459   7.854687   6.575115   8.329285   8.239124
    47  H    4.149865   6.647663   5.556017   6.908070   6.581914
    48  O    5.567714   3.047611   2.456652   4.406924   6.132020
    49  O    4.976503   3.176596   3.680790   4.351489   5.797507
    50  N    4.656802   2.432422   2.524472   3.725665   5.317632
                   16         17         18         19         20
    16  O    0.000000
    17  H    0.968850   0.000000
    18  O    2.752710   3.712270   0.000000
    19  C    3.048477   3.972626   1.447010   0.000000
    20  H    3.677762   4.549102   2.091596   1.092156   0.000000
    21  H    3.869704   4.787344   2.030412   1.088175   1.783052
    22  H    2.452541   3.268400   2.099377   1.089860   1.792597
    23  C   10.716600  11.161810   9.459130  10.583575  10.333309
    24  H   10.655960  11.125238   9.342315  10.362504  10.005436
    25  C    9.865329  10.237274   8.863719  10.065458   9.909162
    26  H   10.077567  10.415805   9.160098  10.441383  10.391377
    27  C    8.786314   9.097742   8.040138   9.196448   9.013310
    28  O    8.207457   8.422201   7.784095   8.998233   8.926702
    29  C   11.895450  12.377595  10.478257  11.620698  11.398829
    30  C   12.747541  13.284945  11.147271  12.194289  11.882885
    31  C   12.385734  12.838801  11.034774  12.264975  12.154211
    32  C   13.929464  14.490138  12.229642  13.284310  12.999496
    33  H   12.574090  13.128665  10.938895  11.894818  11.493890
    34  C   13.597446  14.079607  12.128278  13.351249  13.250865
    35  H   11.932925  12.332731  10.754114  12.045000  12.011609
    36  C   14.332782  14.868519  12.692257  13.833194  13.648303
    37  H   14.630939  15.223911  12.828345  13.812589  13.470202
    38  O   15.534349  16.087803  13.820894  14.958615  14.793024
    39  H   15.994828  16.577725  14.191211  15.271108  15.050657
    40  O   14.157585  14.611012  12.761591  14.043412  14.035201
    41  C   15.336649  15.742041  14.058392  15.350866  15.333097
    42  H   15.153081  15.504990  14.034387  15.333763  15.300128
    43  H   15.742638  16.132756  14.503555  15.829583  15.878456
    44  H   16.110430  16.545444  14.732259  15.985231  15.914613
    45  C    8.653110   8.995590   7.852400   8.835592   8.480859
    46  H    9.682733  10.027054   8.823862   9.753432   9.331123
    47  H    8.243336   8.492451   7.767106   8.697913   8.339041
    48  O    5.326237   6.196337   2.950350   3.558176   3.191889
    49  O    5.380260   6.144926   3.366182   4.590734   4.666060
    50  N    4.776372   5.584956   2.679099   3.712446   3.604746
                   21         22         23         24         25
    21  H    0.000000
    22  H    1.783238   0.000000
    23  C   11.097640  11.306554   0.000000
    24  H   10.899956  11.100521   1.086072   0.000000
    25  C   10.637977  10.702660   1.351679   2.101562   0.000000
    26  H   10.981947  11.051857   2.126707   3.077274   1.086205
    27  C    9.877623   9.744265   2.500360   2.728903   1.463089
    28  O    9.722510   9.439770   3.588250   3.943224   2.336426
    29  C   12.042486  12.399815   1.456492   2.143860   2.514976
    30  C   12.568451  13.033197   2.460922   2.586383   3.743306
    31  C   12.647815  13.023852   2.523138   3.443896   3.050108
    32  C   13.586809  14.157760   3.747682   3.974377   4.938919
    33  H   12.291038  12.741590   2.658739   2.316802   4.009554
    34  C   13.662953  14.150329   3.789016   4.581855   4.432560
    35  H   12.455441  12.746046   2.784492   3.842960   2.796572
    36  C   14.107989  14.688883   4.274268   4.797407   5.227008
    37  H   14.083549  14.718272   4.611808   4.643817   5.874621
    38  O   15.175024  15.838450   5.632288   6.138612   6.556188
    39  H   15.468936  16.179815   6.053499   6.411281   7.099730
    40  O   14.321957  14.817161   4.903064   5.799269   5.288669
    41  C   15.667302  16.097000   5.805024   6.673688   6.174866
    42  H   15.722140  16.033891   5.525044   6.403033   5.791606
    43  H   16.114330  16.559529   6.676609   7.598765   6.915659
    44  H   16.285320  16.767212   6.227516   6.981000   6.787828
    45  C    9.569806   9.392512   3.025239   2.649127   2.600999
    46  H   10.472429  10.335871   2.820318   2.213553   2.792852
    47  H    9.521976   9.143882   4.043725   3.700911   3.447716
    48  O    3.893144   4.534132   7.440014   7.132292   7.202541
    49  O    4.926407   5.414796   6.335403   6.333463   5.865539
    50  N    4.185115   4.555815   6.916525   6.745123   6.487779
                   26         27         28         29         30
    26  H    0.000000
    27  C    2.143582   0.000000
    28  O    2.518644   1.227373   0.000000
    29  C    2.801170   3.874198   4.851355   0.000000
    30  C    4.180149   4.954681   6.042594   1.404394   0.000000
    31  C    2.798053   4.513150   5.240839   1.409077   2.410813
    32  C    5.182070   6.243595   7.271977   2.432777   1.389187
    33  H    4.675105   4.985165   6.162979   2.156681   1.085037
    34  C    4.140925   5.895415   6.614662   2.438157   2.792250
    35  H    2.180260   4.196532   4.697580   2.176298   3.406460
    36  C    5.177773   6.650562   7.528519   2.818640   2.414742
    37  H    6.204927   7.105434   8.187912   3.415994   2.151462
    38  O    6.431864   7.991470   8.836212   4.176299   3.674575
    39  H    7.095787   8.495756   9.418807   4.624753   3.841773
    40  O    4.746821   6.728594   7.264218   3.681212   4.162415
    41  C    5.614273   7.586278   8.084075   4.600024   4.986288
    42  H    5.220927   7.136930   7.587421   4.476973   5.009009
    43  H    6.236867   8.297797   8.681839   5.524943   5.985506
    44  H    6.359794   8.219361   8.827574   4.911680   4.996138
    45  C    3.540690   1.536942   2.393003   4.476128   5.218131
    46  H    3.817294   2.172118   3.180704   4.180519   4.737184
    47  H    4.253869   2.127414   2.482367   5.496228   6.267834
    48  O    7.730464   6.582292   6.778298   8.376139   8.788130
    49  O    6.153328   5.379965   5.397120   7.214839   7.892539
    50  N    6.914476   5.806019   5.842984   7.911552   8.504861
                   31         32         33         34         35
    31  C    0.000000
    32  C    2.782954   0.000000
    33  H    3.398177   2.141351   0.000000
    34  C    1.384630   2.425431   3.877270   0.000000
    35  H    1.084314   3.866814   4.313658   2.115600   0.000000
    36  C    2.416697   1.394929   3.393096   1.412248   3.385159
    37  H    3.869622   1.086697   2.467625   3.409758   4.953406
    38  O    3.636737   2.418003   4.554318   2.370762   4.484711
    39  H    4.334859   2.462902   4.550396   3.190280   5.269578
    40  O    2.380402   3.683834   5.247329   1.371106   2.569891
    41  C    3.367119   4.383979   6.044935   2.374957   3.497743
    42  H    3.306484   4.630202   6.021759   2.684431   3.294507
    43  H    4.207520   5.370893   7.058147   3.263406   4.154851
    44  H    3.869286   4.148785   6.005235   2.682085   4.247940
    45  C    5.450245   6.597671   4.919967   6.781778   5.376503
    46  H    5.286047   6.113983   4.331435   6.548399   5.371048
    47  H    6.401006   7.645237   5.956376   7.752738   6.230079
    48  O    9.154995   9.852292   8.436588  10.184989   9.127596
    49  O    7.737283   8.922068   7.793943   8.786672   7.531056
    50  N    8.581653   9.605181   8.265360   9.675507   8.427427
                   36         37         38         39         40
    36  C    0.000000
    37  H    2.149464   0.000000
    38  O    1.358707   2.673997   0.000000
    39  H    1.921302   2.298408   0.968453   0.000000
    40  O    2.420929   4.565291   2.746208   3.707381   0.000000
    41  C    3.103509   5.147382   3.079697   3.989028   1.436996
    42  H    3.543156   5.455078   3.792168   4.648105   2.087742
    43  H    4.035187   6.114360   3.834666   4.740276   2.031250
    44  H    2.885608   4.721074   2.495140   3.284435   2.098376
    45  C    7.283493   7.292125   8.641493   9.001460   7.792271
    46  H    6.908674   6.732441   8.254774   8.545805   7.651575
    47  H    8.308453   8.338685   9.667014  10.043610   8.708723
    48  O   10.505820  10.315218  11.629342  11.866806  11.024036
    49  O    9.334503   9.563860  10.456745  10.844539   9.454242
    50  N   10.148020  10.183009  11.306521  11.636685  10.435169
                   41         42         43         44         45
    41  C    0.000000
    42  H    1.094741   0.000000
    43  H    1.089546   1.782526   0.000000
    44  H    1.091708   1.790268   1.780562   0.000000
    45  C    8.650378   8.216325   9.457166   9.153890   0.000000
    46  H    8.407153   7.937779   9.291674   8.806851   1.090065
    47  H    9.511107   9.005599  10.290120  10.052204   1.090697
    48  O   12.343100  12.374741  12.932661  12.859549   6.135676
    49  O   10.772503  10.800203  11.259341  11.405161   5.437832
    50  N   11.730779  11.712334  12.275644  12.327704   5.562116
                   46         47         48         49         50
    46  H    0.000000
    47  H    1.766075   0.000000
    48  O    6.918489   6.345255   0.000000
    49  O    6.350702   5.749858   2.166426   0.000000
    50  N    6.461771   5.725927   1.219635   1.222048   0.000000
 Stoichiometry    C21H20NO8(2)
 Framework group  C1[X(C21H20NO8)]
 Deg. of freedom   144
 Full point group                 C1      NOp   1
 Largest Abelian subgroup         C1      NOp   1
 Largest concise Abelian subgroup C1      NOp   1
                         Standard orientation:                         
 ---------------------------------------------------------------------
 Center     Atomic      Atomic             Coordinates (Angstroms)
 Number     Number       Type             X           Y           Z
 ---------------------------------------------------------------------
      1          6           0        2.237520    1.132490    0.670090
      2          1           0        1.856243    2.121726    0.438253
      3          6           0        1.499557    0.325122    1.459080
      4          1           0        1.842738   -0.657720    1.764575
      5          6           0        0.183448    0.671164    2.018292
      6          8           0       -0.394379   -0.128008    2.744948
      7          6           0        3.548895    0.876085    0.091118
      8          6           0        4.320595    1.976524   -0.299197
      9          6           0        4.179074   -0.393421   -0.025180
     10          6           0        5.603717    1.840084   -0.814975
     11          1           0        3.900122    2.969905   -0.189284
     12          6           0        5.437001   -0.567700   -0.629717
     13          1           0        4.720609   -0.505942    1.822176
     14          6           0        6.165996    0.577006   -0.995758
     15          1           0        6.164486    2.721825   -1.111231
     16          8           0        7.382087    0.379504   -1.559220
     17          1           0        7.779373    1.225674   -1.813835
     18          8           0        5.865325   -1.822954   -0.906513
     19          6           0        7.009977   -2.305479   -0.164368
     20          1           0        6.798962   -2.285740    0.907026
     21          1           0        7.157433   -3.333001   -0.490836
     22          1           0        7.897029   -1.713554   -0.389219
     23          6           0       -3.064847    0.791559    0.793929
     24          1           0       -2.721786    0.653561    1.815114
     25          6           0       -2.301538    1.515148   -0.055079
     26          1           0       -2.601693    1.667626   -1.087793
     27          6           0       -1.025308    2.145113    0.284053
     28          8           0       -0.403295    2.779067   -0.563088
     29          6           0       -4.331801    0.137332    0.496973
     30          6           0       -4.951399   -0.619897    1.504458
     31          6           0       -4.976420    0.226242   -0.752852
     32          6           0       -6.155804   -1.272619    1.273797
     33          1           0       -4.477159   -0.706122    2.476551
     34          6           0       -6.180454   -0.413472   -0.994236
     35          1           0       -4.543467    0.798825   -1.565525
     36          6           0       -6.776418   -1.184894    0.027615
     37          1           0       -6.615222   -1.865603    2.060063
     38          8           0       -7.940533   -1.822894   -0.262002
     39          1           0       -8.246337   -2.325316    0.507386
     40          8           0       -6.740117   -0.349377   -2.244277
     41          6           0       -7.934172    0.443461   -2.347219
     42          1           0       -7.720795    1.487889   -2.098023
     43          1           0       -8.254126    0.377759   -3.386653
     44          1           0       -8.724573    0.060216   -1.698979
     45          6           0       -0.459206    2.027296    1.708075
     46          1           0       -1.248193    2.180758    2.444411
     47          1           0        0.274475    2.825905    1.824500
     48          8           0        3.613505   -2.486539    0.880532
     49          8           0        2.500529   -1.762385   -0.831276
     50          7           0        3.360918   -1.650407    0.029301
 ---------------------------------------------------------------------
 Rotational constants (GHZ):           0.3380069           0.0476274           0.0465493
 Standard basis: 6-311+G(d) (5D, 7F)
 There are   750 symmetry adapted cartesian basis functions of A   symmetry.
 There are   720 symmetry adapted basis functions of A   symmetry.
   720 basis functions,  1180 primitive gaussians,   750 cartesian basis functions
   109 alpha electrons      108 beta electrons
       nuclear repulsion energy      2692.0068568730 Hartrees.
 NAtoms=   50 NActive=   50 NUniq=   50 SFac= 1.00D+00 NAtFMM=   60 NAOKFM=F Big=F
 Integral buffers will be    131072 words long.
 Raffenetti 2 integral format.
 Two-electron integral symmetry is turned on.
 Force inversion solution in PCM.
 Using the following non-standard input for PCM:
 Eps=7
 EpsInf=1.85341
 HbondAcidity=0
 HbondBasicity=0.48
 SurfaceTensionAtInterface=60.62
 CarbonAromaticity=0
 ElectronegativeHalogenicity=0
 --- end of non-standard input.
 Force inversion solution in PCM.
 ------------------------------------------------------------------------------
 Polarizable Continuum Model (PCM)
 =================================
 Model                : PCM.
 Atomic radii         : SMD-Coulomb.
 Polarization charges : Total charges.
 Charge compensation  : None.
 Solution method      : Matrix inversion.
 Cavity type          : VdW (van der Waals Surface) (Alpha=1.000).
 Cavity algorithm     : GePol (No added spheres)
                        Default sphere list used, NSphG=   50.
                        Lebedev-Laikov grids with approx.  5.0 points / Ang**2.
                        Smoothing algorithm: York/Karplus (Gamma=1.0000).
                        Polarization charges: spherical gaussians, with
                                              point-specific exponents (IZeta= 3).
                        Self-potential: point-specific (ISelfS= 7).
                        Self-field    : sphere-specific E.n sum rule (ISelfD= 2).
 1st derivatives      : Analytical E(r).r(x)/FMM algorithm (CHGder, D1EAlg=3).
                        Cavity 1st derivative terms included.
 2nd derivatives      : Analytical E(r).r(xy)/FMM algorithm (CHGder, D2EAlg=3).
                        Cavity 2nd derivative terms included.
 Solvent              : Generic,
                        Eps                           =   7.000000
                        Eps(infinity)                 =   1.853410
                        RSolv                         =   0.000000 Ang.
                        Molar volume                  =   0.000000 cm**3/mol
                        Thermal expansion coefficient =   0.000000 K**-1
                        Absolute temperature          = 298.150000 K
                        Numeral density               =   0.000000 Ang**-3
                        Hydrogen bond acidity         =   0.000000
                        Hydrogen bond basicity        =   0.480000
                        Surface tension at interface  =  60.620000 (cal/mol)*Ang**-2
                        Carbon aromaticity            =   0.000000
                        Electronegative halogenicity  =   0.000000
 ------------------------------------------------------------------------------
 ------------------------------------------------------------------------------
 Atomic radii for non-electrostatic terms: SMD-CDS.
 ------------------------------------------------------------------------------
 Nuclear repulsion after PCM non-electrostatic terms =     2692.0033930816 Hartrees.
 One-electron integrals computed using PRISM.
 PrsmSu:  requested number of processors reduced to:  23 ShMem   1 Linda.
 PrsmSu:  requested number of processors reduced to:  66 ShMem   1 Linda.
 NBasis=   720 RedAO= T EigKep=  1.04D-06  NBF=   720
 NBsUse=   716 1.00D-06 EigRej=  6.45D-07 NBFU=   716
 Initial guess from the checkpoint file:  "teste3-1.chk"
 B after Tr=     0.000000   -0.000000   -0.000000
         Rot=    1.000000    0.000000    0.000000    0.000000 Ang=   0.00 deg.
 Initial guess <Sx>= 0.0000 <Sy>= 0.0000 <Sz>= 0.5000 <S**2>= 0.7658 S= 0.5079
 Requested convergence on RMS density matrix=1.00D-08 within 128 cycles.
 Requested convergence on MAX density matrix=1.00D-06.
 Requested convergence on             energy=1.00D-06.
 No special actions if energy rises.
 CoulSu:  requested number of processors reduced to:  54 ShMem   1 Linda.
 CalDSu:  requested number of processors reduced to:  45 ShMem   1 Linda.
 CoulSu:  requested number of processors reduced to:  61 ShMem   1 Linda.
 CoulSu:  requested number of processors reduced to:  25 ShMem   1 Linda.
 Inv3:  Mode=1 IEnd=    50135232.
 Iteration    1 A*A^-1 deviation from unit magnitude is 3.77D-15 for   3060.
 Iteration    1 A*A^-1 deviation from orthogonality  is 2.60D-15 for   1247    356.
 Iteration    1 A^-1*A deviation from unit magnitude is 3.55D-15 for   3060.
 Iteration    1 A^-1*A deviation from orthogonality  is 1.33D-14 for   1529   1510.
 CoulSu:  requested number of processors reduced to:  25 ShMem   1 Linda.
 CoulSu:  requested number of processors reduced to:  25 ShMem   1 Linda.
 CoulSu:  requested number of processors reduced to:  65 ShMem   1 Linda.
 CoulSu:  requested number of processors reduced to:  55 ShMem   1 Linda.
 CalDSu:  requested number of processors reduced to:  45 ShMem   1 Linda.
 CoulSu:  requested number of processors reduced to:  65 ShMem   1 Linda.
 CoulSu:  requested number of processors reduced to:  55 ShMem   1 Linda.
 CalDSu:  requested number of processors reduced to:  45 ShMem   1 Linda.
 CoulSu:  requested number of processors reduced to:  65 ShMem   1 Linda.
 CoulSu:  requested number of processors reduced to:  56 ShMem   1 Linda.
 CalDSu:  requested number of processors reduced to:  45 ShMem   1 Linda.
 CoulSu:  requested number of processors reduced to:  65 ShMem   1 Linda.
 CoulSu:  requested number of processors reduced to:  56 ShMem   1 Linda.
 CalDSu:  requested number of processors reduced to:  45 ShMem   1 Linda.
 CoulSu:  requested number of processors reduced to:  65 ShMem   1 Linda.
 CoulSu:  requested number of processors reduced to:  56 ShMem   1 Linda.
 CalDSu:  requested number of processors reduced to:  45 ShMem   1 Linda.
 CoulSu:  requested number of processors reduced to:  65 ShMem   1 Linda.
 CoulSu:  requested number of processors reduced to:  56 ShMem   1 Linda.
 CalDSu:  requested number of processors reduced to:  45 ShMem   1 Linda.
 CoulSu:  requested number of processors reduced to:  65 ShMem   1 Linda.
 CoulSu:  requested number of processors reduced to:  57 ShMem   1 Linda.
 CalDSu:  requested number of processors reduced to:  45 ShMem   1 Linda.
 CoulSu:  requested number of processors reduced to:  65 ShMem   1 Linda.
 CoulSu:  requested number of processors reduced to:  57 ShMem   1 Linda.
 CalDSu:  requested number of processors reduced to:  45 ShMem   1 Linda.
 CoulSu:  requested number of processors reduced to:  65 ShMem   1 Linda.
 CoulSu:  requested number of processors reduced to:  41 ShMem   1 Linda.
 CoulSu:  requested number of processors reduced to:  38 ShMem   1 Linda.
 CoulSu:  requested number of processors reduced to:  65 ShMem   1 Linda.
 Error on total polarization charges =  0.04316
 SCF Done:  E(UB3LYP) =  -1468.94901332     A.U. after    9 cycles
            NFock=  9  Conv=0.48D-08     -V/T= 2.0038
 <Sx>= 0.0000 <Sy>= 0.0000 <Sz>= 0.5000 <S**2>= 0.7658 S= 0.5079
 <L.S>=  0.00000000000    
 SMD-CDS (non-electrostatic) energy       (kcal/mol) =      -2.17
 (included in total energy above)
 Annihilation of the first spin contaminant:
 S**2 before annihilation     0.7658,   after     0.7501
 DoSCS=F DFT=T ScalE2(SS,OS)=  1.000000  1.000000
 Range of M.O.s used for correlation:     1   716
 NBasis=   720 NAE=   109 NBE=   108 NFC=     0 NFV=     0
 NROrb=    716 NOA=   109 NOB=   108 NVA=   607 NVB=   608

 **** Warning!!: The largest alpha MO coefficient is  0.12284046D+03


 **** Warning!!: The largest beta MO coefficient is  0.12318922D+03

 PrsmSu:  requested number of processors reduced to:  18 ShMem   1 Linda.
 PrsmSu:  requested number of processors reduced to:   2 ShMem   1 Linda.
 Symmetrizing basis deriv contribution to polar:
 IMax=3 JMax=2 DiffMx= 0.00D+00
 G2DrvN: will do     1 centers at a time, making   51 passes.
 Estimated number of processors is:   17
 Calling FoFCou, ICntrl=  3107 FMM=F I1Cent=   0 AccDes= 0.00D+00.
 CoulSu:  requested number of processors reduced to:  23 ShMem   1 Linda.
 CalDSu:  requested number of processors reduced to:  24 ShMem   1 Linda.
 Calling FoFCou, ICntrl=  3107 FMM=F I1Cent=   0 AccDes= 0.00D+00.
 CoulSu:  requested number of processors reduced to:  17 ShMem   1 Linda.
 CalDSu:  requested number of processors reduced to:  24 ShMem   1 Linda.
 Calling FoFCou, ICntrl=  3107 FMM=F I1Cent=   0 AccDes= 0.00D+00.
 CoulSu:  requested number of processors reduced to:  17 ShMem   1 Linda.
 CalDSu:  requested number of processors reduced to:  24 ShMem   1 Linda.
 Calling FoFCou, ICntrl=  3107 FMM=F I1Cent=   0 AccDes= 0.00D+00.
 CoulSu:  requested number of processors reduced to:  17 ShMem   1 Linda.
 CalDSu:  requested number of processors reduced to:  24 ShMem   1 Linda.
 Calling FoFCou, ICntrl=  3107 FMM=F I1Cent=   0 AccDes= 0.00D+00.
 CoulSu:  requested number of processors reduced to:  17 ShMem   1 Linda.
 CalDSu:  requested number of processors reduced to:  24 ShMem   1 Linda.
 Calling FoFCou, ICntrl=  3107 FMM=F I1Cent=   0 AccDes= 0.00D+00.
 CoulSu:  requested number of processors reduced to:  17 ShMem   1 Linda.
 CalDSu:  requested number of processors reduced to:  24 ShMem   1 Linda.
 Calling FoFCou, ICntrl=  3107 FMM=F I1Cent=   0 AccDes= 0.00D+00.
 CoulSu:  requested number of processors reduced to:  17 ShMem   1 Linda.
 CalDSu:  requested number of processors reduced to:  24 ShMem   1 Linda.
 Calling FoFCou, ICntrl=  3107 FMM=F I1Cent=   0 AccDes= 0.00D+00.
 CoulSu:  requested number of processors reduced to:  17 ShMem   1 Linda.
 CalDSu:  requested number of processors reduced to:  24 ShMem   1 Linda.
 Calling FoFCou, ICntrl=  3107 FMM=F I1Cent=   0 AccDes= 0.00D+00.
 CoulSu:  requested number of processors reduced to:  17 ShMem   1 Linda.
 CalDSu:  requested number of processors reduced to:  24 ShMem   1 Linda.
 Calling FoFCou, ICntrl=  3107 FMM=F I1Cent=   0 AccDes= 0.00D+00.
 CoulSu:  requested number of processors reduced to:  17 ShMem   1 Linda.
 CalDSu:  requested number of processors reduced to:  24 ShMem   1 Linda.
 Calling FoFCou, ICntrl=  3107 FMM=F I1Cent=   0 AccDes= 0.00D+00.
 CoulSu:  requested number of processors reduced to:  17 ShMem   1 Linda.
 CalDSu:  requested number of processors reduced to:  24 ShMem   1 Linda.
 Calling FoFCou, ICntrl=  3107 FMM=F I1Cent=   0 AccDes= 0.00D+00.
 CoulSu:  requested number of processors reduced to:  17 ShMem   1 Linda.
 CalDSu:  requested number of processors reduced to:  24 ShMem   1 Linda.
 Calling FoFCou, ICntrl=  3107 FMM=F I1Cent=   0 AccDes= 0.00D+00.
 CoulSu:  requested number of processors reduced to:  17 ShMem   1 Linda.
 CalDSu:  requested number of processors reduced to:  24 ShMem   1 Linda.
 Calling FoFCou, ICntrl=  3107 FMM=F I1Cent=   0 AccDes= 0.00D+00.
 CoulSu:  requested number of processors reduced to:  17 ShMem   1 Linda.
 CalDSu:  requested number of processors reduced to:  24 ShMem   1 Linda.
 Calling FoFCou, ICntrl=  3107 FMM=F I1Cent=   0 AccDes= 0.00D+00.
 CoulSu:  requested number of processors reduced to:  17 ShMem   1 Linda.
 CalDSu:  requested number of processors reduced to:  24 ShMem   1 Linda.
 Calling FoFCou, ICntrl=  3107 FMM=F I1Cent=   0 AccDes= 0.00D+00.
 CoulSu:  requested number of processors reduced to:  17 ShMem   1 Linda.
 CalDSu:  requested number of processors reduced to:  24 ShMem   1 Linda.
 Calling FoFCou, ICntrl=  3107 FMM=F I1Cent=   0 AccDes= 0.00D+00.
 CoulSu:  requested number of processors reduced to:  17 ShMem   1 Linda.
 CalDSu:  requested number of processors reduced to:  24 ShMem   1 Linda.
 Calling FoFCou, ICntrl=  3107 FMM=F I1Cent=   0 AccDes= 0.00D+00.
 CoulSu:  requested number of processors reduced to:  17 ShMem   1 Linda.
 CalDSu:  requested number of processors reduced to:  24 ShMem   1 Linda.
 Calling FoFCou, ICntrl=  3107 FMM=F I1Cent=   0 AccDes= 0.00D+00.
 CoulSu:  requested number of processors reduced to:  17 ShMem   1 Linda.
 CalDSu:  requested number of processors reduced to:  24 ShMem   1 Linda.
 Calling FoFCou, ICntrl=  3107 FMM=F I1Cent=   0 AccDes= 0.00D+00.
 CoulSu:  requested number of processors reduced to:  17 ShMem   1 Linda.
 CalDSu:  requested number of processors reduced to:  24 ShMem   1 Linda.
 Calling FoFCou, ICntrl=  3107 FMM=F I1Cent=   0 AccDes= 0.00D+00.
 CoulSu:  requested number of processors reduced to:  17 ShMem   1 Linda.
 CalDSu:  requested number of processors reduced to:  24 ShMem   1 Linda.
 Calling FoFCou, ICntrl=  3107 FMM=F I1Cent=   0 AccDes= 0.00D+00.
 CoulSu:  requested number of processors reduced to:  17 ShMem   1 Linda.
 CalDSu:  requested number of processors reduced to:  24 ShMem   1 Linda.
 Calling FoFCou, ICntrl=  3107 FMM=F I1Cent=   0 AccDes= 0.00D+00.
 CoulSu:  requested number of processors reduced to:  17 ShMem   1 Linda.
 CalDSu:  requested number of processors reduced to:  24 ShMem   1 Linda.
 Calling FoFCou, ICntrl=  3107 FMM=F I1Cent=   0 AccDes= 0.00D+00.
 CoulSu:  requested number of processors reduced to:  17 ShMem   1 Linda.
 CalDSu:  requested number of processors reduced to:  24 ShMem   1 Linda.
 Calling FoFCou, ICntrl=  3107 FMM=F I1Cent=   0 AccDes= 0.00D+00.
 CoulSu:  requested number of processors reduced to:  17 ShMem   1 Linda.
 CalDSu:  requested number of processors reduced to:  24 ShMem   1 Linda.
 Calling FoFCou, ICntrl=  3107 FMM=F I1Cent=   0 AccDes= 0.00D+00.
 CoulSu:  requested number of processors reduced to:  17 ShMem   1 Linda.
 CalDSu:  requested number of processors reduced to:  24 ShMem   1 Linda.
 Calling FoFCou, ICntrl=  3107 FMM=F I1Cent=   0 AccDes= 0.00D+00.
 CoulSu:  requested number of processors reduced to:  17 ShMem   1 Linda.
 CalDSu:  requested number of processors reduced to:  24 ShMem   1 Linda.
 Calling FoFCou, ICntrl=  3107 FMM=F I1Cent=   0 AccDes= 0.00D+00.
 CoulSu:  requested number of processors reduced to:  17 ShMem   1 Linda.
 CalDSu:  requested number of processors reduced to:  24 ShMem   1 Linda.
 Calling FoFCou, ICntrl=  3107 FMM=F I1Cent=   0 AccDes= 0.00D+00.
 CoulSu:  requested number of processors reduced to:  17 ShMem   1 Linda.
 CalDSu:  requested number of processors reduced to:  24 ShMem   1 Linda.
 Calling FoFCou, ICntrl=  3107 FMM=F I1Cent=   0 AccDes= 0.00D+00.
 CoulSu:  requested number of processors reduced to:  17 ShMem   1 Linda.
 CalDSu:  requested number of processors reduced to:  24 ShMem   1 Linda.
 Calling FoFCou, ICntrl=  3107 FMM=F I1Cent=   0 AccDes= 0.00D+00.
 CoulSu:  requested number of processors reduced to:  17 ShMem   1 Linda.
 CalDSu:  requested number of processors reduced to:  24 ShMem   1 Linda.
 Calling FoFCou, ICntrl=  3107 FMM=F I1Cent=   0 AccDes= 0.00D+00.
 CoulSu:  requested number of processors reduced to:  17 ShMem   1 Linda.
 CalDSu:  requested number of processors reduced to:  24 ShMem   1 Linda.
 Calling FoFCou, ICntrl=  3107 FMM=F I1Cent=   0 AccDes= 0.00D+00.
 CoulSu:  requested number of processors reduced to:  17 ShMem   1 Linda.
 CalDSu:  requested number of processors reduced to:  24 ShMem   1 Linda.
 Calling FoFCou, ICntrl=  3107 FMM=F I1Cent=   0 AccDes= 0.00D+00.
 CoulSu:  requested number of processors reduced to:  17 ShMem   1 Linda.
 CalDSu:  requested number of processors reduced to:  24 ShMem   1 Linda.
 Calling FoFCou, ICntrl=  3107 FMM=F I1Cent=   0 AccDes= 0.00D+00.
 CoulSu:  requested number of processors reduced to:  17 ShMem   1 Linda.
 CalDSu:  requested number of processors reduced to:  24 ShMem   1 Linda.
 Calling FoFCou, ICntrl=  3107 FMM=F I1Cent=   0 AccDes= 0.00D+00.
 CoulSu:  requested number of processors reduced to:  17 ShMem   1 Linda.
 CalDSu:  requested number of processors reduced to:  24 ShMem   1 Linda.
 Calling FoFCou, ICntrl=  3107 FMM=F I1Cent=   0 AccDes= 0.00D+00.
 CoulSu:  requested number of processors reduced to:  17 ShMem   1 Linda.
 CalDSu:  requested number of processors reduced to:  24 ShMem   1 Linda.
 Calling FoFCou, ICntrl=  3107 FMM=F I1Cent=   0 AccDes= 0.00D+00.
 CoulSu:  requested number of processors reduced to:  17 ShMem   1 Linda.
 CalDSu:  requested number of processors reduced to:  24 ShMem   1 Linda.
 Calling FoFCou, ICntrl=  3107 FMM=F I1Cent=   0 AccDes= 0.00D+00.
 CoulSu:  requested number of processors reduced to:  17 ShMem   1 Linda.
 CalDSu:  requested number of processors reduced to:  24 ShMem   1 Linda.
 Calling FoFCou, ICntrl=  3107 FMM=F I1Cent=   0 AccDes= 0.00D+00.
 CoulSu:  requested number of processors reduced to:  17 ShMem   1 Linda.
 CalDSu:  requested number of processors reduced to:  24 ShMem   1 Linda.
 Calling FoFCou, ICntrl=  3107 FMM=F I1Cent=   0 AccDes= 0.00D+00.
 CoulSu:  requested number of processors reduced to:  17 ShMem   1 Linda.
 CalDSu:  requested number of processors reduced to:  24 ShMem   1 Linda.
 Calling FoFCou, ICntrl=  3107 FMM=F I1Cent=   0 AccDes= 0.00D+00.
 CoulSu:  requested number of processors reduced to:  17 ShMem   1 Linda.
 CalDSu:  requested number of processors reduced to:  24 ShMem   1 Linda.
 Calling FoFCou, ICntrl=  3107 FMM=F I1Cent=   0 AccDes= 0.00D+00.
 CoulSu:  requested number of processors reduced to:  17 ShMem   1 Linda.
 CalDSu:  requested number of processors reduced to:  24 ShMem   1 Linda.
 Calling FoFCou, ICntrl=  3107 FMM=F I1Cent=   0 AccDes= 0.00D+00.
 CoulSu:  requested number of processors reduced to:  17 ShMem   1 Linda.
 CalDSu:  requested number of processors reduced to:  24 ShMem   1 Linda.
 Calling FoFCou, ICntrl=  3107 FMM=F I1Cent=   0 AccDes= 0.00D+00.
 CoulSu:  requested number of processors reduced to:  17 ShMem   1 Linda.
 CalDSu:  requested number of processors reduced to:  24 ShMem   1 Linda.
 Calling FoFCou, ICntrl=  3107 FMM=F I1Cent=   0 AccDes= 0.00D+00.
 CoulSu:  requested number of processors reduced to:  17 ShMem   1 Linda.
 CalDSu:  requested number of processors reduced to:  24 ShMem   1 Linda.
 Calling FoFCou, ICntrl=  3107 FMM=F I1Cent=   0 AccDes= 0.00D+00.
 CoulSu:  requested number of processors reduced to:  17 ShMem   1 Linda.
 CalDSu:  requested number of processors reduced to:  24 ShMem   1 Linda.
 Calling FoFCou, ICntrl=  3107 FMM=F I1Cent=   0 AccDes= 0.00D+00.
 CoulSu:  requested number of processors reduced to:  17 ShMem   1 Linda.
 CalDSu:  requested number of processors reduced to:  24 ShMem   1 Linda.
 Calling FoFCou, ICntrl=  3107 FMM=F I1Cent=   0 AccDes= 0.00D+00.
 CoulSu:  requested number of processors reduced to:  17 ShMem   1 Linda.
 CalDSu:  requested number of processors reduced to:  24 ShMem   1 Linda.
 Calling FoFCou, ICntrl=  3107 FMM=F I1Cent=   0 AccDes= 0.00D+00.
 CoulSu:  requested number of processors reduced to:  17 ShMem   1 Linda.
 CalDSu:  requested number of processors reduced to:  24 ShMem   1 Linda.
 Calling FoFCou, ICntrl=  3107 FMM=F I1Cent=   0 AccDes= 0.00D+00.
 CoulSu:  requested number of processors reduced to:  17 ShMem   1 Linda.
 CalDSu:  requested number of processors reduced to:  24 ShMem   1 Linda.
 NEqPCM:  Using equilibrium solvation (IEInf=0, Eps=   7.0000, EpsInf=   1.8534)
 G2PCM: DoFxE=T DoFxN=T DoGrad=T DoDP/DQ/DG/TGxP=FFFF NFrqRd=   0 IEInf=0 SqF1=F DoCFld=F IF1Alg=4.
 CoulSu:  requested number of processors reduced to:  47 ShMem   1 Linda.
 CoulSu:  requested number of processors reduced to:  29 ShMem   1 Linda.
 CoulSu:  requested number of processors reduced to:  41 ShMem   1 Linda.
 CoulSu:  requested number of processors reduced to:  35 ShMem   1 Linda.
 CoulSu:  requested number of processors reduced to:  39 ShMem   1 Linda.
 CoulSu:  requested number of processors reduced to:  47 ShMem   1 Linda.
 CoulSu:  requested number of processors reduced to:  41 ShMem   1 Linda.
 CoulSu:  requested number of processors reduced to:  28 ShMem   1 Linda.
 CoulSu:  requested number of processors reduced to:  47 ShMem   1 Linda.
 CoulSu:  requested number of processors reduced to:  41 ShMem   1 Linda.
 CoulSu:  requested number of processors reduced to:  47 ShMem   1 Linda.
 CoulSu:  requested number of processors reduced to:  29 ShMem   1 Linda.
 CoulSu:  requested number of processors reduced to:  47 ShMem   1 Linda.
 CoulSu:  requested number of processors reduced to:  29 ShMem   1 Linda.
 CoulSu:  requested number of processors reduced to:  41 ShMem   1 Linda.
 CoulSu:  requested number of processors reduced to:  35 ShMem   1 Linda.
 CoulSu:  requested number of processors reduced to:  39 ShMem   1 Linda.
 CoulSu:  requested number of processors reduced to:  47 ShMem   1 Linda.
 CoulSu:  requested number of processors reduced to:  41 ShMem   1 Linda.
 CoulSu:  requested number of processors reduced to:  28 ShMem   1 Linda.
 CoulSu:  requested number of processors reduced to:  47 ShMem   1 Linda.
 CoulSu:  requested number of processors reduced to:  41 ShMem   1 Linda.
 CoulSu:  requested number of processors reduced to:  47 ShMem   1 Linda.
 CoulSu:  requested number of processors reduced to:  29 ShMem   1 Linda.
 CoulSu:  requested number of processors reduced to:  29 ShMem   1 Linda.
 CoulSu:  requested number of processors reduced to:  29 ShMem   1 Linda.
 CoulSu:  requested number of processors reduced to:  45 ShMem   1 Linda.
 CoulSu:  requested number of processors reduced to:  29 ShMem   1 Linda.
 CoulSu:  requested number of processors reduced to:  29 ShMem   1 Linda.
 CoulSu:  requested number of processors reduced to:  45 ShMem   1 Linda.
 CoulSu:  requested number of processors reduced to:  29 ShMem   1 Linda.
 CoulSu:  requested number of processors reduced to:  29 ShMem   1 Linda.
 CoulSu:  requested number of processors reduced to:  45 ShMem   1 Linda.
 CoulSu:  requested number of processors reduced to:  29 ShMem   1 Linda.
 CoulSu:  requested number of processors reduced to:  29 ShMem   1 Linda.
 CoulSu:  requested number of processors reduced to:  45 ShMem   1 Linda.
 CoulSu:  requested number of processors reduced to:  29 ShMem   1 Linda.
 CoulSu:  requested number of processors reduced to:  29 ShMem   1 Linda.
 CoulSu:  requested number of processors reduced to:  45 ShMem   1 Linda.
 CoulSu:  requested number of processors reduced to:  29 ShMem   1 Linda.
 CoulSu:  requested number of processors reduced to:  29 ShMem   1 Linda.
 CoulSu:  requested number of processors reduced to:  45 ShMem   1 Linda.
 CoulSu:  requested number of processors reduced to:  29 ShMem   1 Linda.
 CoulSu:  requested number of processors reduced to:  29 ShMem   1 Linda.
 CoulSu:  requested number of processors reduced to:  45 ShMem   1 Linda.
 CoulSu:  requested number of processors reduced to:  29 ShMem   1 Linda.
 CoulSu:  requested number of processors reduced to:  29 ShMem   1 Linda.
 CoulSu:  requested number of processors reduced to:  45 ShMem   1 Linda.
 CoulSu:  requested number of processors reduced to:  29 ShMem   1 Linda.
 CoulSu:  requested number of processors reduced to:  29 ShMem   1 Linda.
 CoulSu:  requested number of processors reduced to:  45 ShMem   1 Linda.
 CoulSu:  requested number of processors reduced to:  29 ShMem   1 Linda.
 CoulSu:  requested number of processors reduced to:  29 ShMem   1 Linda.
 CoulSu:  requested number of processors reduced to:  45 ShMem   1 Linda.
 CoulSu:  requested number of processors reduced to:  29 ShMem   1 Linda.
 CoulSu:  requested number of processors reduced to:  29 ShMem   1 Linda.
 CoulSu:  requested number of processors reduced to:  45 ShMem   1 Linda.
 CoulSu:  requested number of processors reduced to:  29 ShMem   1 Linda.
 CoulSu:  requested number of processors reduced to:  29 ShMem   1 Linda.
 CoulSu:  requested number of processors reduced to:  45 ShMem   1 Linda.
 CoulSu:  requested number of processors reduced to:  29 ShMem   1 Linda.
 CoulSu:  requested number of processors reduced to:  29 ShMem   1 Linda.
 CoulSu:  requested number of processors reduced to:  45 ShMem   1 Linda.
 CoulSu:  requested number of processors reduced to:  29 ShMem   1 Linda.
 CoulSu:  requested number of processors reduced to:  29 ShMem   1 Linda.
 CoulSu:  requested number of processors reduced to:  45 ShMem   1 Linda.
 CoulSu:  requested number of processors reduced to:  29 ShMem   1 Linda.
 CoulSu:  requested number of processors reduced to:  29 ShMem   1 Linda.
 CoulSu:  requested number of processors reduced to:  45 ShMem   1 Linda.
 CoulSu:  requested number of processors reduced to:  29 ShMem   1 Linda.
 CoulSu:  requested number of processors reduced to:  29 ShMem   1 Linda.
 CoulSu:  requested number of processors reduced to:  45 ShMem   1 Linda.
 CoulSu:  requested number of processors reduced to:  29 ShMem   1 Linda.
 CoulSu:  requested number of processors reduced to:  45 ShMem   1 Linda.
 CoulSu:  requested number of processors reduced to:  29 ShMem   1 Linda.
 CoulSu:  requested number of processors reduced to:  29 ShMem   1 Linda.
 CoulSu:  requested number of processors reduced to:  45 ShMem   1 Linda.
 CoulSu:  requested number of processors reduced to:  29 ShMem   1 Linda.
 CoulSu:  requested number of processors reduced to:  29 ShMem   1 Linda.
 CoulSu:  requested number of processors reduced to:  45 ShMem   1 Linda.
 CoulSu:  requested number of processors reduced to:  29 ShMem   1 Linda.
 CoulSu:  requested number of processors reduced to:  29 ShMem   1 Linda.
 CoulSu:  requested number of processors reduced to:  45 ShMem   1 Linda.
[...]
 ,-0.00000059,0.00003787,0.00000524,0.00004687,0.00001046,0.00001981,-0
 .00000423,0.00000119,-0.00000115,-0.00006780,-0.00000535,-0.00003383,0
 .00000209,-0.00000511,0.00000751,-0.00001110,-0.00001492,0.00001208,0.
 00001113,0.00000146,-0.00000746,-0.00000023,0.00000033,0.00000134,-0.0
 0000128,-0.00000178,0.00000099,-0.00000029,0.00000168,-0.00000056,-0.0
 1892512,-0.04955476,-0.02784850,0.01461232,0.00497419,0.01755095,0.027
 59159,0.05663560,-0.00026541,0.00028623,-0.00073415,0.00084736,-0.0014
 8427,-0.00003743,0.00159708,0.00080081,0.00124628,-0.00012200,0.000254
 40,0.00013538,-0.02484326,-0.00315148,-0.01731396,0.00419012,0.0024815
 4,-0.00576787,0.00024973,-0.00031793,0.00029973,-0.00006260,0.00005058
 ,-0.00006779,-0.00017121,0.00004544,0.00006747,0.00003209,-0.00001821,
 -0.00005156,0.00000398,-0.00000343,0.00001773,0.00006759,-0.00002366,0
 .00005559,-0.00000390,0.00001524,0.00000066,-0.00002870,0.00000855,0.0
 0000806,-0.00000681,-0.00000009,0.00000180,0.00003298,-0.00000805,-0.0
 0000245,-0.00000091,-0.00000318,-0.00000464,-0.00003235,0.00001917,0.0
 0002385,0.00001009,0.00000313,-0.00000517,-0.00000163,0.00000029,-0.00
 000125,-0.00000119,0.00000008,0.00000141,-0.00000206,-0.00000208,0.000
 00074,0.00042714,0.00006030,0.00023917,0.00008264,-0.00001119,-0.00014
 954,0.00002391,0.00108006,-0.00003000,0.00022013,0.00005061,0.00013615
 ,0.00423545,0.00351646,0.00342046,0.00161317,-0.00002337,0.00085779,-0
 .00013097,0.00003245,-0.00003706,0.00004611,-0.00004151,0.00002374,0.0
 0004719,0.00006048,0.00001332,-0.00004075,-0.00003351,0.00000912,0.000
 00606,-0.00000235,-0.00000326,-0.00001261,0.00003988,-0.00003865,0.000
 00138,-0.00000665,0.00000998,0.00005615,0.00001382,0.00002337,-0.00000
 213,0.00000116,-0.00000295,-0.00006483,-0.00000972,-0.00003059,0.00000
 578,-0.00000580,0.00000437,-0.00001555,-0.00002271,0.00000748,0.000011
 28,0.00000134,-0.00000792,-0.00000063,0.00000070,0.00000223,-0.0000015
 8,-0.00000170,0.00000109,-0.00000060,0.00000120,-0.00000074,-0.1336177
 8,-0.03257791,-0.18055404,0.00321120,0.00140754,0.00343368,0.14242255,
 0.02750749,0.19481030,-0.00057608,0.00048777,0.00038894,0.00009719,-0.
 00009527,-0.00001569,0.00058294,-0.00025845,-0.00055340,-0.00087527,-0
 .00007009,0.00036522,-0.00047549,0.00018945,0.00022495,0.00029584,-0.0
 0017802,0.00019501,-0.00376846,0.00233166,-0.00079816,0.00020650,-0.00
 060619,-0.00168261,0.02147001,0.00468035,-0.01356514,0.00031536,-0.000
 11002,-0.00024625,-0.00031924,0.00000433,-0.00034034,-0.00005582,-0.00
 085399,0.00392284,-0.00082312,-0.00191283,-0.00184911,0.00080841,-0.00
 037719,-0.00033126,-0.00006737,-0.00001823,-0.00002715,-0.00031078,0.0
 0025420,-0.00000204,0.00012319,-0.00005478,-0.00000585,-0.00439713,0.0
 0243204,-0.00247656,0.00135969,-0.00010593,-0.00043041,0.00031402,0.00
 038330,-0.00009613,-0.00001806,0.00003283,0.00007872,-0.00013275,0.000
 09769,-0.00000943,0.00001474,-0.00001057,0.00002122,-0.00000565,-0.000
 00388,-0.00000956,-0.00001103,0.00003437,0.00002777,0.00002255,0.00000
 456,-0.00001494,-0.00004601,-0.00013432,-0.00001040,-0.00000315,0.0000
 8001,0.00002621,-0.00000178,0.00000014,-0.00000637,-0.00000132,-0.0000
 0384,0.00001350,-0.00000411,0.00000667,0.00001775,-0.00000493,-0.00000
 399,0.00000627,0.00000427,-0.00000388,-0.00000769,0.00000402,0.0000246
 6,-0.00000591,0.00000324,-0.00000346,-0.00001254,0.00003155,-0.0000035
 2,0.00001234,0.00000046,-0.00000043,-0.00000531,-0.00003429,0.00000139
 ,-0.00001067,0.00000837,-0.00000467,-0.00000178,-0.00002699,-0.0000124
 5,0.00001316,0.00002503,0.00000220,-0.00001803,-0.00000087,0.00000016,
 0.00000478,-0.00000109,-0.00000266,0.00000125,-0.00000340,0.00000252,-
 0.00000064,-0.00000237,0.00004815,-0.00009555,-0.00000135,-0.00000575,
 0.00001314,0.00000964,-0.00000075,0.00000929,0.11218081,0.00073249,-0.
 00009498,-0.00036170,-0.00006815,0.00013427,-0.00005281,0.00021368,-0.
 00042336,0.00139729,-0.00024177,0.00013903,-0.00041202,0.00042696,-0.0
 0012947,-0.00049572,-0.00019481,0.00024512,-0.00023156,0.00398103,0.00
 005754,0.00226198,-0.00200284,0.00053147,0.00066239,-0.00577943,0.0133
 5289,0.01727726,0.00036186,-0.00007668,-0.00001121,0.00018003,-0.00028
 763,0.00025880,0.00101296,-0.00099675,-0.00143616,-0.00161000,-0.00264
 301,-0.00109558,-0.00075536,-0.00030375,-0.00007537,0.00007226,0.00003
 334,-0.00002230,0.00015448,-0.00002780,-0.00015507,-0.00007234,-0.0000
 2153,-0.00001415,0.00150364,-0.00021830,0.00065176,0.00002001,-0.00036
 448,-0.00022997,-0.00002638,0.00021306,0.00002721,0.00005600,0.0000354
 4,-0.00001565,-0.00007289,0.00005725,-0.00003960,0.00008018,-0.0000337
 0,0.00007736,0.00000371,-0.00000361,-0.00001110,-0.00009404,0.00005507
 ,-0.00000951,0.00003415,0.00000766,-0.00002295,0.00008372,-0.00025862,
 0.00004757,-0.00010470,0.00020617,-0.00001657,-0.00003292,0.00000033,-
 0.00001647,0.00000942,-0.00002538,0.00002240,0.00000786,0.00001339,0.0
 0001466,-0.00001821,-0.00001354,-0.00000403,0.00000338,0.00000319,0.00
 000006,-0.00000895,0.00002577,-0.00001413,0.00000444,-0.00000173,-0.00
 001767,0.00005312,-0.00000744,0.00002689,-0.00000628,-0.00000025,-0.00
 000446,-0.00006240,0.00000290,-0.00003034,0.00000879,-0.00000978,0.000
 00564,-0.00002717,0.00000080,0.00000923,0.00002726,0.00000076,-0.00001
 743,-0.00000070,-0.00000169,0.00000413,0.00000095,-0.00000110,0.000002
 12,-0.00000452,0.00000383,-0.00000172,0.00018294,-0.00004733,-0.000028
 86,0.00001240,0.00001264,-0.00004394,-0.00002484,-0.00000700,0.0000057
 3,0.11535287,0.27091459,-0.00148899,0.00171259,-0.00034687,0.00028712,
 -0.00027780,-0.00000791,0.00097011,-0.00047245,-0.00047405,0.00118297,
 -0.00075658,-0.00026934,-0.00169876,0.00086622,0.00056371,0.00079386,-
 0.00066654,0.00055239,-0.00505695,0.00146052,-0.00171284,0.00003119,-0
 .00148434,-0.00201714,-0.00056437,0.02861933,-0.03826531,0.00039314,0.
 00010533,-0.00078484,-0.00040895,0.00001133,-0.00061903,0.00318081,-0.
 00182882,-0.01068565,-0.00082107,0.00051440,-0.00284976,-0.00009728,-0
 .00131622,0.00221595,-0.00011517,0.00012241,-0.00002362,-0.00148570,0.
 00061316,-0.00067567,0.00006149,0.00006364,0.00011611,0.00131587,0.000
 50348,0.00570854,-0.00002097,0.00069244,-0.00025375,-0.00044439,-0.000
 57702,-0.00012435,-0.00025663,0.00001292,0.00013025,0.00010440,-0.0002
 0554,0.00003018,-0.00014985,0.00004838,-0.00013957,-0.00003670,0.00000
 903,0.00000299,0.00021004,-0.00003137,0.00010345,-0.00001202,0.0000055
 1,0.00001907,-0.00034739,-0.00004864,-0.00010220,0.00021890,-0.0000873
 4,0.00000998,0.00008183,0.00001529,0.00003923,-0.00002830,0.00004190,-
 0.00003384,-0.00001986,-0.00003364,-0.00000265,0.00003880,0.00003767,0
 .00001296,-0.00000337,-0.00000431,-0.00000694,0.00001999,-0.00005173,0
 .00003213,-0.00000293,-0.00000117,0.00000879,-0.00008671,-0.00000078,-
 0.00004869,0.00001084,-0.00000247,0.00000182,0.00010339,0.00000801,0.0
 0006172,-0.00000789,0.00000972,-0.00001602,0.00003102,0.00001751,-0.00
 000332,-0.00002343,-0.00000182,0.00001022,0.00000144,0.00000203,-0.000
 00108,-0.00000057,0.00000217,-0.00000324,0.00000301,-0.00000435,0.0000
 0142,-0.00001067,0.00009628,-0.00009917,0.00001153,-0.00002092,0.00001
 985,0.00002143,0.00002681,0.00000133,-0.07482620,-0.27326217,0.4305399
 6,-0.00213580,0.00100185,-0.00028317,0.00016131,-0.00016859,-0.0000644
 4,0.00212721,0.00079066,0.00086088,-0.00091598,-0.00032824,0.00095804,
 -0.00018968,0.00037740,0.00052545,0.00030754,-0.00018083,0.00007908,-0
 .00416263,-0.00136163,0.00254565,-0.00104879,0.00244083,-0.00206957,-0
 .02887187,-0.03184962,-0.02062325,0.00073909,-0.00090564,-0.00185550,-
 0.00003992,0.00033910,-0.00039124,0.00373938,-0.00284146,-0.00491751,-
 0.00011910,0.00094462,-0.00040353,0.00176964,0.00092277,0.00113539,-0.
 00016682,-0.00019188,-0.00003137,-0.00064751,0.00044877,-0.00043263,0.
 00007350,-0.00014652,0.00003752,-0.00159537,0.00035970,0.00238484,0.00
 111606,0.00007571,0.00018841,0.00003230,0.00007304,0.00002752,-0.00017
 030,-0.00012574,0.00014264,0.00003735,0.00012324,-0.00012494,0.0000809
 5,-0.00004218,0.00009240,0.00000171,-0.00001446,-0.00002479,-0.0000847
 3,0.00009125,0.00003209,0.00005381,0.00000796,-0.00004116,-0.00002663,
 -0.00027298,-0.00001580,-0.00004344,0.00020074,0.00005226,-0.00003097,
 -0.00000310,-0.00001049,0.00000582,-0.00002659,0.00003455,0.00000792,0
 .00002382,0.00002340,-0.00002405,-0.00001505,0.00001312,0.00000980,-0.
 00000617,-0.00001329,0.00000350,0.00006747,-0.00001959,0.00000808,-0.0
 0000625,-0.00003068,0.00008555,-0.00000640,0.00004047,-0.00000357,-0.0
 0000002,-0.00001255,-0.00010017,0.00000217,-0.00003888,0.00001927,-0.0
 0001361,0.00000035,-0.00006520,-0.00003037,0.00002827,0.00005754,0.000
 00396,-0.00003853,-0.00000207,-0.00000038,0.00000964,-0.00000185,-0.00
 000473,0.00000335,-0.00000800,0.00000612,-0.00000185,-0.00006034,-0.00
 003895,-0.00011269,-0.00001306,-0.00000594,0.00000533,-0.00000213,-0.0
 0000463,-0.00001189,-0.00949217,-0.05554360,0.04077094,0.37354362,0.00
 020363,-0.00051442,-0.00094648,0.00010008,-0.00004944,-0.00002075,0.00
 082120,-0.00007256,-0.00036547,-0.00007882,-0.00094271,0.00049267,-0.0
 0043247,-0.00008945,0.00008150,0.00018047,-0.00003549,0.00000877,0.000
 51638,0.00003296,0.00248721,-0.00047999,0.00051928,-0.00021913,-0.0283
 0293,0.00493048,-0.00565796,-0.00016887,-0.00004489,-0.00007343,-0.000
 02148,-0.00018011,-0.00007569,0.00328722,-0.00259899,-0.00495744,-0.00
 055578,-0.00109678,0.00026509,-0.00095379,0.00049486,0.00009618,-0.000
 00856,0.00000919,-0.00003835,-0.00031454,0.00027490,-0.00059775,-0.000
 07381,-0.00001765,0.00003174,-0.00043502,0.00154915,0.00062123,0.00086
 420,-0.00044888,0.00009615,0.00018569,0.00031514,0.00006301,-0.0000244
 4,-0.00005403,0.00005236,0.00003835,0.00020339,-0.00012639,0.00007170,
 -0.00003838,0.00006614,-0.00000478,-0.00000049,-0.00001021,-0.00007832
 ,0.00007010,0.00000553,0.00004263,0.00000942,-0.00002592,0.00005435,-0
 .00032303,0.00002939,-0.00008179,0.00023760,-0.00000825,-0.00001998,-0
 .00000711,-0.00001743,0.00000489,-0.00002227,0.00002327,0.00000356,0.0
 0001537,0.00002449,-0.00001215,-0.00000880,-0.00000138,0.00000628,0.00
 000392,-0.00000346,-0.00000373,0.00002442,-0.00001233,0.00000535,-0.00
 000495,-0.00002016,0.00004436,-0.00000483,0.00002898,-0.00000623,0.000
 00197,-0.00000803,-0.00005831,0.00000571,-0.00002558,0.00000899,-0.000
 01014,0.00000152,-0.00003137,0.00000293,0.00001104,0.00003207,0.000000
 04,-0.00001782,-0.00000032,-0.00000230,0.00000451,0.00000108,-0.000001
 36,0.00000241,-0.00000594,0.00000438,-0.00000284,0.00006915,0.00006830
 ,-0.00010820,-0.00000128,0.00000307,-0.00000042,-0.00000557,-0.0000051
 6,0.00000990,-0.05995143,-0.05781942,0.04565416,0.30834073,0.32355231,
 -0.00109325,-0.00076128,-0.00046928,0.00009547,-0.00013304,-0.00004324
 ,0.00140077,-0.00091891,-0.00134752,0.00027169,-0.00010448,-0.00004607
 ,-0.00164317,0.00067344,0.00020496,0.00072580,-0.00055862,0.00045783,-
 0.00122512,-0.00223484,-0.00121596,0.00109871,0.00012544,0.00088851,-0
 .03078837,-0.01639151,0.00767029,-0.00120197,0.00047133,-0.00017940,0.
 00000881,0.00000579,-0.00012925,0.00097704,-0.00428134,-0.00659419,-0.
 00041866,0.00112652,-0.00103376,0.00043228,0.00103443,-0.00000899,-0.0
 0009548,0.00000685,-0.00001641,-0.00098806,0.00057008,-0.00048787,0.00
 004867,0.00000478,0.00008676,-0.00066840,0.00002889,0.00251790,0.00068
 764,0.00054797,-0.00013120,-0.00009698,-0.00020152,-0.00005518,-0.0001
 6063,-0.00001973,0.00011813,-0.00002378,-0.00007404,-0.00001840,-0.000
 05419,0.00001128,-0.00004294,-0.00003217,0.00000456,-0.00000876,0.0001
 0088,0.00004090,0.00008409,0.00001998,0.00001276,-0.00000353,-0.000218
 92,-0.00030725,-0.00005410,0.00008671,0.00010276,0.00000840,0.00004616
 ,0.00000838,0.00000884,-0.00001566,0.00001571,-0.00000344,-0.00001424,
 -0.00001365,0.00001893,0.00001621,0.00001743,0.00000678,0.00000063,-0.
 00000249,-0.00000727,0.00001278,-0.00001309,0.00001109,0.00000268,-0.0
 0000233,-0.00000810,-0.00001961,-0.00000474,-0.00001469,0.00000437,-0.
 00000177,-0.00000290,0.00002567,0.00000763,0.00002254,0.00000230,0.,-0
 .00000835,-0.00000374,0.00000764,0.00000756,0.00000713,-0.00000019,-0.
 00000877,0.00000063,0.00000069,0.00000290,-0.00000010,-0.00000017,-0.0
 0000080,-0.00000129,-0.00000016,-0.00000006,0.00014372,0.00013005,-0.0
 0017960,0.00002355,-0.00001164,-0.00000083,0.00001153,0.00002079,0.000
 01542,0.05792874,0.05902869,0.00996235,0.00625892,-0.03528910,0.108657
 28,0.00232024,-0.00172661,0.00136904,-0.00034086,0.00033505,0.00003320
 ,-0.00280618,0.00078305,0.00013638,0.00033975,0.00218163,0.00060342,0.
 00059684,-0.00054098,-0.00050627,-0.00055361,0.00030980,-0.00024504,0.
 01767371,-0.00367729,0.00087520,0.00038384,-0.00012021,0.00733996,-0.1
 0719035,0.02447254,-0.00672531,-0.00174155,0.00113071,0.00260875,0.000
 76776,-0.00039179,0.00136792,-0.02602781,0.00021245,-0.03098993,-0.003
 64483,-0.00659062,-0.00115491,-0.00431080,0.00374155,0.00118529,0.0001
 7717,0.00001779,0.00002626,0.00084271,-0.00052138,-0.00107290,-0.00048
 479,0.00029257,0.00003648,0.00475594,-0.00260114,-0.00325932,-0.003036
 89,-0.00063053,0.00111977,-0.00006173,-0.00000920,-0.00009315,0.000219
 82,0.00014430,-0.00027417,0.00043155,-0.00001264,0.00000677,-0.0000782
 3,0.00004574,-0.00009304,0.00000841,0.00001301,0.00002983,0.00007573,-
 0.00011806,-0.00007802,-0.00007057,-0.00001243,0.00005005,0.00008188,0
 .00041501,0.00002837,0.00003546,-0.00027884,-0.00006869,0.00002255,0.0
 0000115,0.00001575,-0.00000602,0.00002581,-0.00003440,0.00000138,-0.00
 001768,-0.00004243,0.00001929,0.00001022,-0.00001594,-0.00001215,0.000
 00632,0.00001736,-0.00000021,-0.00007202,0.00001480,-0.00000985,0.0000
 0880,0.00003876,-0.00009285,0.00001147,-0.00003640,0.00000359,-0.00000
 017,0.00001499,0.00010463,-0.00000535,0.00003716,-0.00002135,0.0000154
 1,0.00000337,0.00007389,0.00002614,-0.00003489,-0.00006946,-0.00000427
 ,0.00004834,0.00000182,0.00000051,-0.00001284,0.00000223,0.00000674,-0
 .00000378,0.00001020,-0.00000752,0.00000281,0.00003255,0.00001765,0.00
 018911,-0.00000247,0.00000637,-0.00000595,-0.00000383,0.00000017,-0.00
 000906,-0.11641772,-0.05782833,0.03817098,-0.33395875,-0.22277066,-0.0
 3167565,0.57195989,-0.00045931,-0.00338785,0.00126623,-0.00010476,0.00
 002382,0.00015219,-0.00054546,-0.00061712,-0.00358334,0.00290596,-0.00
 199055,-0.00220251,-0.00012580,0.00012007,0.00058972,-0.00001638,-0.00
 027250,0.00020328,-0.01119598,-0.00116107,-0.00184844,0.00265366,0.003
 70846,-0.00134288,0.01788412,-0.07463994,-0.01967795,0.00011732,-0.001
 16066,-0.00028302,0.00016836,0.00131535,-0.00020601,0.00929004,0.00214
 520,0.01742833,-0.00421673,-0.00290484,-0.00318596,0.00587150,0.003426
 99,-0.00322653,-0.00024059,-0.00033593,0.00011187,0.00073176,-0.000179
 07,0.00168703,0.00024689,-0.00025705,-0.00002491,0.00004919,-0.0059124
 0,0.00268033,-0.00160296,0.00094651,0.00069042,-0.00054291,-0.00055130
 ,-0.00006029,-0.00018879,-0.00005681,0.00001767,0.00000342,-0.00029821
 ,0.00019810,-0.00012123,0.00005602,-0.00011615,0.00000245,0.00000503,0
 .00001992,0.00013151,-0.00010466,-0.00001233,-0.00006828,-0.00001567,0
 .00004217,-0.00005350,0.00051903,-0.00005755,0.00013235,-0.00038970,0.
 00003779,0.00003920,0.00000493,0.00002363,-0.00001317,0.00004005,-0.00
 003346,-0.00000635,-0.00001703,-0.00003571,0.00001931,0.00001446,0.000
 00402,-0.00000924,-0.00000665,0.00000348,0.00001340,-0.00004685,0.0000
 1547,-0.00000812,0.00000591,0.00003336,-0.00008201,0.00001374,-0.00004
 307,0.00001126,-0.00000257,0.00001124,0.00009838,-0.00000702,0.0000467
 5,-0.00001309,0.00001556,-0.00000494,0.00004869,-0.00000360,-0.0000170
 7,-0.00005081,-0.00000108,0.00002956,0.00000103,0.00000381,-0.00000741
 ,-0.00000122,0.00000326,-0.00000413,0.00000936,-0.00000739,0.00000410,
 -0.00032059,0.00008607,0.00012324,-0.00002081,-0.00000793,0.00007539,0
 .00004422,0.00000686,-0.00000580,-0.06166473,-0.22222819,0.19986380,-0
 .22250635,-0.26793527,-0.00267894,0.26370579,0.57203778,0.00210424,-0.
 00023625,0.00101500,-0.00062370,0.00067010,0.00014182,-0.00211036,-0.0
 0074897,0.00104350,0.00008508,-0.00003925,-0.00008683,0.00338905,-0.00
 188401,-0.00099544,-0.00163581,0.00138998,-0.00101778,-0.01600351,0.00
 408117,-0.02651852,0.00397495,-0.00460956,-0.00114253,-0.00566873,-0.0
 0228296,-0.10719244,0.00078201,-0.00002825,0.00205994,-0.00069661,0.00
 040255,-0.00000149,-0.01709776,0.00593414,0.01726252,-0.00240645,-0.00
 814340,0.00129711,-0.00007527,-0.00075041,-0.00195317,0.00011766,0.000
 00223,0.00005691,0.00312822,-0.00158300,0.00143782,-0.00004898,-0.0000
 5661,-0.00024782,0.00210380,0.00058561,-0.01115284,-0.00080659,-0.0021
 6923,0.00068065,0.00052256,0.00087915,0.00018306,0.00054552,0.00007211
 ,-0.00031776,0.00007529,0.00037069,-0.00004313,0.00022658,-0.00006883,
 0.00019933,0.00007370,-0.00001493,0.00000313,-0.00033697,0.00000324,-0
 .00020357,-0.00001065,-0.00001987,-0.00001836,0.00064449,0.00036870,0.
 00014202,-0.00035717,-0.00001394,0.00001182,-0.00013378,-0.00002831,-0
 .00005592,0.00004455,-0.00006375,0.00004581,0.00003732,0.00005732,-0.0
 0001631,-0.00006032,-0.00006075,-0.00002058,0.00000388,0.00000665,0.00
 001436,-0.00003302,0.00007180,-0.00005160,0.00000255,0.00000395,-0.000
 00166,0.00011429,0.00000903,0.00007171,-0.00001559,0.00000370,-0.00000
 068,-0.00014233,-0.00001700,-0.00008837,0.00000793,-0.00001114,0.00002
 418,-0.00003326,-0.00003036,-0.00000200,0.00002137,0.00000115,-0.00000
 411,-0.00000215,-0.00000263,-0.00000072,0.00000035,-0.00000191,0.00000
 437,-0.00000271,0.00000520,-0.00000182,-0.00016822,-0.00018328,0.00035
 219,-0.00004850,0.00003558,-0.00001209,-0.00005182,-0.00004660,-0.0000
 2669,0.03418402,0.19636907,-0.39057750,-0.02468115,-0.00152729,-0.1186
 2972,0.02106198,-0.18670065,0.63433424\\-0.00000520,-0.00000797,-0.000
 00036,-0.00000563,0.00000466,0.00000038,0.00000631,0.00000342,0.000000
 58,0.00000081,0.00001305,0.00000163,0.00000082,-0.00000361,-0.00000520
 ,-0.00000303,-0.00000616,-0.00000555,0.00000133,0.00001257,-0.00000057
 ,0.00000444,-0.00000015,-0.00000021,0.00000099,0.00000031,-0.00000381,
 -0.00000330,0.00000373,0.00000349,0.00000274,0.00000174,-0.00000028,-0
 .00000175,-0.00000998,0.00000505,0.00000232,-0.00000525,-0.00000011,-0
 .00000156,-0.00000344,0.00000167,-0.00000472,0.00000288,0.00000258,0.0
 0000487,-0.00000163,0.00000145,-0.00000090,-0.00000127,0.00000386,-0.0
 0000023,-0.00001082,0.00000446,-0.00000190,-0.00000929,0.00000191,0.00
 000005,-0.00000406,-0.00000010,0.00000082,-0.00000837,0.00000330,0.000
 00025,-0.00000674,0.00000188,0.00000003,0.00000481,-0.00000164,-0.0000
 0372,-0.00000451,0.00000865,0.00000262,-0.00000053,-0.00000835,0.00000
 010,0.00000203,0.00000342,0.00000108,0.00000511,-0.00000317,0.00000109
 ,0.00000410,-0.00000424,0.00000457,-0.00000329,-0.00000887,0.00000377,
 -0.00000374,-0.00001614,-0.00000821,0.00000976,0.00001615,0.00000397,-
 0.00000084,-0.00000637,0.00000038,0.00000361,-0.00000270,-0.00000338,0
 .00000357,-0.00000148,-0.00000201,0.00000660,0.00000276,0.00000256,-0.
 00000051,-0.00000152,0.00000404,-0.00000123,0.00000042,-0.00000199,-0.
 00000078,-0.00000142,-0.00000067,-0.00000109,-0.00000106,-0.00000236,-
 0.00000262,0.00000468,0.00000099,0.00000282,0.00000341,0.00000089,0.00
 000373,0.00000326,-0.00000270,0.00000572,0.00000306,-0.00000050,0.0000
 0715,0.00000046,-0.00000041,0.00000972,0.00000224,0.00000087,0.0000083
 2,-0.00000457,0.00000117,0.00000116,-0.00000226,-0.00000151,-0.0000011
 4,0.00000070,0.00000597,-0.00001693,-0.00000360,-0.00000416,-0.0000046
 5,0.00000213\\\@
 The archive entry for this job was punched.


 EVERYBODY NEEDS BEAUTY AS WELL AS BREAD, PLACES TO PLAY IN AND PRAY IN,
 WHERE NATURE MAY HEAL AND CHEER AND GIVE STRENGTH TO BODY AND SOUL ALIKE.

                                    -- JOHN MUIR
 Job cpu time:       4 days 11 hours 47 minutes 14.0 seconds.
 Elapsed time:       0 days  2 hours 25 minutes 52.3 seconds.
 File lengths (MBytes):  RWF=   4601 Int=      0 D2E=      0 Chk=     77 Scr=      1
 Normal termination of Gaussian 16 at Wed Nov 27 14:10:13 2024.
