 Entering Gaussian System, Link 0=g16
 Initial command:
 /home/aderezen/G16/AVX2//g16/l1.exe "/lustre/scratch/natrosa/14344254/Gau-109871.inp" -scrdir="/lustre/scratch/natrosa/14344254/"
 Entering Link 1 = /home/aderezen/G16/AVX2//g16/l1.exe PID=    109880.
  
 Copyright (c) 1988-2019, Gaussian, Inc.  All Rights Reserved.
  
 This is part of the Gaussian(R) 16 program.  It is based on
 the Gaussian(R) 09 system (copyright 2009, Gaussian, Inc.),
 the Gaussian(R) 03 system (copyright 2003, Gaussian, Inc.),
 the Gaussian(R) 98 system (copyright 1998, Gaussian, Inc.),
 the Gaussian(R) 94 system (copyright 1995, Gaussian, Inc.),
 the Gaussian 92(TM) system (copyright 1992, Gaussian, Inc.),
 the Gaussian 90(TM) system (copyright 1990, Gaussian, Inc.),
 the Gaussian 88(TM) system (copyright 1988, Gaussian, Inc.),
 the Gaussian 86(TM) system (copyright 1986, Carnegie Mellon
 University), and the Gaussian 82(TM) system (copyright 1983,
 Carnegie Mellon University). Gaussian is a federally registered
 trademark of Gaussian, Inc.
  
 This software contains proprietary and confidential information,
 including trade secrets, belonging to Gaussian, Inc.
  
 This software is provided under written license and may be
 used, copied, transmitted, or stored only in accord with that
 written license.
  
 The following legend is applicable only to US Government
 contracts under FAR:
  
                    RESTRICTED RIGHTS LEGEND
  
 Use, reproduction and disclosure by the US Government is
 subject to restrictions as set forth in subparagraphs (a)
 and (c) of the Commercial Computer Software - Restricted
 Rights clause in FAR 52.227-19.
  
 Gaussian, Inc.
 340 Quinnipiac St., Bldg. 40, Wallingford CT 06492
  
  
 ---------------------------------------------------------------
 Warning -- This program may not be used in any manner that
 competes with the business of Gaussian, Inc. or will provide
 assistance to any competitor of Gaussian, Inc.  The licensee
 of this program is prohibited from giving any competitor of
 Gaussian, Inc. access to this program.  By using this program,
 the user acknowledges that Gaussian, Inc. is engaged in the
 business of creating and licensing software in the field of
 computational chemistry and represents and warrants to the
 licensee that it is not a competitor of Gaussian, Inc. and that
 it will not use this program in any manner prohibited above.
 ---------------------------------------------------------------
  

 Cite this work as:
 Gaussian 16, Revision C.01,
 M. J. Frisch, G. W. Trucks, H. B. Schlegel, G. E. Scuseria, 
 M. A. Robb, J. R. Cheeseman, G. Scalmani, V. Barone, 
 G. A. Petersson, H. Nakatsuji, X. Li, M. Caricato, A. V. Marenich, 
 J. Bloino, B. G. Janesko, R. Gomperts, B. Mennucci, H. P. Hratchian, 
 J. V. Ortiz, A. F. Izmaylov, J. L. Sonnenberg, D. Williams-Young, 
 F. Ding, F. Lipparini, F. Egidi, J. Goings, B. Peng, A. Petrone, 
 T. Henderson, D. Ranasinghe, V. G. Zakrzewski, J. Gao, N. Rega, 
 G. Zheng, W. Liang, M. Hada, M. Ehara, K. Toyota, R. Fukuda, 
 J. Hasegawa, M. Ishida, T. Nakajima, Y. Honda, O. Kitao, H. Nakai, 
 T. Vreven, K. Throssell, J. A. Montgomery, Jr., J. E. Peralta, 
 F. Ogliaro, M. J. Bearpark, J. J. Heyd, E. N. Brothers, K. N. Kudin, 
 V. N. Staroverov, T. A. Keith, R. Kobayashi, J. Normand, 
 K. Raghavachari, A. P. Rendell, J. C. Burant, S. S. Iyengar, 
 J. Tomasi, M. Cossi, J. M. Millam, M. Klene, C. Adamo, R. Cammi, 
 J. W. Ochterski, R. L. Martin, K. Morokuma, O. Farkas, 
 J. B. Foresman, and D. J. Fox, Gaussian, Inc., Wallingford CT, 2019.
 
 ******************************************
 Gaussian 16:  ES64L-G16RevC.01  3-Jul-2019
                28-Nov-2024 
 ******************************************
 %oldchk=/home/natrosa/DPD/teste/teste3-1.chk
 %chk=teste3-1-2.chk
 %Nproc=68
 Will use up to   68 processors via shared memory.
 Copying data from "/home/natrosa/DPD/teste/teste3-1.chk" to current chk file "teste3-1-2.chk"
 IOpt=  2 FromEx=T IUOpen= 4 IOptOp= 5 NList=   0 IFRang= 0 IUIn= 4 IUOut= 2.
 ----------------------------------------------------------------------
 # opt=(calcfc,ts,noeigen) freq=noraman b3lyp/6-311+g(d) scrf=(smd,solv
 ent=generic,read) temperature=298.15 guess=read geom=check
 ----------------------------------------------------------------------
 1/5=1,10=4,11=1,18=20,26=3,29=2,38=1,40=2,112=298150/1,3;
 2/9=110,12=2,40=1/2;
 3/5=4,6=6,7=11,11=2,14=-4,25=1,30=1,70=32203,71=2,72=-2,74=-5,116=-2,140=1/1,2,3;
 4/5=1/1;
 5/5=2,38=6/2;
 8/6=4,10=90,11=11/1;
 11/6=1,8=1,9=11,15=111,16=1/1,2,10;
 10/6=1,13=1/2;
 6/7=2,8=2,9=2,10=2,28=1/1;
 7/10=1,25=1/1,2,3,16;
 1/5=1,10=4,11=1,18=20,26=3/3(2);
 2/9=110/2;
 99//99;
 2/9=110/2;
 3/5=4,6=6,7=11,11=2,14=-2,25=1,30=1,70=32205,71=1,72=-2,74=-5/1,2,3;
 4/5=5,16=3,69=1/1;
 5/5=2,38=5/2;
 7//1,2,3,16;
 1/5=1,11=1,18=20,26=3/3(-5);
 2/9=110/2;
 6/7=2,8=2,9=2,10=2,19=2,28=1/1;
 99/9=1/99;
 --------------
 TS1 - reacao 1
 --------------
 Structure from the checkpoint file:  "teste3-1-2.chk"
 Charge =  0 Multiplicity = 2
 Redundant internal coordinates found in file.  (old form).
 C,0,-2.7471693399,-0.6401457344,-0.9007103514
 H,0,-2.3837545924,-0.5361504141,-1.9179555836
 C,0,-2.0212089343,-1.3683492227,-0.0281369428
 H,0,-2.3501805332,-1.5492790768,0.9898827105
 C,0,-0.7406105687,-2.0215529809,-0.3419386914
 O,0,-0.1731819734,-2.6856885271,0.5167967604
 C,0,-4.0271291432,0.0181591823,-0.6793283155
 C,0,-4.8212017509,0.3033585333,-1.7957765844
 C,0,-4.6089152995,0.3104468835,0.5847276059
 C,0,-6.0816398316,0.8778968364,-1.6850816331
 H,0,-4.4385901135,0.0595654805,-2.7806480931
 C,0,-5.8407502469,0.9753530675,0.7213543309
 H,0,-5.2003182025,-1.4910852414,0.9373665493
 C,0,-6.5966956207,1.2261520685,-0.4368883899
 H,0,-6.659737984,1.0870083581,-2.5802557929
 O,0,-7.7896933047,1.8467675119,-0.2717061558
 H,0,-8.2083977628,2.0101333933,-1.1300000536
 O,0,-6.2215832194,1.4155673156,1.9451975999
 C,0,-7.3500605145,0.7470061387,2.5558617091
 H,0,-7.1450393093,-0.3210787282,2.6555717068
 H,0,-7.4562763238,1.1945956872,3.5421193809
 H,0,-8.2579720514,0.9084117894,1.9746200575
 C,0,2.5588485614,-0.9862759475,-0.6668295774
 H,0,2.1788099144,-1.9764833508,-0.4335978673
 C,0,1.811731005,-0.1708577221,-1.4439683821
 H,0,2.1525204825,0.8285882797,-1.6991847504
 C,0,0.5071444077,-0.5097715055,-2.0128956035
 O,0,-0.0888203689,0.2969345707,-2.7203375172
 C,0,3.8561936717,-0.6904270927,-0.0750528365
 C,0,4.491894475,-1.6820631573,0.689821513
 C,0,4.5157378896,0.544226866,-0.2340222451
 C,0,5.7297627108,-1.4517879833,1.2766908938
 H,0,4.0072414331,-2.6426865559,0.8303965387
 C,0,5.7506819846,0.7866517625,0.3431582304
 H,0,4.0665904871,1.3462288501,-0.8088293392
 C,0,6.3666231087,-0.2208178296,1.1176753939
 H,0,6.203207604,-2.2258751904,1.874584103
 O,0,7.5645369545,0.068068646,1.6902634012
 H,0,7.8817978151,-0.6902312224,2.2023222537
 O,0,6.3211480196,2.0270070995,0.2164797963
 C,0,7.4856026995,2.0910052118,-0.6230660469
 H,0,7.2389713501,1.7764987799,-1.6422428128
 H,0,7.7963549622,3.1352243994,-0.6313177984
 H,0,8.2949532997,1.4731990309,-0.2293759474
 C,0,-0.1230482295,-1.8843483472,-1.7377521478
 H,0,0.6244397305,-2.6719675501,-1.8342149213
 H,0,-0.8836209819,-2.0423452634,-2.503297353
 O,0,-4.0114058125,-0.3444038495,2.7600269971
 O,0,-2.8493425502,1.2039475219,1.7874158534
 N,0,-3.7501356008,0.3784560903,1.8129573145
 Recover connectivity data from disk.

 GradGradGradGradGradGradGradGradGradGradGradGradGradGradGradGradGradGrad
 Berny optimization.
 Initialization pass.
                           ----------------------------
                           !    Initial Parameters    !
                           ! (Angstroms and Degrees)  !
 --------------------------                            --------------------------
 ! Name  Definition              Value          Derivative Info.                !
 --------------------------------------------------------------------------------
 ! R1    R(1,2)                  1.0852         calculate D2E/DX2 analytically  !
 ! R2    R(1,3)                  1.3486         calculate D2E/DX2 analytically  !
 ! R3    R(1,7)                  1.4563         calculate D2E/DX2 analytically  !
 ! R4    R(3,4)                  1.085          calculate D2E/DX2 analytically  !
 ! R5    R(3,5)                  1.4714         calculate D2E/DX2 analytically  !
 ! R6    R(5,6)                  1.2249         calculate D2E/DX2 analytically  !
 ! R7    R(5,45)                 1.5325         calculate D2E/DX2 analytically  !
 ! R8    R(7,8)                  1.3994         calculate D2E/DX2 analytically  !
 ! R9    R(7,9)                  1.4219         calculate D2E/DX2 analytically  !
 ! R10   R(8,10)                 1.3896         calculate D2E/DX2 analytically  !
 ! R11   R(8,11)                 1.0843         calculate D2E/DX2 analytically  !
 ! R12   R(9,12)                 1.4065         calculate D2E/DX2 analytically  !
 ! R13   R(9,13)                 1.9286         calculate D2E/DX2 analytically  !
 ! R14   R(9,50)                 1.5002         calculate D2E/DX2 analytically  !
 ! R15   R(10,14)                1.3945         calculate D2E/DX2 analytically  !
 ! R16   R(10,15)                1.0859         calculate D2E/DX2 analytically  !
 ! R17   R(12,14)                1.4057         calculate D2E/DX2 analytically  !
 ! R18   R(12,18)                1.3552         calculate D2E/DX2 analytically  !
 ! R19   R(13,50)                2.5229         calculate D2E/DX2 analytically  !
 ! R20   R(14,16)                1.3549         calculate D2E/DX2 analytically  !
 ! R21   R(16,17)                0.9688         calculate D2E/DX2 analytically  !
 ! R22   R(18,19)                1.4468         calculate D2E/DX2 analytically  !
 ! R23   R(19,20)                1.0921         calculate D2E/DX2 analytically  !
 ! R24   R(19,21)                1.0883         calculate D2E/DX2 analytically  !
 ! R25   R(19,22)                1.09           calculate D2E/DX2 analytically  !
 ! R26   R(23,24)                1.086          calculate D2E/DX2 analytically  !
 ! R27   R(23,25)                1.3517         calculate D2E/DX2 analytically  !
 ! R28   R(23,29)                1.4563         calculate D2E/DX2 analytically  !
 ! R29   R(25,26)                1.0864         calculate D2E/DX2 analytically  !
 ! R30   R(25,27)                1.463          calculate D2E/DX2 analytically  !
 ! R31   R(27,28)                1.2274         calculate D2E/DX2 analytically  !
 ! R32   R(27,45)                1.537          calculate D2E/DX2 analytically  !
 ! R33   R(29,30)                1.4045         calculate D2E/DX2 analytically  !
 ! R34   R(29,31)                1.4088         calculate D2E/DX2 analytically  !
 ! R35   R(30,32)                1.3892         calculate D2E/DX2 analytically  !
 ! R36   R(30,33)                1.0851         calculate D2E/DX2 analytically  !
 ! R37   R(31,34)                1.3846         calculate D2E/DX2 analytically  !
 ! R38   R(31,35)                1.0841         calculate D2E/DX2 analytically  !
 ! R39   R(32,36)                1.3951         calculate D2E/DX2 analytically  !
 ! R40   R(32,37)                1.0867         calculate D2E/DX2 analytically  !
 ! R41   R(34,36)                1.4122         calculate D2E/DX2 analytically  !
 ! R42   R(34,40)                1.3711         calculate D2E/DX2 analytically  !
 ! R43   R(36,38)                1.3588         calculate D2E/DX2 analytically  !
 ! R44   R(38,39)                0.9684         calculate D2E/DX2 analytically  !
 ! R45   R(40,41)                1.437          calculate D2E/DX2 analytically  !
 ! R46   R(41,42)                1.0947         calculate D2E/DX2 analytically  !
 ! R47   R(41,43)                1.0895         calculate D2E/DX2 analytically  !
 ! R48   R(41,44)                1.0917         calculate D2E/DX2 analytically  !
 ! R49   R(45,46)                1.0901         calculate D2E/DX2 analytically  !
 ! R50   R(45,47)                1.0906         calculate D2E/DX2 analytically  !
 ! R51   R(48,50)                1.2197         calculate D2E/DX2 analytically  !
 ! R52   R(49,50)                1.2221         calculate D2E/DX2 analytically  !
 ! R53   R(4,49)                 2.9095         calculate D2E/DX2 analytically  !
 ! R54   R(13,48)                2.4598         calculate D2E/DX2 analytically  !
 ! A1    A(2,1,3)              118.5538         calculate D2E/DX2 analytically  !
 ! A2    A(2,1,7)              113.1738         calculate D2E/DX2 analytically  !
 ! A3    A(3,1,7)              128.2344         calculate D2E/DX2 analytically  !
 ! A4    A(1,3,4)              122.2688         calculate D2E/DX2 analytically  !
 ! A5    A(1,3,5)              124.7658         calculate D2E/DX2 analytically  !
 ! A6    A(4,3,5)              112.9504         calculate D2E/DX2 analytically  !
 ! A7    A(3,5,6)              119.6259         calculate D2E/DX2 analytically  !
 ! A8    A(3,5,45)             120.346          calculate D2E/DX2 analytically  !
 ! A9    A(6,5,45)             120.0259         calculate D2E/DX2 analytically  !
 ! A10   A(1,7,8)              118.0075         calculate D2E/DX2 analytically  !
 ! A11   A(1,7,9)              125.9945         calculate D2E/DX2 analytically  !
 ! A12   A(8,7,9)              115.7966         calculate D2E/DX2 analytically  !
 ! A13   A(7,8,10)             122.3705         calculate D2E/DX2 analytically  !
 ! A14   A(7,8,11)             118.5923         calculate D2E/DX2 analytically  !
 ! A15   A(10,8,11)            119.0358         calculate D2E/DX2 analytically  !
 ! A16   A(7,9,12)             122.8129         calculate D2E/DX2 analytically  !
 ! A17   A(7,9,13)              95.5089         calculate D2E/DX2 analytically  !
 ! A18   A(7,9,50)             120.1935         calculate D2E/DX2 analytically  !
 ! A19   A(12,9,13)             98.9319         calculate D2E/DX2 analytically  !
 ! A20   A(12,9,50)            113.6028         calculate D2E/DX2 analytically  !
 ! A21   A(8,10,14)            120.6356         calculate D2E/DX2 analytically  !
 ! A22   A(8,10,15)            119.7892         calculate D2E/DX2 analytically  !
 ! A23   A(14,10,15)           119.5475         calculate D2E/DX2 analytically  !
 ! A24   A(9,12,14)            118.3798         calculate D2E/DX2 analytically  !
 ! A25   A(9,12,18)            119.1701         calculate D2E/DX2 analytically  !
 ! A26   A(14,12,18)           122.3458         calculate D2E/DX2 analytically  !
 ! A27   A(10,14,12)           119.6273         calculate D2E/DX2 analytically  !
 ! A28   A(10,14,16)           123.2812         calculate D2E/DX2 analytically  !
 ! A29   A(12,14,16)           117.0522         calculate D2E/DX2 analytically  !
 ! A30   A(14,16,17)           110.4729         calculate D2E/DX2 analytically  !
 ! A31   A(12,18,19)           116.7586         calculate D2E/DX2 analytically  !
 ! A32   A(18,19,20)           110.122          calculate D2E/DX2 analytically  !
 ! A33   A(18,19,21)           105.5798         calculate D2E/DX2 analytically  !
 ! A34   A(18,19,22)           110.8645         calculate D2E/DX2 analytically  !
 ! A35   A(20,19,21)           109.7434         calculate D2E/DX2 analytically  !
 ! A36   A(20,19,22)           110.4781         calculate D2E/DX2 analytically  !
 ! A37   A(21,19,22)           109.941          calculate D2E/DX2 analytically  !
 ! A38   A(24,23,25)           118.6928         calculate D2E/DX2 analytically  !
 ! A39   A(24,23,29)           114.1871         calculate D2E/DX2 analytically  !
 ! A40   A(25,23,29)           127.1194         calculate D2E/DX2 analytically  !
 ! A41   A(23,25,26)           121.1099         calculate D2E/DX2 analytically  !
 ! A42   A(23,25,27)           125.2187         calculate D2E/DX2 analytically  !
 ! A43   A(26,25,27)           113.6712         calculate D2E/DX2 analytically  !
 ! A44   A(25,27,28)           120.322          calculate D2E/DX2 analytically  !
 ! A45   A(25,27,45)           120.2102         calculate D2E/DX2 analytically  !
 ! A46   A(28,27,45)           119.4662         calculate D2E/DX2 analytically  !
 ! A47   A(23,29,30)           118.7567         calculate D2E/DX2 analytically  !
 ! A48   A(23,29,31)           123.3159         calculate D2E/DX2 analytically  !
 ! A49   A(30,29,31)           117.9269         calculate D2E/DX2 analytically  !
 ! A50   A(29,30,32)           121.0892         calculate D2E/DX2 analytically  !
 ! A51   A(29,30,33)           119.5681         calculate D2E/DX2 analytically  !
 ! A52   A(32,30,33)           119.3419         calculate D2E/DX2 analytically  !
 ! A53   A(29,31,34)           121.6003         calculate D2E/DX2 analytically  !
 ! A54   A(29,31,35)           120.9441         calculate D2E/DX2 analytically  !
 ! A55   A(34,31,35)           117.4531         calculate D2E/DX2 analytically  !
 ! A56   A(30,32,36)           120.3254         calculate D2E/DX2 analytically  !
 ! A57   A(30,32,37)           120.172          calculate D2E/DX2 analytically  !
 ! A58   A(36,32,37)           119.4976         calculate D2E/DX2 analytically  !
 ! A59   A(31,34,36)           119.5217         calculate D2E/DX2 analytically  !
 ! A60   A(31,34,40)           119.405          calculate D2E/DX2 analytically  !
 ! A61   A(36,34,40)           120.9693         calculate D2E/DX2 analytically  !
 ! A62   A(32,36,34)           119.5318         calculate D2E/DX2 analytically  !
 ! A63   A(32,36,38)           122.822          calculate D2E/DX2 analytically  !
 ! A64   A(34,36,38)           117.6431         calculate D2E/DX2 analytically  !
 ! A65   A(36,38,39)           110.191          calculate D2E/DX2 analytically  !
 ! A66   A(34,40,41)           115.5579         calculate D2E/DX2 analytically  !
 ! A67   A(40,41,42)           110.3993         calculate D2E/DX2 analytically  !
 ! A68   A(40,41,43)           106.1553         calculate D2E/DX2 analytically  !
 ! A69   A(40,41,44)           111.4006         calculate D2E/DX2 analytically  !
 ! A70   A(42,41,43)           109.4237         calculate D2E/DX2 analytically  !
 ! A71   A(42,41,44)           109.8879         calculate D2E/DX2 analytically  !
 ! A72   A(43,41,44)           109.4921         calculate D2E/DX2 analytically  !
 ! A73   A(5,45,27)            114.1013         calculate D2E/DX2 analytically  !
 ! A74   A(5,45,46)            106.9914         calculate D2E/DX2 analytically  !
 ! A75   A(5,45,47)            110.2019         calculate D2E/DX2 analytically  !
 ! A76   A(27,45,46)           110.4366         calculate D2E/DX2 analytically  !
 ! A77   A(27,45,47)           106.8482         calculate D2E/DX2 analytically  !
 ! A78   A(46,45,47)           108.1434         calculate D2E/DX2 analytically  !
 ! A79   A(9,50,48)            119.0913         calculate D2E/DX2 analytically  !
 ! A80   A(9,50,49)            115.8136         calculate D2E/DX2 analytically  !
 ! A81   A(13,50,48)            72.9733         calculate D2E/DX2 analytically  !
 ! A82   A(13,50,49)           156.4894         calculate D2E/DX2 analytically  !
 ! A83   A(48,50,49)           125.0596         calculate D2E/DX2 analytically  !
 ! A84   A(9,13,48)             63.373          calculate D2E/DX2 analytically  !
 ! D1    D(2,1,3,4)           -177.154          calculate D2E/DX2 analytically  !
 ! D2    D(2,1,3,5)              1.3336         calculate D2E/DX2 analytically  !
 ! D3    D(7,1,3,4)              0.4373         calculate D2E/DX2 analytically  !
 ! D4    D(7,1,3,5)            178.9249         calculate D2E/DX2 analytically  !
 ! D5    D(2,1,7,8)             20.1164         calculate D2E/DX2 analytically  !
 ! D6    D(2,1,7,9)           -165.2783         calculate D2E/DX2 analytically  !
 ! D7    D(3,1,7,8)           -157.5821         calculate D2E/DX2 analytically  !
 ! D8    D(3,1,7,9)             17.0231         calculate D2E/DX2 analytically  !
 ! D9    D(1,3,5,6)           -178.4569         calculate D2E/DX2 analytically  !
 ! D10   D(1,3,5,45)             1.0081         calculate D2E/DX2 analytically  !
 ! D11   D(4,3,5,6)              0.1544         calculate D2E/DX2 analytically  !
 ! D12   D(4,3,5,45)           179.6194         calculate D2E/DX2 analytically  !
 ! D13   D(3,5,45,27)           74.6671         calculate D2E/DX2 analytically  !
 ! D14   D(3,5,45,46)         -162.8754         calculate D2E/DX2 analytically  !
 ! D15   D(3,5,45,47)          -45.5276         calculate D2E/DX2 analytically  !
 ! D16   D(6,5,45,27)         -105.87           calculate D2E/DX2 analytically  !
 ! D17   D(6,5,45,46)           16.5874         calculate D2E/DX2 analytically  !
 ! D18   D(6,5,45,47)          133.9353         calculate D2E/DX2 analytically  !
 ! D19   D(1,7,8,10)           177.2479         calculate D2E/DX2 analytically  !
 ! D20   D(1,7,8,11)            -2.323          calculate D2E/DX2 analytically  !
 ! D21   D(9,7,8,10)             2.0944         calculate D2E/DX2 analytically  !
 ! D22   D(9,7,8,11)          -177.4766         calculate D2E/DX2 analytically  !
 ! D23   D(1,7,9,12)           178.6687         calculate D2E/DX2 analytically  !
 ! D24   D(1,7,9,13)           -76.9852         calculate D2E/DX2 analytically  !
 ! D25   D(1,7,9,50)            20.7949         calculate D2E/DX2 analytically  !
 ! D26   D(8,7,9,12)            -6.6211         calculate D2E/DX2 analytically  !
 ! D27   D(8,7,9,13)            97.725          calculate D2E/DX2 analytically  !
 ! D28   D(8,7,9,50)          -164.4949         calculate D2E/DX2 analytically  !
 ! D29   D(7,8,10,14)            1.5493         calculate D2E/DX2 analytically  !
 ! D30   D(7,8,10,15)          179.623          calculate D2E/DX2 analytically  !
 ! D31   D(11,8,10,14)        -178.8816         calculate D2E/DX2 analytically  !
 ! D32   D(11,8,10,15)          -0.8079         calculate D2E/DX2 analytically  !
 ! D33   D(7,9,12,14)            7.3412         calculate D2E/DX2 analytically  !
 ! D34   D(7,9,12,18)         -169.0331         calculate D2E/DX2 analytically  !
 ! D35   D(13,9,12,14)         -95.1896         calculate D2E/DX2 analytically  !
 ! D36   D(13,9,12,18)          88.436          calculate D2E/DX2 analytically  !
 ! D37   D(50,9,12,14)         166.5312         calculate D2E/DX2 analytically  !
 ! D38   D(50,9,12,18)          -9.8431         calculate D2E/DX2 analytically  !
 ! D39   D(7,9,50,48)         -123.0192         calculate D2E/DX2 analytically  !
 ! D40   D(7,9,50,49)           59.0369         calculate D2E/DX2 analytically  !
 ! D41   D(12,9,50,48)          77.1902         calculate D2E/DX2 analytically  !
 ! D42   D(12,9,50,49)        -100.7538         calculate D2E/DX2 analytically  !
 ! D43   D(8,10,14,12)          -0.9273         calculate D2E/DX2 analytically  !
 ! D44   D(8,10,14,16)         176.7266         calculate D2E/DX2 analytically  !
 ! D45   D(15,10,14,12)       -179.0057         calculate D2E/DX2 analytically  !
 ! D46   D(15,10,14,16)         -1.3517         calculate D2E/DX2 analytically  !
 ! D47   D(9,12,14,10)          -3.3503         calculate D2E/DX2 analytically  !
 ! D48   D(9,12,14,16)         178.8518         calculate D2E/DX2 analytically  !
 ! D49   D(18,12,14,10)        172.9022         calculate D2E/DX2 analytically  !
 ! D50   D(18,12,14,16)         -4.8957         calculate D2E/DX2 analytically  !
 ! D51   D(9,12,18,19)        -111.537          calculate D2E/DX2 analytically  !
 ! D52   D(14,12,18,19)         72.239          calculate D2E/DX2 analytically  !
 ! D53   D(10,14,16,17)         -0.4534         calculate D2E/DX2 analytically  !
 ! D54   D(12,14,16,17)        177.2568         calculate D2E/DX2 analytically  !
 ! D55   D(12,18,19,20)         58.1145         calculate D2E/DX2 analytically  !
 ! D56   D(12,18,19,21)        176.5161         calculate D2E/DX2 analytically  !
 ! D57   D(12,18,19,22)        -64.4595         calculate D2E/DX2 analytically  !
 ! D58   D(24,23,25,26)        179.8086         calculate D2E/DX2 analytically  !
 ! D59   D(24,23,25,27)         -0.0202         calculate D2E/DX2 analytically  !
 ! D60   D(29,23,25,26)          0.1343         calculate D2E/DX2 analytically  !
 ! D61   D(29,23,25,27)       -179.6945         calculate D2E/DX2 analytically  !
 ! D62   D(24,23,29,30)          1.3823         calculate D2E/DX2 analytically  !
 ! D63   D(24,23,29,31)       -178.8894         calculate D2E/DX2 analytically  !
 ! D64   D(25,23,29,30)       -178.9308         calculate D2E/DX2 analytically  !
 ! D65   D(25,23,29,31)          0.7975         calculate D2E/DX2 analytically  !
 ! D66   D(23,25,27,28)       -179.221          calculate D2E/DX2 analytically  !
 ! D67   D(23,25,27,45)          0.3034         calculate D2E/DX2 analytically  !
 ! D68   D(26,25,27,28)          0.9391         calculate D2E/DX2 analytically  !
 ! D69   D(26,25,27,45)       -179.5366         calculate D2E/DX2 analytically  !
 ! D70   D(25,27,45,5)          76.8412         calculate D2E/DX2 analytically  !
 ! D71   D(25,27,45,46)        -43.7116         calculate D2E/DX2 analytically  !
 ! D72   D(25,27,45,47)       -161.1026         calculate D2E/DX2 analytically  !
 ! D73   D(28,27,45,5)        -103.6303         calculate D2E/DX2 analytically  !
 ! D74   D(28,27,45,46)        135.8168         calculate D2E/DX2 analytically  !
 ! D75   D(28,27,45,47)         18.4258         calculate D2E/DX2 analytically  !
 ! D76   D(23,29,30,32)       -179.9805         calculate D2E/DX2 analytically  !
 ! D77   D(23,29,30,33)         -0.3221         calculate D2E/DX2 analytically  !
 ! D78   D(31,29,30,32)          0.2764         calculate D2E/DX2 analytically  !
 ! D79   D(31,29,30,33)        179.9349         calculate D2E/DX2 analytically  !
 ! D80   D(23,29,31,34)       -179.8902         calculate D2E/DX2 analytically  !
 ! D81   D(23,29,31,35)          0.6888         calculate D2E/DX2 analytically  !
 ! D82   D(30,29,31,34)         -0.1598         calculate D2E/DX2 analytically  !
 ! D83   D(30,29,31,35)       -179.5807         calculate D2E/DX2 analytically  !
 ! D84   D(29,30,32,36)          0.142          calculate D2E/DX2 analytically  !
 ! D85   D(29,30,32,37)        179.3281         calculate D2E/DX2 analytically  !
 ! D86   D(33,30,32,36)       -179.5172         calculate D2E/DX2 analytically  !
 ! D87   D(33,30,32,37)         -0.3311         calculate D2E/DX2 analytically  !
 ! D88   D(29,31,34,36)         -0.3682         calculate D2E/DX2 analytically  !
 ! D89   D(29,31,34,40)       -176.6987         calculate D2E/DX2 analytically  !
 ! D90   D(35,31,34,36)        179.0721         calculate D2E/DX2 analytically  !
 ! D91   D(35,31,34,40)          2.7416         calculate D2E/DX2 analytically  !
 ! D92   D(30,32,36,34)         -0.6755         calculate D2E/DX2 analytically  !
 ! D93   D(30,32,36,38)        178.677          calculate D2E/DX2 analytically  !
 ! D94   D(37,32,36,34)       -179.867          calculate D2E/DX2 analytically  !
 ! D95   D(37,32,36,38)         -0.5146         calculate D2E/DX2 analytically  !
 ! D96   D(31,34,36,32)          0.7849         calculate D2E/DX2 analytically  !
 ! D97   D(31,34,36,38)       -178.6008         calculate D2E/DX2 analytically  !
 ! D98   D(40,34,36,32)        177.0566         calculate D2E/DX2 analytically  !
 ! D99   D(40,34,36,38)         -2.329          calculate D2E/DX2 analytically  !
 ! D100  D(31,34,40,41)       -110.498          calculate D2E/DX2 analytically  !
 ! D101  D(36,34,40,41)         73.226          calculate D2E/DX2 analytically  !
 ! D102  D(32,36,38,39)         -0.0678         calculate D2E/DX2 analytically  !
 ! D103  D(34,36,38,39)        179.2962         calculate D2E/DX2 analytically  !
 ! D104  D(34,40,41,42)         60.3748         calculate D2E/DX2 analytically  !
 ! D105  D(34,40,41,43)        178.8721         calculate D2E/DX2 analytically  !
 ! D106  D(34,40,41,44)        -62.0074         calculate D2E/DX2 analytically  !
 ! D107  D(7,9,13,48)          132.3845         calculate D2E/DX2 analytically  !
 ! D108  D(12,9,13,48)        -103.1261         calculate D2E/DX2 analytically  !
 --------------------------------------------------------------------------------
 Trust Radius=3.00D-01 FncErr=1.00D-07 GrdErr=1.00D-06 EigMax=2.50D+02 EigMin=1.00D-04
 Number of steps in this run=    256 maximum allowed number of steps=    300.
 Search for a saddle point of order  1.
 GradGradGradGradGradGradGradGradGradGradGradGradGradGradGradGradGradGrad

                          Input orientation:                          
 ---------------------------------------------------------------------
 Center     Atomic      Atomic             Coordinates (Angstroms)
 Number     Number       Type             X           Y           Z
 ---------------------------------------------------------------------
      1          6           0       -2.747169   -0.640146   -0.900710
      2          1           0       -2.383755   -0.536150   -1.917956
      3          6           0       -2.021209   -1.368349   -0.028137
      4          1           0       -2.350181   -1.549279    0.989883
      5          6           0       -0.740611   -2.021553   -0.341939
      6          8           0       -0.173182   -2.685689    0.516797
      7          6           0       -4.027129    0.018159   -0.679328
      8          6           0       -4.821202    0.303359   -1.795777
      9          6           0       -4.608915    0.310447    0.584728
     10          6           0       -6.081640    0.877897   -1.685082
     11          1           0       -4.438590    0.059565   -2.780648
     12          6           0       -5.840750    0.975353    0.721354
     13          1           0       -5.200318   -1.491085    0.937367
     14          6           0       -6.596696    1.226152   -0.436888
     15          1           0       -6.659738    1.087008   -2.580256
     16          8           0       -7.789693    1.846768   -0.271706
     17          1           0       -8.208398    2.010133   -1.130000
     18          8           0       -6.221583    1.415567    1.945198
     19          6           0       -7.350061    0.747006    2.555862
     20          1           0       -7.145039   -0.321079    2.655572
     21          1           0       -7.456276    1.194596    3.542119
     22          1           0       -8.257972    0.908412    1.974620
     23          6           0        2.558849   -0.986276   -0.666830
     24          1           0        2.178810   -1.976483   -0.433598
     25          6           0        1.811731   -0.170858   -1.443968
     26          1           0        2.152520    0.828588   -1.699185
     27          6           0        0.507144   -0.509772   -2.012896
     28          8           0       -0.088820    0.296935   -2.720338
     29          6           0        3.856194   -0.690427   -0.075053
     30          6           0        4.491894   -1.682063    0.689822
     31          6           0        4.515738    0.544227   -0.234022
     32          6           0        5.729763   -1.451788    1.276691
     33          1           0        4.007241   -2.642687    0.830397
     34          6           0        5.750682    0.786652    0.343158
     35          1           0        4.066590    1.346229   -0.808829
     36          6           0        6.366623   -0.220818    1.117675
     37          1           0        6.203208   -2.225875    1.874584
     38          8           0        7.564537    0.068069    1.690263
     39          1           0        7.881798   -0.690231    2.202322
     40          8           0        6.321148    2.027007    0.216480
     41          6           0        7.485603    2.091005   -0.623066
     42          1           0        7.238971    1.776499   -1.642243
     43          1           0        7.796355    3.135224   -0.631318
     44          1           0        8.294953    1.473199   -0.229376
     45          6           0       -0.123048   -1.884348   -1.737752
     46          1           0        0.624440   -2.671968   -1.834215
     47          1           0       -0.883621   -2.042345   -2.503297
     48          8           0       -4.011406   -0.344404    2.760027
     49          8           0       -2.849343    1.203948    1.787416
     50          7           0       -3.750136    0.378456    1.812957
 ---------------------------------------------------------------------
                    Distance matrix (angstroms):
                    1          2          3          4          5
     1  C    0.000000
     2  H    1.085207   0.000000
     3  C    1.348586   2.096523   0.000000
     4  H    2.135056   3.079461   1.085045   0.000000
     5  C    2.499358   2.718487   1.471421   2.141846   0.000000
     6  O    3.580361   3.928761   2.333996   2.500912   1.224940
     7  C    1.456253   2.131229   2.523920   2.838183   3.882713
     8  C    2.448051   2.580863   3.709328   4.159100   4.916308
     9  C    2.564420   3.454199   3.144866   2.953746   4.610934
    10  C    3.746783   3.965869   4.927290   5.193304   6.223941
    11  H    2.623865   2.306830   3.931792   4.600732   4.894222
    12  C    3.848529   4.604500   4.543520   4.316243   6.010280
    13  H    3.181283   4.122838   3.324755   2.851215   4.669798
    14  C    4.303144   4.800848   5.275755   5.269875   6.697039
    15  H    4.594794   4.621398   5.835927   6.186128   7.050481
    16  O    5.657511   6.132912   6.608458   6.535521   8.041045
    17  H    6.074666   6.405537   7.135093   7.175098   8.523109
    18  O    4.939302   5.784642   5.411782   4.968974   6.861913
    19  C    5.921038   6.806300   6.288755   5.720491   7.729618
    20  H    5.664822   6.605546   5.878155   5.222420   7.272784
    21  H    6.729094   7.651038   6.989662   6.333638   8.398195
    22  H    6.405818   7.193423   6.934832   6.473944   8.394156
    23  C    5.322437   5.118325   4.640133   5.211548   3.473296
    24  H    5.125355   5.009478   4.263143   4.766608   2.921207
    25  C    4.615077   4.237948   4.257933   5.014497   3.339759
    26  H    5.177036   4.742169   5.003894   5.758442   4.282012
    27  C    3.441586   2.892578   3.327010   4.273355   2.575747
    28  O    3.354994   2.569936   3.708806   4.721016   3.384818
    29  C    6.654971   6.508229   5.916557   6.355375   4.793092
    30  C    7.484613   7.442323   6.560061   6.849939   5.344052
    31  C    7.388981   7.183721   6.814104   7.281590   5.850134
    32  C    8.789665   8.767743   7.860477   8.085620   6.694051
    33  H    7.254582   7.268821   6.221192   6.452735   4.929734
    34  C    8.706115   8.545847   8.073672   8.455696   7.105790
    35  H    7.097989   6.810320   6.711164   7.265967   5.888049
    36  C    9.344032   9.267341   8.543152   8.818379   7.475687
    37  H    9.504002   9.538053   8.485088   8.625597   7.291868
    38  O   10.655797  10.599662   9.843918  10.070152   8.801809
    39  H   11.072771  11.062640  10.173708  10.339311   9.087993
    40  O    9.518203   9.322066   9.010172   9.411690   8.159112
    41  C   10.594616  10.294800  10.134128  10.611122   9.201236
    42  H   10.301119   9.900567   9.911929  10.485262   8.932509
    43  H   11.202317  10.898122  10.818067  11.292699   9.977769
    44  H   11.262566  10.996526  10.702247  11.132872   9.688518
    45  C    3.022365   2.638353   2.606157   3.537285   1.532483
    46  H    4.045674   3.690252   3.458438   4.252567   2.124450
    47  H    2.829710   2.204915   2.806207   3.820500   2.166185
    48  O    3.884167   4.956767   3.575361   2.710130   4.809690
    49  O    3.261463   4.120011   3.255572   2.909550   4.402812
    50  N    3.067162   4.077157   3.070854   2.520613   4.411447
                    6          7          8          9         10
     6  O    0.000000
     7  C    4.857408   0.000000
     8  C    5.990533   1.399409   0.000000
     9  C    5.353239   1.421881   2.389962   0.000000
    10  C    7.242740   2.443707   1.389623   2.764589   0.000000
    11  H    6.050064   2.141625   1.084342   3.379010   2.137649
    12  C    6.750289   2.483416   2.797678   1.406479   2.420425
    13  H    5.184212   2.503576   3.291478   1.928634   3.642257
    14  C    7.581131   2.849683   2.418781   2.415261   1.394471
    15  H    8.117905   3.418566   2.147028   3.850460   1.085938
    16  O    8.898098   4.203196   3.676526   3.634709   2.419460
    17  H    9.451316   4.653394   3.850901   4.334224   2.472483
    18  O    7.446058   3.695472   4.146440   2.381778   3.672547
    19  C    8.212720   4.694629   5.052594   3.404384   4.428501
    20  H    7.666325   4.577991   5.060103   3.334538   4.627054
    21  H    8.789348   5.564501   6.019224   4.199446   5.414199
    22  H    8.966975   5.073068   5.137448   3.950314   4.258024
    23  C    3.428260   6.662143   7.576465   7.390854   8.897753
    24  H    2.634025   6.523240   7.486880   7.234656   8.828858
    25  C    3.756175   5.891748   6.659163   6.750701   7.966387
    26  H    4.761261   6.315455   6.994140   7.155539   8.234320
    27  C    3.405408   4.755707   5.394404   5.796074   6.741303
    28  O    4.402522   4.444515   4.821855   5.599544   6.109268
    29  C    4.535110   7.938137   8.902005   8.549569  10.188835
    30  C    4.774949   8.794265   9.841436   9.316967  11.135223
    31  C    5.743000   8.570626   9.469717   9.164295  10.701464
    32  C    6.078216  10.059011  11.128497  10.510592  12.397934
    33  H    4.192390   8.597120   9.670438   9.111504  10.977598
    34  C    6.868731   9.861118  10.796913  10.373350  12.005246
    35  H    5.999109   8.202977   9.003027   8.847556  10.196751
    36  C    7.014677  10.550660  11.572830  11.001305  12.807102
    37  H    6.535546  10.780443  11.891433  11.180280  13.161387
    38  O    8.296535  11.831491  12.869124  12.225952  14.080729
    39  H    8.467913  12.273071  13.354333  12.634709  14.579044
    40  O    8.029696  10.579451  11.453039  11.070161  12.600220
    41  C    9.097971  11.697985  12.491132  12.284401  13.662708
    42  H    8.916983  11.443076  12.150781  12.144181  13.350955
    43  H    9.935528  12.227558  12.983765  12.780801  14.099812
    44  H    9.463743  12.415849  13.261058  12.981702  14.462361
    45  C    2.393251   4.470083   5.182864   5.507635   6.567921
    46  H    2.482669   5.496148   6.205566   6.491077   7.589155
    47  H    3.168530   4.177821   4.637613   5.380460   6.018030
    48  O    5.024506   3.458448   4.672335   2.348994   5.053601
    49  O    4.889333   2.979614   4.187906   2.311038   4.755239
    50  N    4.885040   2.533383   3.765074   1.500225   4.233395
                   11         12         13         14         15
    11  H    0.000000
    12  C    3.881848   0.000000
    13  H    4.099802   2.557368   0.000000
    14  C    3.392868   1.405660   3.349899   0.000000
    15  H    2.455462   3.403504   4.598928   2.148804   0.000000
    16  O    4.551788   2.354551   4.394085   1.354877   2.680193
    17  H    4.554207   3.178685   5.057774   1.921618   2.313817
    18  O    5.229859   1.355218   3.241502   2.418868   4.558471
    19  C    6.117808   2.386541   3.499996   3.123090   5.193443
    20  H    6.084591   2.668914   2.846592   3.501130   5.443539
    21  H    7.097331   3.258022   4.368863   4.070919   6.174911
    22  H    6.157986   2.723622   4.022776   2.945534   4.830439
    23  C    7.384183   8.736607   7.939329   9.421873   9.640645
    24  H    7.310549   8.623259   7.521083   9.341648   9.597554
    25  C    6.395805   8.035104   7.522140   8.582976   8.639396
    26  H    6.723370   8.353019   8.148406   8.848742   8.859964
    27  C    5.037249   7.069476   6.499396   7.480760   7.364496
    28  O    4.356659   6.737224   6.534770   6.959168   6.619728
    29  C    8.757064   9.871160   9.148030  10.633301  10.955370
    30  C    9.738120  10.668946   9.697254  11.518855  11.946551
    31  C    9.322027  10.409393   9.995819  11.135185  11.432003
    32  C   11.051769  11.835378  10.935417  12.729858  13.221999
    33  H    9.574648  10.492142   9.279913  11.358583  11.803712
    34  C   10.682139  11.599135  11.201142  12.379797  12.753630
    35  H    8.825059  10.031670   9.847596  10.670447  10.874708
    36  C   11.490351  12.272239  11.637879  13.136134  13.604087
    37  H   11.838171  12.515379  11.465544  13.457226  14.009860
    38  O   12.808754  13.470845  12.881745  14.366852  14.886422
    39  H   13.311054  13.902365  13.167507  14.841318  15.410642
    40  O   11.341321  12.217718  12.068174  12.959126  13.311977
    41  C   12.286915  13.440381  13.273994  14.110059  14.315351
    42  H   11.857878  13.315688  13.117447  13.898973  13.947379
    43  H   12.797390  13.873190  13.884417  14.520409  14.729975
    44  H   13.063326  14.176384  13.866168  14.895144  15.143268
    45  C    4.846683   6.849614   5.752355   7.299012   7.229598
    46  H    5.830204   7.850641   6.557740   8.324221   8.230779
    47  H    4.139174   6.639127   5.547606   6.898720   6.569802
    48  O    5.571782   3.040468   2.459773   4.401209   6.130353
    49  O    4.970164   3.183907   3.675986   4.357829   5.797357
    50  N    4.655843   2.432808   2.522870   3.726030   5.316780
                   16         17         18         19         20
    16  O    0.000000
    17  H    0.968850   0.000000
    18  O    2.749466   3.709148   0.000000
    19  C    3.065598   3.989713   1.446840   0.000000
    20  H    3.699202   4.571196   2.091254   1.092145   0.000000
    21  H    3.883524   4.802030   2.030629   1.088266   1.783285
    22  H    2.479068   3.294680   2.098798   1.090044   1.792752
    23  C   10.736600  11.186000   9.470349  10.562977  10.278437
    24  H   10.677758  11.147743   9.366498  10.351504   9.960798
    25  C    9.880909  10.259546   8.862129  10.038901   9.851524
    26  H   10.095643  10.443594   9.151594  10.412066  10.331034
    27  C    8.799007   9.115377   8.040473   9.175440   8.965830
    28  O    8.228075   8.449365   7.786484   8.987016   8.892276
    29  C   11.920684  12.408074  10.491816  11.600347  11.341069
    30  C   12.814624  13.350711  11.222740  12.231696  11.880012
    31  C   12.374234  12.839598  10.990828  12.191052  12.044593
    32  C   14.001917  14.561915  12.308668  13.324892  12.997705
    33  H   12.670339  13.217932  11.060789  11.977293  11.536659
    34  C   13.595722  14.089819  12.095338  13.286349  13.148154
    35  H   11.878994  12.297124  10.650633  11.917220  11.852537
    36  C   14.373816  14.915107  12.721065  13.825790  13.599272
    37  H   14.730725  15.318801  12.947607  13.892201  13.506069
    38  O   15.580933  16.140352  13.854164  14.955114  14.746352
    39  H   16.067135  16.652049  14.262043  15.303599  15.038203
    40  O   14.120434  14.591813  12.676057  13.928857  13.885276
    41  C   15.281288  15.702394  13.962061  15.231836  15.186287
    42  H   15.091192  15.457626  13.935083  15.215906  15.158193
    43  H   15.643348  16.051997  14.356122  15.661277  15.684226
    44  H   16.089040  16.536627  14.678621  15.907588  15.809356
    45  C    8.651472   8.994956   7.851477   8.808453   8.429322
    46  H    9.677708  10.021826   8.823827   9.723930   9.276296
    47  H    8.234017   8.482976   7.761450   8.671241   8.293494
    48  O    5.316775   6.187964   2.940464   3.518448   3.135461
    49  O    5.390758   6.154732   3.382556   4.588656   4.640303
    50  N    4.777006   5.585649   2.683494   3.694211   3.567172
                   21         22         23         24         25
    21  H    0.000000
    22  H    1.783724   0.000000
    23  C   11.080351  11.294720   0.000000
    24  H   10.894813  11.092725   1.085973   0.000000
    25  C   10.612327  10.688802   1.351679   2.101399   0.000000
    26  H   10.951448  11.039999   2.127109   3.077471   1.086354
    27  C    9.857947   9.733385   2.499688   2.727616   1.463040
    28  O    9.711002   9.442011   3.587990   3.942050   2.336674
    29  C   12.025358  12.389934   1.456307   2.143854   2.514699
    30  C   12.616242  13.073652   2.461968   2.588265   3.744339
    31  C   12.570257  12.968361   2.521741   3.443115   3.047453
    32  C   13.638443  14.202618   3.748156   3.976136   4.939002
    33  H   12.389125  12.820102   2.661433   2.320489   4.012847
    34  C   13.594981  14.103861   3.788291   4.582198   4.430122
    35  H   12.317882  12.642552   2.781012   3.839913   2.790940
    36  C   14.105101  14.693138   4.274287   4.798603   5.226046
    37  H   14.179626  14.797279   4.612672   4.646039   5.875454
    38  O   15.176405  15.847360   5.632446   6.139791   6.555553
    39  H   15.511420  16.220348   6.054210   6.413002   7.100063
    40  O   14.197542  14.727289   4.900511   5.797370   5.284178
    41  C   15.537441  16.000208   5.809000   6.688977   6.163013
    42  H   15.593798  15.937080   5.521585   6.414899   5.769441
    43  H   15.931930  16.416182   6.664796   7.597727   6.885224
    44  H   16.198859  16.708558   6.256459   7.024900   6.797818
    45  C    9.546370   9.367935   3.024232   2.647236   2.601102
    46  H   10.447643  10.306482   2.818915   2.204879   2.795980
    47  H    9.498666   9.118101   4.042090   3.696820   3.448125
    48  O    3.853222   4.496636   7.437983   7.154138   7.184192
    49  O    4.929798   5.419932   6.330002   6.350619   5.835884
    50  N    4.170319   4.541759   6.914848   6.763516   6.468668
                   26         27         28         29         30
    26  H    0.000000
    27  C    2.144034   0.000000
    28  O    2.519726   1.227364   0.000000
    29  C    2.801377   3.873500   4.851345   0.000000
    30  C    4.181315   4.955520   6.043887   1.404454   0.000000
    31  C    2.795060   4.510446   5.238786   1.408773   2.410482
    32  C    5.181951   6.243758   7.272563   2.432518   1.389158
    33  H    4.678517   4.988418   6.166588   2.157306   1.085102
    34  C    4.137595   5.892910   6.612459   2.438391   2.792718
    35  H    2.173557   4.190963   4.692795   2.175009   3.405494
    36  C    5.176352   6.649621   7.528025   2.818757   2.415141
    37  H    6.205613   7.106521   8.189474   3.415722   2.151276
    38  O    6.430915   7.990875   8.836269   4.176538   3.674912
    39  H    7.095998   8.496243   9.420076   4.625141   3.842243
    40  O    4.741670   6.723689   7.259872   3.680413   4.162622
    41  C    5.585114   7.575919   8.061583   4.605355   4.992195
    42  H    5.174337   7.119123   7.553008   4.470458   4.994658
    43  H    6.189812   8.266035   8.636891   5.519956   5.989251
    44  H    6.348649   8.231833   8.824746   4.940413   5.026317
    45  C    3.541147   1.536980   2.392622   4.474861   5.218403
    46  H    3.821931   2.172735   3.179360   4.179161   4.723122
    47  H    4.255233   2.126853   2.480130   5.494533   6.262745
    48  O    7.697692   6.574605   6.769962   8.369978   8.853316
    49  O    6.108675   5.352122   5.363114   7.212604   7.964140
    50  N    6.883248   5.792282   5.827747   7.909699   8.569611
                   31         32         33         34         35
    31  C    0.000000
    32  C    2.782119   0.000000
    33  H    3.398231   2.141144   0.000000
    34  C    1.384556   2.425393   3.877802   0.000000
    35  H    1.084133   3.865803   4.313007   2.115742   0.000000
    36  C    2.416228   1.395050   3.393326   1.412181   3.384849
    37  H    3.868752   1.086663   2.467048   3.409599   4.952350
    38  O    3.636589   2.418140   4.554329   2.370891   4.484951
    39  H    4.334746   2.463335   4.550434   3.190506   5.269726
    40  O    2.379306   3.684535   5.247580   1.371116   2.568608
    41  C    3.371050   4.386734   6.051396   2.375895   3.504118
    42  H    3.304176   4.606487   6.007264   2.671445   3.308128
    43  H    4.199233   5.380705   7.062453   3.263461   4.140430
    44  H    3.891719   4.171809   6.037227   2.696750   4.269770
    45  C    5.447708   6.597679   4.922373   6.779759   5.371462
    46  H    5.295916   6.101713   4.306316   6.556017   5.389408
    47  H    6.402581   7.640282   5.949324   7.753677   6.233639
    48  O    9.081089   9.915490   8.561792  10.120222   8.991607
    49  O    7.665889   8.995266   7.919926   8.730432   7.388563
    50  N    8.517175   9.669842   8.382698   9.622498   8.301298
                   36         37         38         39         40
    36  C    0.000000
    37  H    2.149388   0.000000
    38  O    1.358790   2.673831   0.000000
    39  H    1.921604   2.298539   0.968441   0.000000
    40  O    2.422176   4.566205   2.748726   3.709795   0.000000
    41  C    3.102712   5.149587   3.074085   3.984353   1.436972
    42  H    3.516733   5.427695   3.759032   4.612880   2.088062
    43  H    4.045507   6.128544   3.853690   4.761400   2.030552
    44  H    2.898741   4.741856   2.488557   3.280897   2.097951
    45  C    7.282626   7.292950   8.640728   9.001537   7.787515
    46  H    6.906118   6.713929   8.251951   8.537573   7.664085
    47  H    8.306350   8.332027   9.664945  10.040101   8.710081
    48  O   10.507905  10.424120  11.632583  11.911294  10.902059
    49  O    9.349467   9.680906  10.476094  10.904927   9.340405
    50  N   10.158314  10.288604  11.319594  11.687411  10.329434
                   41         42         43         44         45
    41  C    0.000000
    42  H    1.094743   0.000000
    43  H    1.089509   1.782914   0.000000
    44  H    1.091661   1.789771   1.781147   0.000000
    45  C    8.656647   8.222546   9.441253   9.187550   0.000000
    46  H    8.439689   7.973565   9.306278   8.865365   1.090132
    47  H    9.521752   9.016734  10.278790  10.088409   1.090639
    48  O   12.229380  12.265773  12.768408  12.794010   6.141724
    49  O   10.649337  10.670729  11.086522  11.328516   5.421906
    50  N   11.623633  11.604025  12.120053  12.265959   5.557300
                   46         47         48         49         50
    46  H    0.000000
    47  H    1.765883   0.000000
    48  O    6.929334   6.353631   0.000000
    49  O    6.340827   5.728237   2.166508   0.000000
    50  N    6.460949   5.719024   1.219725   1.222095   0.000000
 Stoichiometry    C21H20NO8(2)
 Framework group  C1[X(C21H20NO8)]
 Deg. of freedom   144
 Full point group                 C1      NOp   1
 Largest Abelian subgroup         C1      NOp   1
 Largest concise Abelian subgroup C1      NOp   1
                         Standard orientation:                         
 ---------------------------------------------------------------------
 Center     Atomic      Atomic             Coordinates (Angstroms)
 Number     Number       Type             X           Y           Z
 ---------------------------------------------------------------------
      1          6           0        2.241587    1.182628    0.578600
      2          1           0        1.864386    2.153748    0.274761
      3          6           0        1.498983    0.437999    1.422845
      4          1           0        1.838214   -0.520801    1.800928
      5          6           0        0.183669    0.830853    1.952651
      6          8           0       -0.397877    0.092434    2.738157
      7          6           0        3.554767    0.879668    0.026831
      8          6           0        4.340173    1.946514   -0.424081
      9          6           0        4.173165   -0.400321   -0.004093
     10          6           0        5.627874    1.767078   -0.914675
     11          1           0        3.928198    2.948631   -0.381216
     12          6           0        5.436997   -0.622474   -0.579907
     13          1           0        4.686479   -0.402912    1.854975
     14          6           0        6.181937    0.490689   -1.006302
     15          1           0        6.198186    2.624463   -1.259488
     16          8           0        7.405453    0.247487   -1.535032
     17          1           0        7.815133    1.072654   -1.834918
     18          8           0        5.860836   -1.895295   -0.772004
     19          6           0        6.968191   -2.343338    0.044310
     20          1           0        6.715522   -2.252369    1.102924
     21          1           0        7.113644   -3.391384   -0.210182
     22          1           0        7.871569   -1.776938   -0.182176
     23          6           0       -3.069471    0.872676    0.736464
     24          1           0       -2.731684    0.834003    1.767842
     25          6           0       -2.299880    1.508189   -0.175068
     26          1           0       -2.598450    1.567848   -1.217882
     27          6           0       -1.023415    2.164295    0.108918
     28          8           0       -0.403884    2.728813   -0.787700
     29          6           0       -4.340282    0.202149    0.499267
     30          6           0       -5.007040   -0.386215    1.586351
     31          6           0       -4.944435    0.115775   -0.770449
     32          6           0       -6.221597   -1.038373    1.415182
     33          1           0       -4.565131   -0.336381    2.576139
     34          6           0       -6.155688   -0.528994   -0.955202
     35          1           0       -4.469266    0.546822   -1.644381
     36          6           0       -6.803268   -1.123419    0.150037
     37          1           0       -6.719299   -1.497850    2.264894
     38          8           0       -7.975458   -1.771136   -0.079620
     39          1           0       -8.318049   -2.144908    0.745488
     40          8           0       -6.670004   -0.645742   -2.220828
     41          6           0       -7.845763    0.136396   -2.486797
     42          1           0       -7.633230    1.202079   -2.354087
     43          1           0       -8.107611   -0.054033   -3.527086
     44          1           0       -8.675495   -0.159887   -1.842215
     45          6           0       -0.452917    2.161169    1.536094
     46          1           0       -1.237979    2.379255    2.260320
     47          1           0        0.284963    2.962915    1.583319
     48          8           0        3.586719   -2.435304    1.012124
     49          8           0        2.480030   -1.792620   -0.736004
     50          7           0        3.341693   -1.643104    0.117635
 ---------------------------------------------------------------------
 Rotational constants (GHZ):           0.3378831           0.0476574           0.0466277
 Standard basis: 6-311+G(d) (5D, 7F)
 There are   750 symmetry adapted cartesian basis functions of A   symmetry.
 There are   720 symmetry adapted basis functions of A   symmetry.
   720 basis functions,  1180 primitive gaussians,   750 cartesian basis functions
   109 alpha electrons      108 beta electrons
       nuclear repulsion energy      2692.4886502026 Hartrees.
 NAtoms=   50 NActive=   50 NUniq=   50 SFac= 1.00D+00 NAtFMM=   60 NAOKFM=F Big=F
 Integral buffers will be    131072 words long.
 Raffenetti 2 integral format.
 Two-electron integral symmetry is turned on.
 Force inversion solution in PCM.
 Using the following non-standard input for PCM:
 Eps=7
 EpsInf=1.85341
 HbondAcidity=0
 HbondBasicity=0.48
 SurfaceTensionAtInterface=60.62
 CarbonAromaticity=0
 ElectronegativeHalogenicity=0
 --- end of non-standard input.
 Force inversion solution in PCM.
 ------------------------------------------------------------------------------
 Polarizable Continuum Model (PCM)
 =================================
 Model                : PCM.
 Atomic radii         : SMD-Coulomb.
 Polarization charges : Total charges.
 Charge compensation  : None.
 Solution method      : Matrix inversion.
 Cavity type          : VdW (van der Waals Surface) (Alpha=1.000).
 Cavity algorithm     : GePol (No added spheres)
                        Default sphere list used, NSphG=   50.
                        Lebedev-Laikov grids with approx.  5.0 points / Ang**2.
                        Smoothing algorithm: York/Karplus (Gamma=1.0000).
                        Polarization charges: spherical gaussians, with
                                              point-specific exponents (IZeta= 3).
                        Self-potential: point-specific (ISelfS= 7).
                        Self-field    : sphere-specific E.n sum rule (ISelfD= 2).
 1st derivatives      : Analytical E(r).r(x)/FMM algorithm (CHGder, D1EAlg=3).
                        Cavity 1st derivative terms included.
 2nd derivatives      : Analytical E(r).r(xy)/FMM algorithm (CHGder, D2EAlg=3).
                        Cavity 2nd derivative terms included.
 Solvent              : Generic,
                        Eps                           =   7.000000
                        Eps(infinity)                 =   1.853410
                        RSolv                         =   0.000000 Ang.
                        Molar volume                  =   0.000000 cm**3/mol
                        Thermal expansion coefficient =   0.000000 K**-1
                        Absolute temperature          = 298.150000 K
                        Numeral density               =   0.000000 Ang**-3
                        Hydrogen bond acidity         =   0.000000
                        Hydrogen bond basicity        =   0.480000
                        Surface tension at interface  =  60.620000 (cal/mol)*Ang**-2
                        Carbon aromaticity            =   0.000000
                        Electronegative halogenicity  =   0.000000
 ------------------------------------------------------------------------------
 ------------------------------------------------------------------------------
 Atomic radii for non-electrostatic terms: SMD-CDS.
 ------------------------------------------------------------------------------
 Nuclear repulsion after PCM non-electrostatic terms =     2692.4851680054 Hartrees.
 One-electron integrals computed using PRISM.
 PrsmSu:  requested number of processors reduced to:  23 ShMem   1 Linda.
 PrsmSu:  requested number of processors reduced to:  66 ShMem   1 Linda.
 NBasis=   720 RedAO= T EigKep=  1.04D-06  NBF=   720
 NBsUse=   716 1.00D-06 EigRej=  6.62D-07 NBFU=   716
 Initial guess from the checkpoint file:  "teste3-1-2.chk"
 B after Tr=     0.000000   -0.000000    0.000000
         Rot=    1.000000    0.000000   -0.000000   -0.000000 Ang=   0.00 deg.
 Initial guess <Sx>= 0.0000 <Sy>= 0.0000 <Sz>= 0.5000 <S**2>= 0.7657 S= 0.5078
 Requested convergence on RMS density matrix=1.00D-08 within 128 cycles.
 Requested convergence on MAX density matrix=1.00D-06.
 Requested convergence on             energy=1.00D-06.
 No special actions if energy rises.
 CoulSu:  requested number of processors reduced to:  54 ShMem   1 Linda.
 CalDSu:  requested number of processors reduced to:  45 ShMem   1 Linda.
 CoulSu:  requested number of processors reduced to:  60 ShMem   1 Linda.
 CoulSu:  requested number of processors reduced to:  25 ShMem   1 Linda.
 Inv3:  Mode=1 IEnd=    51046875.
 Iteration    1 A*A^-1 deviation from unit magnitude is 3.44D-15 for   1537.
 Iteration    1 A*A^-1 deviation from orthogonality  is 2.24D-15 for   1768    639.
 Iteration    1 A^-1*A deviation from unit magnitude is 3.77D-15 for   3417.
 Iteration    1 A^-1*A deviation from orthogonality  is 1.67D-14 for   1200   1178.
 CoulSu:  requested number of processors reduced to:  25 ShMem   1 Linda.
 CoulSu:  requested number of processors reduced to:  25 ShMem   1 Linda.
 CoulSu:  requested number of processors reduced to:  65 ShMem   1 Linda.
 CoulSu:  requested number of processors reduced to:  57 ShMem   1 Linda.
 CalDSu:  requested number of processors reduced to:  45 ShMem   1 Linda.
 CoulSu:  requested number of processors reduced to:  65 ShMem   1 Linda.
 CoulSu:  requested number of processors reduced to:  41 ShMem   1 Linda.
 CoulSu:  requested number of processors reduced to:  38 ShMem   1 Linda.
 CoulSu:  requested number of processors reduced to:  65 ShMem   1 Linda.
 Error on total polarization charges =  0.04295
 SCF Done:  E(UB3LYP) =  -1468.94896691     A.U. after    2 cycles
            NFock=  2  Conv=0.50D-09     -V/T= 2.0038
 <Sx>= 0.0000 <Sy>= 0.0000 <Sz>= 0.5000 <S**2>= 0.7657 S= 0.5078
 <L.S>=  0.00000000000    
 SMD-CDS (non-electrostatic) energy       (kcal/mol) =      -2.19
 (included in total energy above)
 Annihilation of the first spin contaminant:
 S**2 before annihilation     0.7657,   after     0.7501
 DoSCS=F DFT=T ScalE2(SS,OS)=  1.000000  1.000000
 Range of M.O.s used for correlation:     1   716
 NBasis=   720 NAE=   109 NBE=   108 NFC=     0 NFV=     0
 NROrb=    716 NOA=   109 NOB=   108 NVA=   607 NVB=   608

 **** Warning!!: The largest alpha MO coefficient is  0.11675421D+03


 **** Warning!!: The largest beta MO coefficient is  0.13520630D+03

 PrsmSu:  requested number of processors reduced to:  18 ShMem   1 Linda.
 PrsmSu:  requested number of processors reduced to:   2 ShMem   1 Linda.
 Symmetrizing basis deriv contribution to polar:
 IMax=3 JMax=2 DiffMx= 0.00D+00
 G2DrvN: will do     1 centers at a time, making   51 passes.
 Estimated number of processors is:   17
 Calling FoFCou, ICntrl=  3107 FMM=F I1Cent=   0 AccDes= 0.00D+00.
 CoulSu:  requested number of processors reduced to:  23 ShMem   1 Linda.
 CalDSu:  requested number of processors reduced to:  24 ShMem   1 Linda.
 Calling FoFCou, ICntrl=  3107 FMM=F I1Cent=   0 AccDes= 0.00D+00.
 CoulSu:  requested number of processors reduced to:  17 ShMem   1 Linda.
 CalDSu:  requested number of processors reduced to:  24 ShMem   1 Linda.
 Calling FoFCou, ICntrl=  3107 FMM=F I1Cent=   0 AccDes= 0.00D+00.
 CoulSu:  requested number of processors reduced to:  17 ShMem   1 Linda.
 CalDSu:  requested number of processors reduced to:  24 ShMem   1 Linda.
 Calling FoFCou, ICntrl=  3107 FMM=F I1Cent=   0 AccDes= 0.00D+00.
 CoulSu:  requested number of processors reduced to:  17 ShMem   1 Linda.
 CalDSu:  requested number of processors reduced to:  24 ShMem   1 Linda.
 Calling FoFCou, ICntrl=  3107 FMM=F I1Cent=   0 AccDes= 0.00D+00.
 CoulSu:  requested number of processors reduced to:  17 ShMem   1 Linda.
 CalDSu:  requested number of processors reduced to:  24 ShMem   1 Linda.
 Calling FoFCou, ICntrl=  3107 FMM=F I1Cent=   0 AccDes= 0.00D+00.
 CoulSu:  requested number of processors reduced to:  17 ShMem   1 Linda.
 CalDSu:  requested number of processors reduced to:  24 ShMem   1 Linda.
 Calling FoFCou, ICntrl=  3107 FMM=F I1Cent=   0 AccDes= 0.00D+00.
 CoulSu:  requested number of processors reduced to:  17 ShMem   1 Linda.
 CalDSu:  requested number of processors reduced to:  24 ShMem   1 Linda.
 Calling FoFCou, ICntrl=  3107 FMM=F I1Cent=   0 AccDes= 0.00D+00.
 CoulSu:  requested number of processors reduced to:  17 ShMem   1 Linda.
 CalDSu:  requested number of processors reduced to:  24 ShMem   1 Linda.
 Calling FoFCou, ICntrl=  3107 FMM=F I1Cent=   0 AccDes= 0.00D+00.
 CoulSu:  requested number of processors reduced to:  17 ShMem   1 Linda.
 CalDSu:  requested number of processors reduced to:  24 ShMem   1 Linda.
 Calling FoFCou, ICntrl=  3107 FMM=F I1Cent=   0 AccDes= 0.00D+00.
 CoulSu:  requested number of processors reduced to:  17 ShMem   1 Linda.
 CalDSu:  requested number of processors reduced to:  24 ShMem   1 Linda.
 Calling FoFCou, ICntrl=  3107 FMM=F I1Cent=   0 AccDes= 0.00D+00.
 CoulSu:  requested number of processors reduced to:  17 ShMem   1 Linda.
 CalDSu:  requested number of processors reduced to:  24 ShMem   1 Linda.
 Calling FoFCou, ICntrl=  3107 FMM=F I1Cent=   0 AccDes= 0.00D+00.
 CoulSu:  requested number of processors reduced to:  17 ShMem   1 Linda.
 CalDSu:  requested number of processors reduced to:  24 ShMem   1 Linda.
 Calling FoFCou, ICntrl=  3107 FMM=F I1Cent=   0 AccDes= 0.00D+00.
 CoulSu:  requested number of processors reduced to:  17 ShMem   1 Linda.
 CalDSu:  requested number of processors reduced to:  24 ShMem   1 Linda.
 Calling FoFCou, ICntrl=  3107 FMM=F I1Cent=   0 AccDes= 0.00D+00.
 CoulSu:  requested number of processors reduced to:  17 ShMem   1 Linda.
 CalDSu:  requested number of processors reduced to:  24 ShMem   1 Linda.
 Calling FoFCou, ICntrl=  3107 FMM=F I1Cent=   0 AccDes= 0.00D+00.
 CoulSu:  requested number of processors reduced to:  17 ShMem   1 Linda.
 CalDSu:  requested number of processors reduced to:  24 ShMem   1 Linda.
 Calling FoFCou, ICntrl=  3107 FMM=F I1Cent=   0 AccDes= 0.00D+00.
 CoulSu:  requested number of processors reduced to:  17 ShMem   1 Linda.
 CalDSu:  requested number of processors reduced to:  24 ShMem   1 Linda.
 Calling FoFCou, ICntrl=  3107 FMM=F I1Cent=   0 AccDes= 0.00D+00.
 CoulSu:  requested number of processors reduced to:  17 ShMem   1 Linda.
 CalDSu:  requested number of processors reduced to:  24 ShMem   1 Linda.
 Calling FoFCou, ICntrl=  3107 FMM=F I1Cent=   0 AccDes= 0.00D+00.
 CoulSu:  requested number of processors reduced to:  17 ShMem   1 Linda.
 CalDSu:  requested number of processors reduced to:  24 ShMem   1 Linda.
 Calling FoFCou, ICntrl=  3107 FMM=F I1Cent=   0 AccDes= 0.00D+00.
 CoulSu:  requested number of processors reduced to:  17 ShMem   1 Linda.
 CalDSu:  requested number of processors reduced to:  24 ShMem   1 Linda.
 Calling FoFCou, ICntrl=  3107 FMM=F I1Cent=   0 AccDes= 0.00D+00.
 CoulSu:  requested number of processors reduced to:  17 ShMem   1 Linda.
 CalDSu:  requested number of processors reduced to:  24 ShMem   1 Linda.
 Calling FoFCou, ICntrl=  3107 FMM=F I1Cent=   0 AccDes= 0.00D+00.
 CoulSu:  requested number of processors reduced to:  17 ShMem   1 Linda.
 CalDSu:  requested number of processors reduced to:  24 ShMem   1 Linda.
 Calling FoFCou, ICntrl=  3107 FMM=F I1Cent=   0 AccDes= 0.00D+00.
 CoulSu:  requested number of processors reduced to:  17 ShMem   1 Linda.
 CalDSu:  requested number of processors reduced to:  24 ShMem   1 Linda.
 Calling FoFCou, ICntrl=  3107 FMM=F I1Cent=   0 AccDes= 0.00D+00.
 CoulSu:  requested number of processors reduced to:  17 ShMem   1 Linda.
 CalDSu:  requested number of processors reduced to:  24 ShMem   1 Linda.
 Calling FoFCou, ICntrl=  3107 FMM=F I1Cent=   0 AccDes= 0.00D+00.
 CoulSu:  requested number of processors reduced to:  17 ShMem   1 Linda.
 CalDSu:  requested number of processors reduced to:  24 ShMem   1 Linda.
 Calling FoFCou, ICntrl=  3107 FMM=F I1Cent=   0 AccDes= 0.00D+00.
 CoulSu:  requested number of processors reduced to:  17 ShMem   1 Linda.
 CalDSu:  requested number of processors reduced to:  24 ShMem   1 Linda.
 Calling FoFCou, ICntrl=  3107 FMM=F I1Cent=   0 AccDes= 0.00D+00.
 CoulSu:  requested number of processors reduced to:  17 ShMem   1 Linda.
 CalDSu:  requested number of processors reduced to:  24 ShMem   1 Linda.
 Calling FoFCou, ICntrl=  3107 FMM=F I1Cent=   0 AccDes= 0.00D+00.
 CoulSu:  requested number of processors reduced to:  17 ShMem   1 Linda.
 CalDSu:  requested number of processors reduced to:  24 ShMem   1 Linda.
 Calling FoFCou, ICntrl=  3107 FMM=F I1Cent=   0 AccDes= 0.00D+00.
 CoulSu:  requested number of processors reduced to:  17 ShMem   1 Linda.
 CalDSu:  requested number of processors reduced to:  24 ShMem   1 Linda.
 Calling FoFCou, ICntrl=  3107 FMM=F I1Cent=   0 AccDes= 0.00D+00.
 CoulSu:  requested number of processors reduced to:  17 ShMem   1 Linda.
 CalDSu:  requested number of processors reduced to:  24 ShMem   1 Linda.
 Calling FoFCou, ICntrl=  3107 FMM=F I1Cent=   0 AccDes= 0.00D+00.
 CoulSu:  requested number of processors reduced to:  17 ShMem   1 Linda.
 CalDSu:  requested number of processors reduced to:  24 ShMem   1 Linda.
 Calling FoFCou, ICntrl=  3107 FMM=F I1Cent=   0 AccDes= 0.00D+00.
 CoulSu:  requested number of processors reduced to:  17 ShMem   1 Linda.
 CalDSu:  requested number of processors reduced to:  24 ShMem   1 Linda.
 Calling FoFCou, ICntrl=  3107 FMM=F I1Cent=   0 AccDes= 0.00D+00.
 CoulSu:  requested number of processors reduced to:  17 ShMem   1 Linda.
 CalDSu:  requested number of processors reduced to:  24 ShMem   1 Linda.
 Calling FoFCou, ICntrl=  3107 FMM=F I1Cent=   0 AccDes= 0.00D+00.
 CoulSu:  requested number of processors reduced to:  17 ShMem   1 Linda.
 CalDSu:  requested number of processors reduced to:  24 ShMem   1 Linda.
 Calling FoFCou, ICntrl=  3107 FMM=F I1Cent=   0 AccDes= 0.00D+00.
 CoulSu:  requested number of processors reduced to:  17 ShMem   1 Linda.
 CalDSu:  requested number of processors reduced to:  24 ShMem   1 Linda.
 Calling FoFCou, ICntrl=  3107 FMM=F I1Cent=   0 AccDes= 0.00D+00.
 CoulSu:  requested number of processors reduced to:  17 ShMem   1 Linda.
 CalDSu:  requested number of processors reduced to:  24 ShMem   1 Linda.
 Calling FoFCou, ICntrl=  3107 FMM=F I1Cent=   0 AccDes= 0.00D+00.
 CoulSu:  requested number of processors reduced to:  17 ShMem   1 Linda.
 CalDSu:  requested number of processors reduced to:  24 ShMem   1 Linda.
 Calling FoFCou, ICntrl=  3107 FMM=F I1Cent=   0 AccDes= 0.00D+00.
 CoulSu:  requested number of processors reduced to:  17 ShMem   1 Linda.
 CalDSu:  requested number of processors reduced to:  24 ShMem   1 Linda.
 Calling FoFCou, ICntrl=  3107 FMM=F I1Cent=   0 AccDes= 0.00D+00.
 CoulSu:  requested number of processors reduced to:  17 ShMem   1 Linda.
 CalDSu:  requested number of processors reduced to:  24 ShMem   1 Linda.
 Calling FoFCou, ICntrl=  3107 FMM=F I1Cent=   0 AccDes= 0.00D+00.
 CoulSu:  requested number of processors reduced to:  17 ShMem   1 Linda.
 CalDSu:  requested number of processors reduced to:  24 ShMem   1 Linda.
 Calling FoFCou, ICntrl=  3107 FMM=F I1Cent=   0 AccDes= 0.00D+00.
 CoulSu:  requested number of processors reduced to:  17 ShMem   1 Linda.
 CalDSu:  requested number of processors reduced to:  24 ShMem   1 Linda.
 Calling FoFCou, ICntrl=  3107 FMM=F I1Cent=   0 AccDes= 0.00D+00.
 CoulSu:  requested number of processors reduced to:  17 ShMem   1 Linda.
 CalDSu:  requested number of processors reduced to:  24 ShMem   1 Linda.
 Calling FoFCou, ICntrl=  3107 FMM=F I1Cent=   0 AccDes= 0.00D+00.
 CoulSu:  requested number of processors reduced to:  17 ShMem   1 Linda.
 CalDSu:  requested number of processors reduced to:  24 ShMem   1 Linda.
 Calling FoFCou, ICntrl=  3107 FMM=F I1Cent=   0 AccDes= 0.00D+00.
 CoulSu:  requested number of processors reduced to:  17 ShMem   1 Linda.
 CalDSu:  requested number of processors reduced to:  24 ShMem   1 Linda.
 Calling FoFCou, ICntrl=  3107 FMM=F I1Cent=   0 AccDes= 0.00D+00.
 CoulSu:  requested number of processors reduced to:  17 ShMem   1 Linda.
 CalDSu:  requested number of processors reduced to:  24 ShMem   1 Linda.
 Calling FoFCou, ICntrl=  3107 FMM=F I1Cent=   0 AccDes= 0.00D+00.
 CoulSu:  requested number of processors reduced to:  17 ShMem   1 Linda.
 CalDSu:  requested number of processors reduced to:  24 ShMem   1 Linda.
 Calling FoFCou, ICntrl=  3107 FMM=F I1Cent=   0 AccDes= 0.00D+00.
 CoulSu:  requested number of processors reduced to:  17 ShMem   1 Linda.
 CalDSu:  requested number of processors reduced to:  24 ShMem   1 Linda.
 Calling FoFCou, ICntrl=  3107 FMM=F I1Cent=   0 AccDes= 0.00D+00.
 CoulSu:  requested number of processors reduced to:  17 ShMem   1 Linda.
 CalDSu:  requested number of processors reduced to:  24 ShMem   1 Linda.
 Calling FoFCou, ICntrl=  3107 FMM=F I1Cent=   0 AccDes= 0.00D+00.
 CoulSu:  requested number of processors reduced to:  17 ShMem   1 Linda.
 CalDSu:  requested number of processors reduced to:  24 ShMem   1 Linda.
 Calling FoFCou, ICntrl=  3107 FMM=F I1Cent=   0 AccDes= 0.00D+00.
 CoulSu:  requested number of processors reduced to:  17 ShMem   1 Linda.
 CalDSu:  requested number of processors reduced to:  24 ShMem   1 Linda.
 Calling FoFCou, ICntrl=  3107 FMM=F I1Cent=   0 AccDes= 0.00D+00.
 CoulSu:  requested number of processors reduced to:  17 ShMem   1 Linda.
 CalDSu:  requested number of processors reduced to:  24 ShMem   1 Linda.
 Calling FoFCou, ICntrl=  3107 FMM=F I1Cent=   0 AccDes= 0.00D+00.
 CoulSu:  requested number of processors reduced to:  17 ShMem   1 Linda.
 CalDSu:  requested number of processors reduced to:  24 ShMem   1 Linda.
 NEqPCM:  Using equilibrium solvation (IEInf=0, Eps=   7.0000, EpsInf=   1.8534)
 G2PCM: DoFxE=T DoFxN=T DoGrad=T DoDP/DQ/DG/TGxP=FFFF NFrqRd=   0 IEInf=0 SqF1=F DoCFld=F IF1Alg=4.
 CoulSu:  requested number of processors reduced to:  47 ShMem   1 Linda.
 CoulSu:  requested number of processors reduced to:  30 ShMem   1 Linda.
 CoulSu:  requested number of processors reduced to:  40 ShMem   1 Linda.
 CoulSu:  requested number of processors reduced to:  36 ShMem   1 Linda.
 CoulSu:  requested number of processors reduced to:  39 ShMem   1 Linda.
 CoulSu:  requested number of processors reduced to:  47 ShMem   1 Linda.
 CoulSu:  requested number of processors reduced to:  40 ShMem   1 Linda.
 CoulSu:  requested number of processors reduced to:  28 ShMem   1 Linda.
 CoulSu:  requested number of processors reduced to:  47 ShMem   1 Linda.
 CoulSu:  requested number of processors reduced to:  40 ShMem   1 Linda.
 CoulSu:  requested number of processors reduced to:  47 ShMem   1 Linda.
 CoulSu:  requested number of processors reduced to:  30 ShMem   1 Linda.
 CoulSu:  requested number of processors reduced to:  47 ShMem   1 Linda.
 CoulSu:  requested number of processors reduced to:  30 ShMem   1 Linda.
 CoulSu:  requested number of processors reduced to:  40 ShMem   1 Linda.
 CoulSu:  requested number of processors reduced to:  36 ShMem   1 Linda.
 CoulSu:  requested number of processors reduced to:  39 ShMem   1 Linda.
 CoulSu:  requested number of processors reduced to:  47 ShMem   1 Linda.
 CoulSu:  requested number of processors reduced to:  40 ShMem   1 Linda.
 CoulSu:  requested number of processors reduced to:  28 ShMem   1 Linda.
 CoulSu:  requested number of processors reduced to:  47 ShMem   1 Linda.
 CoulSu:  requested number of processors reduced to:  40 ShMem   1 Linda.
 CoulSu:  requested number of processors reduced to:  47 ShMem   1 Linda.
 CoulSu:  requested number of processors reduced to:  30 ShMem   1 Linda.
 CoulSu:  requested number of processors reduced to:  47 ShMem   1 Linda.
 CoulSu:  requested number of processors reduced to:  30 ShMem   1 Linda.
 CoulSu:  requested number of processors reduced to:  40 ShMem   1 Linda.
 CoulSu:  requested number of processors reduced to:  36 ShMem   1 Linda.
 CoulSu:  requested number of processors reduced to:  39 ShMem   1 Linda.
 CoulSu:  requested number of processors reduced to:  47 ShMem   1 Linda.
 CoulSu:  requested number of processors reduced to:  40 ShMem   1 Linda.
 CoulSu:  requested number of processors reduced to:  28 ShMem   1 Linda.
 CoulSu:  requested number of processors reduced to:  47 ShMem   1 Linda.
 CoulSu:  requested number of processors reduced to:  40 ShMem   1 Linda.
 CoulSu:  requested number of processors reduced to:  47 ShMem   1 Linda.
 CoulSu:  requested number of processors reduced to:  30 ShMem   1 Linda.
 CoulSu:  requested number of processors reduced to:  29 ShMem   1 Linda.
 CoulSu:  requested number of processors reduced to:  29 ShMem   1 Linda.
 CoulSu:  requested number of processors reduced to:  45 ShMem   1 Linda.
 CoulSu:  requested number of processors reduced to:  29 ShMem   1 Linda.
 CoulSu:  requested number of processors reduced to:  29 ShMem   1 Linda.
 CoulSu:  requested number of processors reduced to:  45 ShMem   1 Linda.
 CoulSu:  requested number of processors reduced to:  29 ShMem   1 Linda.
 CoulSu:  requested number of processors reduced to:  29 ShMem   1 Linda.
 CoulSu:  requested number of processors reduced to:  45 ShMem   1 Linda.
 CoulSu:  requested number of processors reduced to:  29 ShMem   1 Linda.
 CoulSu:  requested number of processors reduced to:  29 ShMem   1 Linda.
 CoulSu:  requested number of processors reduced to:  45 ShMem   1 Linda.
 CoulSu:  requested number of processors reduced to:  29 ShMem   1 Linda.
 CoulSu:  requested number of processors reduced to:  29 ShMem   1 Linda.
 CoulSu:  requested number of processors reduced to:  45 ShMem   1 Linda.
 CoulSu:  requested number of processors reduced to:  29 ShMem   1 Linda.
 CoulSu:  requested number of processors reduced to:  29 ShMem   1 Linda.
 CoulSu:  requested number of processors reduced to:  45 ShMem   1 Linda.
 CoulSu:  requested number of processors reduced to:  29 ShMem   1 Linda.
 CoulSu:  requested number of processors reduced to:  29 ShMem   1 Linda.
 CoulSu:  requested number of processors reduced to:  45 ShMem   1 Linda.
 CoulSu:  requested number of processors reduced to:  29 ShMem   1 Linda.
 CoulSu:  requested number of processors reduced to:  29 ShMem   1 Linda.
 CoulSu:  requested number of processors reduced to:  45 ShMem   1 Linda.
 CoulSu:  requested number of processors reduced to:  29 ShMem   1 Linda.
 CoulSu:  requested number of processors reduced to:  29 ShMem   1 Linda.
 CoulSu:  requested number of processors reduced to:  45 ShMem   1 Linda.
 CoulSu:  requested number of processors reduced to:  29 ShMem   1 Linda.
 CoulSu:  requested number of processors reduced to:  29 ShMem   1 Linda.
 CoulSu:  requested number of processors reduced to:  45 ShMem   1 Linda.
 CoulSu:  requested number of processors reduced to:  29 ShMem   1 Linda.
 CoulSu:  requested number of processors reduced to:  29 ShMem   1 Linda.
 CoulSu:  requested number of processors reduced to:  45 ShMem   1 Linda.
 CoulSu:  requested number of processors reduced to:  29 ShMem   1 Linda.
 CoulSu:  requested number of processors reduced to:  29 ShMem   1 Linda.
 CoulSu:  requested number of processors reduced to:  45 ShMem   1 Linda.
 CoulSu:  requested number of processors reduced to:  29 ShMem   1 Linda.
 CoulSu:  requested number of processors reduced to:  29 ShMem   1 Linda.
 CoulSu:  requested number of processors reduced to:  45 ShMem   1 Linda.
 CoulSu:  requested number of processors reduced to:  29 ShMem   1 Linda.
 CoulSu:  requested number of processors reduced to:  29 ShMem   1 Linda.
 CoulSu:  requested number of processors reduced to:  45 ShMem   1 Linda.
 CoulSu:  requested number of processors reduced to:  29 ShMem   1 Linda.
 CoulSu:  requested number of processors reduced to:  29 ShMem   1 Linda.
 CoulSu:  requested number of processors reduced to:  45 ShMem   1 Linda.
 CoulSu:  requested number of processors reduced to:  29 ShMem   1 Linda.
 CoulSu:  requested number of processors reduced to:  29 ShMem   1 Linda.
 CoulSu:  requested number of processors reduced to:  45 ShMem   1 Linda.
 CoulSu:  requested number of processors reduced to:  29 ShMem   1 Linda.
 CoulSu:  requested number of processors reduced to:  45 ShMem   1 Linda.
 CoulSu:  requested number of processors reduced to:  29 ShMem   1 Linda.
 CoulSu:  requested number of processors reduced to:  29 ShMem   1 Linda.
 CoulSu:  requested number of processors reduced to:  45 ShMem   1 Linda.
 CoulSu:  requested number of processors reduced to:  29 ShMem   1 Linda.
 CoulSu:  requested number of processors reduced to:  29 ShMem   1 Linda.
 CoulSu:  requested number of processors reduced to:  45 ShMem   1 Linda.
 CoulSu:  requested number of processors reduced to:  29 ShMem   1 Linda.
 CoulSu:  requested number of processors reduced to:  29 ShMem   1 Linda.
 CoulSu:  requested number of processors reduced to:  45 ShMem   1 Linda.
 CoulSu:  requested number of processors reduced to:  29 ShMem   1 Linda.
 CoulSu:  requested number of processors reduced to:  29 ShMem   1 Linda.
 CoulSu:  requested number of processors reduced to:  45 ShMem   1 Linda.
 CoulSu:  requested number of processors reduced to:  29 ShMem   1 Linda.
 CoulSu:  requested number of processors reduced to:  29 ShMem   1 Linda.
 CoulSu:  requested number of processors reduced to:  45 ShMem   1 Linda.
 CoulSu:  requested number of processors reduced to:  29 ShMem   1 Linda.
 CoulSu:  requested number of processors reduced to:  29 ShMem   1 Linda.
 CoulSu:  requested number of processors reduced to:  45 ShMem   1 Linda.
[...]
 00000778,-0.00000391,0.00007343,-0.00005232,-0.00000074,0.00003808,0.0
 0000498,0.00004687,0.00000991,0.00001954,-0.00000425,0.00000123,-0.000
 00118,-0.00006746,-0.00000529,-0.00003359,0.00000202,-0.00000507,0.000
 00746,-0.00001087,-0.00001472,0.00001212,0.00001100,0.00000143,-0.0000
 0746,-0.00000024,0.00000031,0.00000131,-0.00000125,-0.00000173,0.00000
 099,-0.00000026,0.00000169,-0.00000056,-0.01885332,-0.04954318,-0.0278
 0426,0.01461211,0.00496831,0.01755799,0.02750754,0.05659826,-0.0002359
 0,0.00025913,-0.00075783,0.00085497,-0.00148899,-0.00001141,0.00159049
 ,0.00080169,0.00124390,-0.00012254,0.00025361,0.00013643,-0.02484091,-
 0.00314274,-0.01731357,0.00418920,0.00247695,-0.00577517,0.00024832,-0
 .00031804,0.00030403,-0.00006242,0.00005071,-0.00006797,-0.00017227,0.
 00004618,0.00006653,0.00003186,-0.00001827,-0.00005082,0.00000431,-0.0
 0000360,0.00001782,0.00006737,-0.00002343,0.00005425,-0.00000390,0.000
 01518,0.00000065,-0.00002689,0.00000740,0.00000875,-0.00000706,-0.0000
 0002,0.00000165,0.00003060,-0.00000688,-0.00000242,-0.00000061,-0.0000
 0332,-0.00000448,-0.00003343,0.00001946,0.00002556,0.00001074,0.000003
 62,-0.00000561,-0.00000163,0.00000013,-0.00000126,-0.00000125,0.000000
 08,0.00000156,-0.00000212,-0.00000214,0.00000072,0.00042679,0.00005938
 ,0.00023781,0.00008098,-0.00001018,-0.00014956,0.00002687,0.00107847,-
 0.00002714,0.00022052,0.00005059,0.00013546,0.00421638,0.00351106,0.00
 341044,0.00162765,-0.00005405,0.00092151,-0.00013001,0.00003390,-0.000
 03685,0.00004568,-0.00004135,0.00002369,0.00004711,0.00005971,0.000013
 26,-0.00004056,-0.00003293,0.00000940,0.00000602,-0.00000229,-0.000003
 29,-0.00001287,0.00003914,-0.00003807,0.00000130,-0.00000666,0.0000099
 5,0.00005587,0.00001283,0.00002262,-0.00000209,0.00000114,-0.00000288,
 -0.00006375,-0.00000959,-0.00003000,0.00000569,-0.00000571,0.00000432,
 -0.00001497,-0.00002211,0.00000745,0.00001098,0.00000137,-0.00000800,-
 0.00000063,0.00000070,0.00000226,-0.00000156,-0.00000168,0.00000107,-0
 .00000057,0.00000120,-0.00000072,-0.13361969,-0.03252054,-0.18064860,0
 .00321409,0.00140844,0.00343879,0.14239571,0.02751278,0.19484585,-0.00
 057388,0.00048593,0.00038761,0.00009673,-0.00009620,-0.00001588,0.0005
 6265,-0.00026929,-0.00054911,-0.00087394,-0.00006691,0.00036044,-0.000
 47650,0.00018863,0.00022433,0.00029667,-0.00017705,0.00019579,-0.00377
 281,0.00233280,-0.00080000,0.00020903,-0.00060680,-0.00168215,0.021514
 42,0.00465150,-0.01358778,0.00031634,-0.00011107,-0.00024620,-0.000319
 51,0.00000434,-0.00034048,-0.00005942,-0.00085248,0.00392135,-0.000808
 90,-0.00191367,-0.00185365,0.00080765,-0.00037876,-0.00033105,-0.00006
 728,-0.00001780,-0.00002730,-0.00031100,0.00025353,-0.00000179,0.00012
 335,-0.00005462,-0.00000621,-0.00438429,0.00241879,-0.00247447,0.00135
 853,-0.00010155,-0.00042803,0.00030514,0.00038057,-0.00010370,-0.00001
 801,0.00003317,0.00007905,-0.00013256,0.00009728,-0.00000928,0.0000144
 1,-0.00001043,0.00002114,-0.00000572,-0.00000362,-0.00000938,-0.000010
 79,0.00003435,0.00002741,0.00002273,0.00000461,-0.00001481,-0.00004585
 ,-0.00013395,-0.00001062,-0.00000294,0.00007958,0.00002650,-0.00000187
 ,0.00000060,-0.00000579,-0.00000129,-0.00000496,0.00001234,-0.00000440
 ,0.00000545,0.00001634,-0.00000549,-0.00000336,0.00000848,0.00000422,-
 0.00000386,-0.00000765,0.00000591,0.00002489,-0.00000483,0.00000305,-0
 .00000348,-0.00001267,0.00003093,-0.00000335,0.00001190,0.00000042,-0.
 00000033,-0.00000523,-0.00003424,0.00000176,-0.00001056,0.00000845,-0.
 00000465,-0.00000177,-0.00002733,-0.00001236,0.00001203,0.00002537,0.0
 0000191,-0.00001777,-0.00000094,0.00000022,0.00000487,-0.00000126,-0.0
 0000280,0.00000114,-0.00000359,0.00000266,-0.00000061,-0.00000266,0.00
 004751,-0.00009566,-0.00000129,-0.00000583,0.00001315,0.00000954,-0.00
 000058,0.00000947,0.11188560,0.00073187,-0.00009403,-0.00036220,-0.000
 06899,0.00013403,-0.00005265,0.00015947,-0.00046921,0.00137838,-0.0002
 2658,0.00013046,-0.00039907,0.00043353,-0.00013199,-0.00049961,-0.0001
 9707,0.00024729,-0.00023298,0.00399060,0.00006555,0.00225033,-0.002004
 36,0.00052882,0.00066048,-0.00579437,0.01349552,0.01736453,0.00036229,
 -0.00007693,-0.00001079,0.00018068,-0.00028701,0.00025893,0.00101190,-
 0.00098781,-0.00142180,-0.00161518,-0.00263780,-0.00109065,-0.00075572
 ,-0.00030094,-0.00007624,0.00007233,0.00003334,-0.00002209,0.00015763,
 -0.00002983,-0.00015423,-0.00007256,-0.00002172,-0.00001428,0.00149121
 ,-0.00020389,0.00064514,0.00002181,-0.00036806,-0.00022840,-0.00002658
 ,0.00021218,0.00002884,0.00005608,0.00003531,-0.00001613,-0.00007252,0
 .00005840,-0.00003988,0.00008084,-0.00003515,0.00007675,0.00000408,-0.
 00000377,-0.00001102,-0.00009500,0.00005576,-0.00001225,0.00003425,0.0
 0000767,-0.00002262,0.00008541,-0.00025817,0.00004962,-0.00010526,0.00
 020592,-0.00001560,-0.00003407,-0.00000263,-0.00001478,0.00001031,-0.0
 0002485,0.00002245,0.00000790,0.00001349,0.00001428,-0.00001753,-0.000
 01345,-0.00000439,0.00000343,0.00000301,-0.00000010,-0.00000760,0.0000
 2590,-0.00001485,0.00000434,-0.00000199,-0.00001759,0.00005225,-0.0000
 0466,0.00002724,-0.00000640,0.00000009,-0.00000461,-0.00006272,0.00000
 291,-0.00003015,0.00000847,-0.00000949,0.00000527,-0.00002805,0.000000
 77,0.00000919,0.00002756,0.00000066,-0.00001742,-0.00000054,-0.0000017
 5,0.00000399,0.00000080,-0.00000094,0.00000212,-0.00000463,0.00000363,
 -0.00000161,0.00018117,-0.00004649,-0.00002635,0.00001249,0.00001240,-
 0.00004379,-0.00002505,-0.00000685,0.00000555,0.11534304,0.27148382,-0
 .00148914,0.00171298,-0.00034603,0.00028839,-0.00027734,-0.00000829,0.
 00099474,-0.00050569,-0.00050074,0.00118703,-0.00074771,-0.00028462,-0
 .00170065,0.00086004,0.00056864,0.00079261,-0.00066562,0.00055022,-0.0
 0504563,0.00143970,-0.00171671,0.00003529,-0.00148197,-0.00201683,-0.0
 0062878,0.02874956,-0.03820674,0.00039447,0.00010469,-0.00078347,-0.00
 040935,0.00001143,-0.00061905,0.00318031,-0.00182483,-0.01068111,-0.00
 083373,0.00052107,-0.00285462,-0.00010197,-0.00131743,0.00221463,-0.00
 011460,0.00012221,-0.00002416,-0.00148580,0.00061282,-0.00067787,0.000
 06153,0.00006391,0.00011584,0.00131152,0.00050824,0.00572219,-0.000021
 49,0.00069464,-0.00025521,-0.00044785,-0.00057656,-0.00012533,-0.00025
 650,0.00001289,0.00013041,0.00010401,-0.00020570,0.00003045,-0.0001507
 3,0.00005058,-0.00013831,-0.00003699,0.00000942,0.00000334,0.00021093,
 -0.00003241,0.00010680,-0.00001214,0.00000544,0.00001867,-0.00034704,-
 0.00004698,-0.00010564,0.00021845,-0.00008771,0.00000919,0.00008304,0.
 00002011,0.00003747,-0.00002959,0.00003965,-0.00003511,-0.00002001,-0.
 00003525,-0.00000311,0.00003708,0.00003831,0.00001578,-0.00000343,-0.0
 0000406,-0.00000664,0.00001989,-0.00005031,0.00003477,-0.00000278,-0.0
 0000074,0.00000844,-0.00008511,-0.00000484,-0.00005024,0.00001093,-0.0
 0000272,0.00000204,0.00010333,0.00000763,0.00006154,-0.00000759,0.0000
 0978,-0.00001586,0.00003145,0.00001683,-0.00000431,-0.00002307,-0.0000
 0171,0.00001005,0.00000117,0.00000215,-0.00000061,-0.00000065,0.000001
 44,-0.00000326,0.00000275,-0.00000395,0.00000132,-0.00000872,0.0000949
 7,-0.00010122,0.00001143,-0.00002078,0.00001991,0.00002148,0.00002710,
 0.00000170,-0.07441980,-0.27352184,0.43020136,-0.00214280,0.00098111,-
 0.00027392,0.00016154,-0.00016891,-0.00006483,0.00209747,0.00080631,0.
 00086939,-0.00091791,-0.00031868,0.00095357,-0.00019229,0.00037642,0.0
 0052096,0.00030894,-0.00018058,0.00008040,-0.00416996,-0.00136060,0.00
 253849,-0.00104331,0.00243920,-0.00207117,-0.02874684,-0.03188037,-0.0
 2064458,0.00074087,-0.00090552,-0.00185247,-0.00004078,0.00033970,-0.0
 0039072,0.00373305,-0.00283065,-0.00489845,-0.00011749,0.00094669,-0.0
 0040310,0.00176871,0.00092035,0.00113477,-0.00016611,-0.00019192,-0.00
 003133,-0.00064804,0.00044738,-0.00043127,0.00007393,-0.00014657,0.000
 03715,-0.00159201,0.00035125,0.00238200,0.00111168,0.00007755,0.000189
 04,0.00003183,0.00007161,0.00002721,-0.00017008,-0.00012557,0.00014282
 ,0.00003790,0.00012324,-0.00012432,0.00008041,-0.00004142,0.00009196,0
 .00000136,-0.00001407,-0.00002452,-0.00008468,0.00009042,0.00003332,0.
 00005420,0.00000802,-0.00004073,-0.00002596,-0.00027142,-0.00001704,-0
 .00004308,0.00019955,0.00005258,-0.00003148,0.00000048,-0.00001058,0.0
 0000656,-0.00002886,0.00003331,0.00000761,0.00002236,0.00002201,-0.000
 02573,-0.00001402,0.00001575,0.00000948,-0.00000637,-0.00001287,0.0000
 0302,0.00006785,-0.00001789,0.00000737,-0.00000616,-0.00003088,0.00008
 731,-0.00000923,0.00003851,-0.00000340,-0.00000045,-0.00001193,-0.0001
 0007,0.00000223,-0.00003866,0.00001953,-0.00001364,0.00000060,-0.00006
 453,-0.00002986,0.00002757,0.00005760,0.00000413,-0.00003925,-0.000002
 15,-0.00000021,0.00001019,-0.00000211,-0.00000522,0.00000331,-0.000008
 15,0.00000644,-0.00000181,-0.00005950,-0.00004023,-0.00011345,-0.00001
 307,-0.00000585,0.00000529,-0.00000215,-0.00000440,-0.00001170,-0.0093
 8806,-0.05553214,0.04063153,0.37269712,0.00020458,-0.00050091,-0.00093
 902,0.00009996,-0.00004849,-0.00002180,0.00082881,-0.00005344,-0.00036
 537,-0.00008383,-0.00094706,0.00049825,-0.00044302,-0.00008267,0.00008
 089,0.00018422,-0.00003691,0.00001002,0.00050582,0.00003181,0.00249316
 ,-0.00048053,0.00052270,-0.00022293,-0.02831836,0.00485368,-0.00569910
 ,-0.00016615,-0.00004711,-0.00007346,-0.00002160,-0.00017969,-0.000075
 90,0.00328767,-0.00260547,-0.00496183,-0.00055407,-0.00109523,0.000265
 62,-0.00094915,0.00049337,0.00009758,-0.00000929,0.00000891,-0.0000386
 5,-0.00031985,0.00027690,-0.00059780,-0.00007285,-0.00001825,0.0000316
 8,-0.00043468,0.00155817,0.00062840,0.00086369,-0.00044760,0.00009841,
 0.00018558,0.00031387,0.00006277,-0.00002472,-0.00005407,0.00005306,0.
 00003925,0.00020377,-0.00012635,0.00006919,-0.00003581,0.00006509,-0.0
 0000566,-0.00000004,-0.00000975,-0.00007572,0.00006875,0.00000901,0.00
 004307,0.00000950,-0.00002562,0.00005299,-0.00032354,0.00002797,-0.000
 08103,0.00023721,-0.00000847,-0.00001955,-0.00000085,-0.00001746,0.000
 00512,-0.00002547,0.00002101,0.00000275,0.00001214,0.00002273,-0.00001
 458,-0.00000663,0.00000326,0.00000601,0.00000393,-0.00000299,-0.000004
 23,0.00002505,-0.00000894,0.00000472,-0.00000457,-0.00002058,0.0000468
 8,-0.00001012,0.00002543,-0.00000605,0.00000168,-0.00000744,-0.0000574
 8,0.00000550,-0.00002487,0.00000920,-0.00000988,0.00000156,-0.00003044
 ,0.00000341,0.00000998,0.00003224,0.00000032,-0.00001877,-0.00000049,-
 0.00000211,0.00000523,0.00000077,-0.00000210,0.00000233,-0.00000626,0.
 00000480,-0.00000280,0.00007189,0.00006684,-0.00011127,-0.00000088,0.0
 0000305,-0.00000086,-0.00000559,-0.00000478,0.00001012,-0.05994103,-0.
 05807240,0.04564829,0.30843807,0.32451952,-0.00107580,-0.00073665,-0.0
 0048334,0.00009616,-0.00013392,-0.00004378,0.00139988,-0.00092193,-0.0
 0137753,0.00026812,-0.00010817,-0.00004513,-0.00164233,0.00066890,0.00
 020541,0.00072626,-0.00055783,0.00045819,-0.00122438,-0.00223408,-0.00
 121668,0.00109862,0.00013054,0.00088798,-0.03080282,-0.01645067,0.0076
 2439,-0.00119930,0.00046711,-0.00018246,0.00000848,0.00000640,-0.00012
 977,0.00098413,-0.00428281,-0.00660023,-0.00041699,0.00113088,-0.00103
 442,0.00043418,0.00103396,-0.00000703,-0.00009530,0.00000672,-0.000016
 97,-0.00098884,0.00057012,-0.00048890,0.00004898,0.00000482,0.00008632
 ,-0.00066922,0.00003018,0.00252044,0.00068765,0.00054839,-0.00012950,-
 0.00009613,-0.00020112,-0.00005533,-0.00016087,-0.00001990,0.00011849,
 -0.00002343,-0.00007375,-0.00001860,-0.00005385,0.00001186,-0.00004129
 ,-0.00003205,0.00000479,-0.00000858,0.00010022,0.00004088,0.00008486,0
 .00002025,0.00001284,-0.00000383,-0.00021774,-0.00030651,-0.00005613,0
 .00008594,0.00010294,0.00000908,0.00004666,0.00001013,0.00000790,-0.00
 001659,0.00001403,-0.00000440,-0.00001428,-0.00001446,0.00001789,0.000
 01518,0.00001759,0.00000943,0.00000070,-0.00000235,-0.00000722,0.00001
 452,-0.00001196,0.00001260,0.00000261,-0.00000234,-0.00000843,-0.00001
 959,-0.00000569,-0.00001460,0.00000436,-0.00000178,-0.00000288,0.00002
 494,0.00000788,0.00002202,0.00000265,-0.00000018,-0.00000816,-0.000004
 21,0.00000703,0.00000622,0.00000782,-0.00000049,-0.00000842,0.00000040
 ,0.00000076,0.00000311,-0.00000021,-0.00000056,-0.00000087,-0.00000155
 ,0.00000018,-0.00000014,0.00014404,0.00012833,-0.00018029,0.00002334,-
 0.00001172,-0.00000069,0.00001156,0.00002110,0.00001597,0.05776378,0.0
 5904683,0.01002372,0.00664490,-0.03502020,0.10871550,0.00231015,-0.001
 71719,0.00136431,-0.00034061,0.00033514,0.00003364,-0.00280155,0.00077
 670,0.00013977,0.00033396,0.00217170,0.00060704,0.00060267,-0.00053964
 ,-0.00050394,-0.00055567,0.00030892,-0.00024566,0.01769991,-0.00367639
 ,0.00090267,0.00036639,-0.00011649,0.00734010,-0.10724103,0.02445541,-
 0.00671679,-0.00174450,0.00113297,0.00260350,0.00076943,-0.00039276,0.
 00136804,-0.02599363,0.00019061,-0.03102783,-0.00363926,-0.00658374,-0
 .00115742,-0.00431390,0.00374035,0.00118820,0.00017745,0.00001722,0.00
 002665,0.00084393,-0.00051982,-0.00107472,-0.00048543,0.00029268,0.000
 03776,0.00475619,-0.00259228,-0.00325016,-0.00303109,-0.00063439,0.001
 11718,-0.00006097,-0.00000745,-0.00009297,0.00021938,0.00014411,-0.000
 27504,0.00043093,-0.00001248,0.00000638,-0.00007753,0.00004424,-0.0000
 9330,0.00000893,0.00001207,0.00002911,0.00007504,-0.00011756,-0.000078
 71,-0.00007130,-0.00001259,0.00004977,0.00008065,0.00041356,0.00003087
 ,0.00003501,-0.00027757,-0.00006954,0.00002294,-0.00000352,0.00001487,
 -0.00000603,0.00003117,-0.00003010,0.00000239,-0.00001271,-0.00003723,
 0.00002254,0.00000755,-0.00002510,-0.00001185,0.00000632,0.00001693,-0
 .00000584,-0.00007353,0.00001003,-0.00000903,0.00000862,0.00003945,-0.
 00009254,0.00001354,-0.00003412,0.00000356,-0.00000017,0.00001433,0.00
 010486,-0.00000646,0.00003709,-0.00002194,0.00001549,0.00000303,0.0000
 7471,0.00002595,-0.00003072,-0.00007078,-0.00000339,0.00004781,0.00000
 217,0.00000023,-0.00001350,0.00000285,0.00000758,-0.00000341,0.0000109
 5,-0.00000826,0.00000279,0.00003125,0.00002081,0.00019111,-0.00000282,
 0.00000636,-0.00000581,-0.00000338,-0.00000058,-0.00000965,-0.11626533
 ,-0.05777280,0.03794981,-0.33329572,-0.22285538,-0.03191082,0.57115344
 ,-0.00047000,-0.00338368,0.00126083,-0.00010449,0.00002409,0.00015251,
 -0.00054602,-0.00061540,-0.00357794,0.00291248,-0.00199008,-0.00219691
 ,-0.00012016,0.00012150,0.00059289,-0.00001814,-0.00027425,0.00020432,
 -0.01117410,-0.00117798,-0.00186846,0.00265480,0.00371041,-0.00133239,
 0.01787105,-0.07460916,-0.01966131,0.00011046,-0.00115382,-0.00028109,
 0.00016772,0.00131480,-0.00020502,0.00926592,0.00214612,0.01741866,-0.
 00421048,-0.00290102,-0.00319221,0.00586699,0.00343310,-0.00322954,-0.
 00023893,-0.00033602,0.00011232,0.00073353,-0.00017886,0.00168675,0.00
 024599,-0.00025597,-0.00002395,0.00004662,-0.00591249,0.00267407,-0.00
 160369,0.00094576,0.00068711,-0.00054226,-0.00055012,-0.00006004,-0.00
 018905,-0.00005682,0.00001691,0.00000232,-0.00029893,0.00019835,-0.000
 11995,0.00005449,-0.00011627,0.00000309,0.00000447,0.00001920,0.000129
 84,-0.00010544,-0.00001332,-0.00006928,-0.00001580,0.00004202,-0.00005
 458,0.00052026,-0.00005579,0.00013196,-0.00038930,0.00003662,0.0000402
 4,0.00000044,0.00002130,-0.00001403,0.00004546,-0.00002907,-0.00000517
 ,-0.00001107,-0.00003092,0.00002268,0.00001085,-0.00000522,-0.00000910
 ,-0.00000665,0.00000318,0.00000846,-0.00004914,0.00001045,-0.00000748,
 0.00000558,0.00003424,-0.00008332,0.00001629,-0.00003936,0.00001141,-0
 .00000306,0.00001090,0.00009873,-0.00000729,0.00004619,-0.00001320,0.0
 0001495,-0.00000460,0.00005008,-0.00000348,-0.00001380,-0.00005247,-0.
 00000065,0.00002998,0.00000122,0.00000361,-0.00000816,-0.00000047,0.00
 000417,-0.00000382,0.00001029,-0.00000790,0.00000393,-0.00032119,0.000
 08806,0.00012581,-0.00002146,-0.00000775,0.00007556,0.00004505,0.00000
 629,-0.00000601,-0.06161233,-0.22266512,0.20003026,-0.22258744,-0.2686
 0970,-0.00292615,0.26375785,0.57310628,0.00209826,-0.00022893,0.001008
 22,-0.00062552,0.00067070,0.00014245,-0.00212659,-0.00075496,0.0010524
 0,0.00008590,-0.00003603,-0.00008806,0.00339384,-0.00187860,-0.0010028
 0,-0.00163631,0.00138911,-0.00101743,-0.01598229,0.00406949,-0.0265276
 5,0.00397086,-0.00460922,-0.00113968,-0.00566280,-0.00228434,-0.107214
 14,0.00077852,-0.00002400,0.00205964,-0.00069535,0.00040167,-0.0000006
 9,-0.01710905,0.00592259,0.01722936,-0.00240243,-0.00814468,0.00129330
 ,-0.00007337,-0.00074856,-0.00195011,0.00011698,0.00000207,0.00005832,
 0.00312987,-0.00158331,0.00144060,-0.00004924,-0.00005684,-0.00024692,
 0.00211424,0.00059206,-0.01113784,-0.00080653,-0.00217068,0.00067982,0
 .00051948,0.00087802,0.00018334,0.00054547,0.00007236,-0.00031818,0.00
 007557,0.00037082,-0.00004315,0.00022797,-0.00007156,0.00019725,0.0000
 7383,-0.00001591,0.00000258,-0.00033786,0.00000481,-0.00020683,-0.0000
 1073,-0.00002005,-0.00001790,0.00064420,0.00036698,0.00014681,-0.00035
 652,-0.00001421,0.00001267,-0.00013657,-0.00003346,-0.00005346,0.00004
 793,-0.00006007,0.00004895,0.00003748,0.00006030,-0.00001435,-0.000058
 24,-0.00006168,-0.00002710,0.00000375,0.00000605,0.00001417,-0.0000374
 4,0.00006971,-0.00005633,0.00000250,0.00000364,-0.00000092,0.00011555,
 0.00001214,0.00007226,-0.00001556,0.00000367,-0.00000069,-0.00014222,-
 0.00001746,-0.00008783,0.00000734,-0.00001097,0.00002389,-0.00003291,-
 0.00002911,0.00000174,0.00002023,0.00000200,-0.00000555,-0.00000155,-0
 .00000275,-0.00000109,0.00000049,-0.00000092,0.00000455,-0.00000208,0.
 00000437,-0.00000159,-0.00017125,-0.00018011,0.00035507,-0.00004848,0.
 00003564,-0.00001214,-0.00005172,-0.00004721,-0.00002770,0.03397709,0.
 19653002,-0.39032337,-0.02492915,-0.00176962,-0.11865391,0.02151434,-0
 .18661302,0.63415003\\-0.00000048,0.00000112,-0.00000061,0.00000062,0.
 00000233,-0.00000084,-0.00000008,-0.00000157,-0.00000259,0.00000073,-0
 .00000336,-0.00000248,0.00000019,0.00000012,-0.00000339,0.00000176,0.0
 0000082,-0.00000290,0.00000038,-0.00000052,-0.00000032,-0.00000025,0.0
 0000131,0.00000064,-0.00000035,-0.00000239,0.00000168,-0.00000091,0.00
 000083,0.00000206,-0.00000027,0.00000285,0.00000011,-0.00000028,-0.000
 00287,0.00000226,0.00000051,-0.00000336,-0.00000181,-0.00000073,-0.000
 00104,0.00000222,0.00000056,0.00000155,0.00000241,-0.00000148,-0.00000
 222,0.00000355,-0.00000091,-0.00000119,0.00000388,-0.00000043,-0.00000
 526,0.00000280,-0.00000016,-0.00000717,0.00000171,0.00000022,-0.000007
 18,-0.00000012,-0.00000020,-0.00000856,0.00000254,-0.00000011,-0.00000
 630,0.00000209,-0.00000030,0.00000219,-0.00000173,0.00000044,-0.000000
 32,-0.00000417,0.00000020,0.00000328,-0.00000052,-0.00000052,0.0000039
 9,0.00000122,0.00000058,0.00000392,-0.00000109,-0.00000044,0.00000454,
 0.00000112,0.00000023,0.00000157,-0.00000130,0.00000059,0.00000089,-0.
 00000320,-0.00000048,0.00000210,0.00000023,0.00000044,0.00000016,-0.00
 000287,0.00000111,0.00000027,-0.00000455,-0.00000025,0.00000157,0.0000
 0125,-0.00000052,0.00000260,0.00000249,0.00000015,0.00000069,-0.000000
 78,0.00000099,-0.00000056,-0.00000397,0.00000007,0.00000013,-0.0000003
 5,0.00000037,-0.00000060,-0.00000162,-0.00000074,0.00000267,0.00000298
 ,-0.00000074,0.00000388,0.00000322,-0.00000110,0.00000553,0.00000244,-
 0.00000120,0.00000401,0.00000486,-0.00000054,0.00000328,0.00000204,0.0
 0000042,0.00000338,-0.00000265,0.00000163,0.00000324,-0.00000466,0.000
 00092,0.00000471,-0.00000349,0.00000080,-0.00000739,-0.00000037,-0.000
 00076,-0.00000374,0.00000176,0.00000032,-0.00000393,0.00000083\\\@
 The archive entry for this job was punched.


 HEAVEN'S NET CASTS WIDE.
 THOUGH ITS MESHES ARE COARSE, NOTHING SLIPS THROUGH.

                                          -- LAO-TSU
 Job cpu time:       4 days  7 hours  6 minutes 30.4 seconds.
 Elapsed time:       0 days  2 hours 16 minutes  2.2 seconds.
 File lengths (MBytes):  RWF=   4602 Int=      0 D2E=      0 Chk=     76 Scr=      1
 Normal termination of Gaussian 16 at Thu Nov 28 10:37:55 2024.
