 Entering Gaussian System, Link 0=g16
 Initial command:
 /sw/cluster/pub/apps//g16/l1.exe "/data/natrosa/25585/Gau-220002.inp" -scrdir="/data/natrosa/25585/"
 Entering Link 1 = /sw/cluster/pub/apps//g16/l1.exe PID=    220003.
  
 Copyright (c) 1988,1990,1992,1993,1995,1998,2003,2009,2016,
            Gaussian, Inc.  All Rights Reserved.
  
 This is part of the Gaussian(R) 16 program.  It is based on
 the Gaussian(R) 09 system (copyright 2009, Gaussian, Inc.),
 the Gaussian(R) 03 system (copyright 2003, Gaussian, Inc.),
 the Gaussian(R) 98 system (copyright 1998, Gaussian, Inc.),
 the Gaussian(R) 94 system (copyright 1995, Gaussian, Inc.),
 the Gaussian 92(TM) system (copyright 1992, Gaussian, Inc.),
 the Gaussian 90(TM) system (copyright 1990, Gaussian, Inc.),
 the Gaussian 88(TM) system (copyright 1988, Gaussian, Inc.),
 the Gaussian 86(TM) system (copyright 1986, Carnegie Mellon
 University), and the Gaussian 82(TM) system (copyright 1983,
 Carnegie Mellon University). Gaussian is a federally registered
 trademark of Gaussian, Inc.
  
 This software contains proprietary and confidential information,
 including trade secrets, belonging to Gaussian, Inc.
  
 This software is provided under written license and may be
 used, copied, transmitted, or stored only in accord with that
 written license.
  
 The following legend is applicable only to US Government
 contracts under FAR:
  
                    RESTRICTED RIGHTS LEGEND
  
 Use, reproduction and disclosure by the US Government is
 subject to restrictions as set forth in subparagraphs (a)
 and (c) of the Commercial Computer Software - Restricted
 Rights clause in FAR 52.227-19.
  
 Gaussian, Inc.
 340 Quinnipiac St., Bldg. 40, Wallingford CT 06492
  
  
 ---------------------------------------------------------------
 Warning -- This program may not be used in any manner that
 competes with the business of Gaussian, Inc. or will provide
 assistance to any competitor of Gaussian, Inc.  The licensee
 of this program is prohibited from giving any competitor of
 Gaussian, Inc. access to this program.  By using this program,
 the user acknowledges that Gaussian, Inc. is engaged in the
 business of creating and licensing software in the field of
 computational chemistry and represents and warrants to the
 licensee that it is not a competitor of Gaussian, Inc. and that
 it will not use this program in any manner prohibited above.
 ---------------------------------------------------------------
  

 Cite this work as:
 Gaussian 16, Revision A.03,
 M. J. Frisch, G. W. Trucks, H. B. Schlegel, G. E. Scuseria, 
 M. A. Robb, J. R. Cheeseman, G. Scalmani, V. Barone, 
 G. A. Petersson, H. Nakatsuji, X. Li, M. Caricato, A. V. Marenich, 
 J. Bloino, B. G. Janesko, R. Gomperts, B. Mennucci, H. P. Hratchian, 
 J. V. Ortiz, A. F. Izmaylov, J. L. Sonnenberg, D. Williams-Young, 
 F. Ding, F. Lipparini, F. Egidi, J. Goings, B. Peng, A. Petrone, 
 T. Henderson, D. Ranasinghe, V. G. Zakrzewski, J. Gao, N. Rega, 
 G. Zheng, W. Liang, M. Hada, M. Ehara, K. Toyota, R. Fukuda, 
 J. Hasegawa, M. Ishida, T. Nakajima, Y. Honda, O. Kitao, H. Nakai, 
 T. Vreven, K. Throssell, J. A. Montgomery, Jr., J. E. Peralta, 
 F. Ogliaro, M. J. Bearpark, J. J. Heyd, E. N. Brothers, K. N. Kudin, 
 V. N. Staroverov, T. A. Keith, R. Kobayashi, J. Normand, 
 K. Raghavachari, A. P. Rendell, J. C. Burant, S. S. Iyengar, 
 J. Tomasi, M. Cossi, J. M. Millam, M. Klene, C. Adamo, R. Cammi, 
 J. W. Ochterski, R. L. Martin, K. Morokuma, O. Farkas, 
 J. B. Foresman, and D. J. Fox, Gaussian, Inc., Wallingford CT, 2016.
 
 ******************************************
 Gaussian 16:  ES64L-G16RevA.03 25-Dec-2016
                14-Nov-2024 
 ******************************************
 %oldchk=/home/natrosa/MOSSRI/REACAO-1/B3LYP-6-311+G-D/CURCUMIN-OPT-FREQ-Reag-1-B
 3LYP-6-311G-D-298.chk
 %chk=CURCUMIN-OPT-FREQ-Reag-1-B3LYP-6-311+G-D-298.chk
 Copying data from "/home/natrosa/MOSSRI/REACAO-1/B3LYP-6-311+G-D/CURCUMIN-OPT-FREQ-Reag-1-B3LYP-6-311G-D-298.chk" to current chk file "CURCUMIN-OPT-FREQ-Reag-1-B3LYP-6-311+G-D-298.chk"
 IOpt=  2 FromEx=T IUOpen= 4 IOptOp= 5 NList=   0 IFRang= 0 IUIn= 4 IUOut= 2.
 ----------------------------------------------------------------------
 # opt=(calcfc) freq=noraman b3lyp/6-311+g(d) scrf=(smd,solvent=generic
 ,read) temperature=298.15 Geom=Check Guess=Read
 ----------------------------------------------------------------------
 1/10=4,18=20,19=15,26=3,29=2,38=1,40=2,112=298150/1,3;
 2/9=110,12=2,40=1/2;
 3/5=4,6=6,7=11,11=2,14=-4,25=1,30=1,70=32203,71=2,72=-2,74=-5,116=-2,140=1/1,2,3;
 4/5=1/1;
 5/5=2,38=6/2;
 8/6=4,10=90,11=11/1;
 11/6=1,8=1,9=11,15=111,16=1/1,2,10;
 10/6=1,13=1/2;
 6/7=2,8=2,9=2,10=2,28=1/1;
 7/10=1,18=20,25=1/1,2,3,16;
 1/10=4,18=20,19=15,26=3/3(2);
 2/9=110/2;
 99//99;
 2/9=110/2;
 3/5=4,6=6,7=11,11=2,14=-2,25=1,30=1,70=32205,71=1,72=-2,74=-5/1,2,3;
 4/5=5,16=3,69=1/1;
 5/5=2,38=5/2;
 7//1,2,3,16;
 1/18=20,19=15,26=3/3(-5);
 2/9=110/2;
 6/7=2,8=2,9=2,10=2,19=2,28=1/1;
 99/9=1/99;
 ----------
 Reagente 1
 ----------
 Structure from the checkpoint file:  "CURCUMIN-OPT-FREQ-Reag-1-B3LYP-6-311+G-D-298.chk"
 Charge =  0 Multiplicity = 2
 Redundant internal coordinates found in file.  (old form).
 C,0,2.192579339,0.8940216676,0.9100899168
 H,0,1.7598671153,1.8898971955,0.8779218164
 C,0,1.4531399997,-0.1164914081,1.4450445068
 H,0,1.8225479221,-1.1361467784,1.465104399
 C,0,0.1128132534,0.029666184,2.0117792507
 O,0,-0.4943829983,-0.9542570186,2.4205577335
 C,0,3.5115024077,0.8110099712,0.362548783
 C,0,4.1503714471,1.9562678166,-0.0929556819
 C,0,4.2559348833,-0.4881571166,0.2722133639
 C,0,5.4855482902,1.9557429257,-0.4928615607
 H,0,3.6061551071,2.8950055978,-0.0900060199
 C,0,5.7113994571,-0.4029379614,-0.0361062508
 H,0,4.0830629515,-1.1418263946,1.1271063212
 C,0,6.2839207375,0.7917691583,-0.4220116722
 H,0,5.9477160176,2.8818259128,-0.8212732091
 O,0,7.619102476,0.843612724,-0.7005355037
 H,0,7.8642275713,1.7477478269,-0.9400316984
 O,0,6.2950271744,-1.6099264916,0.0903869757
 C,0,7.494473356,-1.953810132,-0.6334930476
 H,0,8.3630451064,-1.4448250129,-0.2208348607
 H,0,7.5964146465,-3.030221436,-0.5082367525
 H,0,7.3830180841,-1.7133704152,-1.6913872053
 C,0,-3.180230624,0.5056605346,0.9667279762
 H,0,-2.7906369944,0.0581902778,1.8768006618
 C,0,-2.435197648,1.4408355725,0.3391259149
 H,0,-2.767224658,1.8981740125,-0.5886007411
 C,0,-1.1263912793,1.9236417173,0.7881232869
 O,0,-0.5039451153,2.7349560173,0.1132897665
 C,0,-4.4731882577,-0.0168669712,0.5456477876
 C,0,-5.0828181062,-1.0171190705,1.3191867984
 C,0,-5.1548823262,0.4346334474,-0.6018783467
 C,0,-6.3117811057,-1.5543810423,0.9576987407
 H,0,-4.5823793737,-1.3843384598,2.2091942975
 C,0,-6.3795708134,-0.0914162563,-0.9750173738
 H,0,-4.7323823578,1.2053266379,-1.2366716427
 C,0,-6.9682302528,-1.1077697784,-0.1893180197
 H,0,-6.7647495539,-2.3366308351,1.5609236849
 O,0,-8.1561759092,-1.616424477,-0.6042704204
 H,0,-8.4490810035,-2.3039054928,0.010473734
 O,0,-6.9660221311,0.3381934544,-2.1360758528
 C,0,-8.1757588319,1.0960862427,-1.979924581
 H,0,-7.9974670859,1.9854141518,-1.3665652566
 H,0,-8.4703681167,1.4035390941,-2.9829415969
 H,0,-8.9710769331,0.4946315108,-1.5360895358
 C,0,-0.5342683485,1.41898139,2.1111471601
 H,0,-1.3074516974,1.3501922824,2.8760916712
 H,0,0.1971676303,2.1611408497,2.4313057459
 O,0,2.8235785429,-2.2352667505,-0.5932639109
 O,0,3.9062444436,-1.0615460339,-2.0567486811
 N,0,3.600373562,-1.3555388407,-0.9165818714
 Recover connectivity data from disk.

 GradGradGradGradGradGradGradGradGradGradGradGradGradGradGradGradGradGrad
 Berny optimization.
 Initialization pass.
                           ----------------------------
                           !    Initial Parameters    !
                           ! (Angstroms and Degrees)  !
 --------------------------                            --------------------------
 ! Name  Definition              Value          Derivative Info.                !
 --------------------------------------------------------------------------------
 ! R1    R(1,2)                  1.0863         calculate D2E/DX2 analytically  !
 ! R2    R(1,3)                  1.3616         calculate D2E/DX2 analytically  !
 ! R3    R(1,7)                  1.4305         calculate D2E/DX2 analytically  !
 ! R4    R(3,4)                  1.0847         calculate D2E/DX2 analytically  !
 ! R5    R(3,5)                  1.4625         calculate D2E/DX2 analytically  !
 ! R6    R(5,6)                  1.2263         calculate D2E/DX2 analytically  !
 ! R7    R(5,45)                 1.5358         calculate D2E/DX2 analytically  !
 ! R8    R(7,8)                  1.3883         calculate D2E/DX2 analytically  !
 ! R9    R(7,9)                  1.5001         calculate D2E/DX2 analytically  !
 ! R10   R(8,10)                 1.3938         calculate D2E/DX2 analytically  !
 ! R11   R(8,11)                 1.0851         calculate D2E/DX2 analytically  !
 ! R12   R(9,12)                 1.4902         calculate D2E/DX2 analytically  !
 ! R13   R(9,13)                 1.09           calculate D2E/DX2 analytically  !
 ! R14   R(9,50)                 1.611          calculate D2E/DX2 analytically  !
 ! R15   R(10,14)                1.4132         calculate D2E/DX2 analytically  !
 ! R16   R(10,15)                1.0859         calculate D2E/DX2 analytically  !
 ! R17   R(12,14)                1.3799         calculate D2E/DX2 analytically  !
 ! R18   R(12,18)                1.3466         calculate D2E/DX2 analytically  !
 ! R19   R(14,16)                1.3649         calculate D2E/DX2 analytically  !
 ! R20   R(16,17)                0.9669         calculate D2E/DX2 analytically  !
 ! R21   R(18,19)                1.4425         calculate D2E/DX2 analytically  !
 ! R22   R(19,20)                1.088          calculate D2E/DX2 analytically  !
 ! R23   R(19,21)                1.0885         calculate D2E/DX2 analytically  !
 ! R24   R(19,22)                1.0906         calculate D2E/DX2 analytically  !
 ! R25   R(23,24)                1.0864         calculate D2E/DX2 analytically  !
 ! R26   R(23,25)                1.3504         calculate D2E/DX2 analytically  !
 ! R27   R(23,29)                1.4567         calculate D2E/DX2 analytically  !
 ! R28   R(25,26)                1.0863         calculate D2E/DX2 analytically  !
 ! R29   R(25,27)                1.4655         calculate D2E/DX2 analytically  !
 ! R30   R(27,28)                1.2252         calculate D2E/DX2 analytically  !
 ! R31   R(27,45)                1.5348         calculate D2E/DX2 analytically  !
 ! R32   R(29,30)                1.4038         calculate D2E/DX2 analytically  !
 ! R33   R(29,31)                1.409          calculate D2E/DX2 analytically  !
 ! R34   R(30,32)                1.3891         calculate D2E/DX2 analytically  !
 ! R35   R(30,33)                1.0851         calculate D2E/DX2 analytically  !
 ! R36   R(31,34)                1.3841         calculate D2E/DX2 analytically  !
 ! R37   R(31,35)                1.0842         calculate D2E/DX2 analytically  !
 ! R38   R(32,36)                1.395          calculate D2E/DX2 analytically  !
 ! R39   R(32,37)                1.0867         calculate D2E/DX2 analytically  !
 ! R40   R(34,36)                1.4131         calculate D2E/DX2 analytically  !
 ! R41   R(34,40)                1.3699         calculate D2E/DX2 analytically  !
 ! R42   R(36,38)                1.3573         calculate D2E/DX2 analytically  !
 ! R43   R(38,39)                0.9676         calculate D2E/DX2 analytically  !
 ! R44   R(40,41)                1.4361         calculate D2E/DX2 analytically  !
 ! R45   R(41,42)                1.0949         calculate D2E/DX2 analytically  !
 ! R46   R(41,43)                1.0897         calculate D2E/DX2 analytically  !
 ! R47   R(41,44)                1.0915         calculate D2E/DX2 analytically  !
 ! R48   R(45,46)                1.0898         calculate D2E/DX2 analytically  !
 ! R49   R(45,47)                1.0901         calculate D2E/DX2 analytically  !
 ! R50   R(48,50)                1.2173         calculate D2E/DX2 analytically  !
 ! R51   R(49,50)                1.2165         calculate D2E/DX2 analytically  !
 ! A1    A(2,1,3)              118.403          calculate D2E/DX2 analytically  !
 ! A2    A(2,1,7)              114.1508         calculate D2E/DX2 analytically  !
 ! A3    A(3,1,7)              127.446          calculate D2E/DX2 analytically  !
 ! A4    A(1,3,4)              121.3289         calculate D2E/DX2 analytically  !
 ! A5    A(1,3,5)              125.1517         calculate D2E/DX2 analytically  !
 ! A6    A(4,3,5)              113.5083         calculate D2E/DX2 analytically  !
 ! A7    A(3,5,6)              120.1817         calculate D2E/DX2 analytically  !
 ! A8    A(3,5,45)             120.1051         calculate D2E/DX2 analytically  !
 ! A9    A(6,5,45)             119.71           calculate D2E/DX2 analytically  !
 ! A10   A(1,7,8)              120.1342         calculate D2E/DX2 analytically  !
 ! A11   A(1,7,9)              122.0649         calculate D2E/DX2 analytically  !
 ! A12   A(8,7,9)              117.797          calculate D2E/DX2 analytically  !
 ! A13   A(7,8,10)             122.3221         calculate D2E/DX2 analytically  !
 ! A14   A(7,8,11)             118.816          calculate D2E/DX2 analytically  !
 ! A15   A(10,8,11)            118.7874         calculate D2E/DX2 analytically  !
 ! A16   A(7,9,12)             116.5919         calculate D2E/DX2 analytically  !
 ! A17   A(7,9,13)             113.1699         calculate D2E/DX2 analytically  !
 ! A18   A(7,9,50)             107.9868         calculate D2E/DX2 analytically  !
 ! A19   A(12,9,13)            110.5779         calculate D2E/DX2 analytically  !
 ! A20   A(12,9,50)            105.9952         calculate D2E/DX2 analytically  !
 ! A21   A(13,9,50)            101.0311         calculate D2E/DX2 analytically  !
 ! A22   A(8,10,14)            121.8094         calculate D2E/DX2 analytically  !
 ! A23   A(8,10,15)            119.6161         calculate D2E/DX2 analytically  !
 ! A24   A(14,10,15)           118.4994         calculate D2E/DX2 analytically  !
 ! A25   A(9,12,14)            120.8382         calculate D2E/DX2 analytically  !
 ! A26   A(9,12,18)            110.6466         calculate D2E/DX2 analytically  !
 ! A27   A(14,12,18)           128.4971         calculate D2E/DX2 analytically  !
 ! A28   A(10,14,12)           119.5201         calculate D2E/DX2 analytically  !
 ! A29   A(10,14,16)           120.7375         calculate D2E/DX2 analytically  !
 ! A30   A(12,14,16)           119.7245         calculate D2E/DX2 analytically  !
 ! A31   A(14,16,17)           109.5151         calculate D2E/DX2 analytically  !
 ! A32   A(12,18,19)           121.7955         calculate D2E/DX2 analytically  !
 ! A33   A(18,19,20)           111.2191         calculate D2E/DX2 analytically  !
 ! A34   A(18,19,21)           104.8255         calculate D2E/DX2 analytically  !
 ! A35   A(18,19,22)           110.4405         calculate D2E/DX2 analytically  !
 ! A36   A(20,19,21)           110.1343         calculate D2E/DX2 analytically  !
 ! A37   A(20,19,22)           110.2646         calculate D2E/DX2 analytically  !
 ! A38   A(21,19,22)           109.8298         calculate D2E/DX2 analytically  !
 ! A39   A(24,23,25)           118.4715         calculate D2E/DX2 analytically  !
 ! A40   A(24,23,29)           114.3743         calculate D2E/DX2 analytically  !
 ! A41   A(25,23,29)           127.1396         calculate D2E/DX2 analytically  !
 ! A42   A(23,25,26)           121.3213         calculate D2E/DX2 analytically  !
 ! A43   A(23,25,27)           125.3447         calculate D2E/DX2 analytically  !
 ! A44   A(26,25,27)           113.3234         calculate D2E/DX2 analytically  !
 ! A45   A(25,27,28)           120.2074         calculate D2E/DX2 analytically  !
 ! A46   A(25,27,45)           120.0211         calculate D2E/DX2 analytically  !
 ! A47   A(28,27,45)           119.7707         calculate D2E/DX2 analytically  !
 ! A48   A(23,29,30)           118.8009         calculate D2E/DX2 analytically  !
 ! A49   A(23,29,31)           123.3588         calculate D2E/DX2 analytically  !
 ! A50   A(30,29,31)           117.8396         calculate D2E/DX2 analytically  !
 ! A51   A(29,30,32)           121.0915         calculate D2E/DX2 analytically  !
 ! A52   A(29,30,33)           119.5274         calculate D2E/DX2 analytically  !
 ! A53   A(32,30,33)           119.3785         calculate D2E/DX2 analytically  !
 ! A54   A(29,31,34)           121.7247         calculate D2E/DX2 analytically  !
 ! A55   A(29,31,35)           121.0701         calculate D2E/DX2 analytically  !
 ! A56   A(34,31,35)           117.202          calculate D2E/DX2 analytically  !
 ! A57   A(30,32,36)           120.4283         calculate D2E/DX2 analytically  !
 ! A58   A(30,32,37)           120.1796         calculate D2E/DX2 analytically  !
 ! A59   A(36,32,37)           119.3877         calculate D2E/DX2 analytically  !
 ! A60   A(31,34,36)           119.4754         calculate D2E/DX2 analytically  !
 ! A61   A(31,34,40)           119.2152         calculate D2E/DX2 analytically  !
 ! A62   A(36,34,40)           121.2307         calculate D2E/DX2 analytically  !
 ! A63   A(32,36,34)           119.4334         calculate D2E/DX2 analytically  !
 ! A64   A(32,36,38)           122.9066         calculate D2E/DX2 analytically  !
 ! A65   A(34,36,38)           117.6566         calculate D2E/DX2 analytically  !
 ! A66   A(36,38,39)           109.6925         calculate D2E/DX2 analytically  !
 ! A67   A(34,40,41)           115.7211         calculate D2E/DX2 analytically  !
 ! A68   A(40,41,42)           110.6339         calculate D2E/DX2 analytically  !
 ! A69   A(40,41,43)           106.0561         calculate D2E/DX2 analytically  !
 ! A70   A(40,41,44)           111.545          calculate D2E/DX2 analytically  !
 ! A71   A(42,41,43)           109.2983         calculate D2E/DX2 analytically  !
 ! A72   A(42,41,44)           109.7817         calculate D2E/DX2 analytically  !
 ! A73   A(43,41,44)           109.4378         calculate D2E/DX2 analytically  !
 ! A74   A(5,45,27)            113.8416         calculate D2E/DX2 analytically  !
 ! A75   A(5,45,46)            106.6921         calculate D2E/DX2 analytically  !
 ! A76   A(5,45,47)            110.6203         calculate D2E/DX2 analytically  !
 ! A77   A(27,45,46)           110.6154         calculate D2E/DX2 analytically  !
 ! A78   A(27,45,47)           106.7485         calculate D2E/DX2 analytically  !
 ! A79   A(46,45,47)           108.2321         calculate D2E/DX2 analytically  !
 ! A80   A(9,50,48)            116.9217         calculate D2E/DX2 analytically  !
 ! A81   A(9,50,49)            117.3335         calculate D2E/DX2 analytically  !
 ! A82   A(48,50,49)           125.733          calculate D2E/DX2 analytically  !
 ! D1    D(2,1,3,4)            177.5302         calculate D2E/DX2 analytically  !
 ! D2    D(2,1,3,5)             -1.1774         calculate D2E/DX2 analytically  !
 ! D3    D(7,1,3,4)             -2.3134         calculate D2E/DX2 analytically  !
 ! D4    D(7,1,3,5)            178.9789         calculate D2E/DX2 analytically  !
 ! D5    D(2,1,7,8)              2.9654         calculate D2E/DX2 analytically  !
 ! D6    D(2,1,7,9)           -177.7608         calculate D2E/DX2 analytically  !
 ! D7    D(3,1,7,8)           -177.1854         calculate D2E/DX2 analytically  !
 ! D8    D(3,1,7,9)              2.0885         calculate D2E/DX2 analytically  !
 ! D9    D(1,3,5,6)            176.9935         calculate D2E/DX2 analytically  !
 ! D10   D(1,3,5,45)            -3.6598         calculate D2E/DX2 analytically  !
 ! D11   D(4,3,5,6)             -1.8027         calculate D2E/DX2 analytically  !
 ! D12   D(4,3,5,45)           177.544          calculate D2E/DX2 analytically  !
 ! D13   D(3,5,45,27)           79.046          calculate D2E/DX2 analytically  !
 ! D14   D(3,5,45,46)         -158.6512         calculate D2E/DX2 analytically  !
 ! D15   D(3,5,45,47)          -41.1465         calculate D2E/DX2 analytically  !
 ! D16   D(6,5,45,27)         -101.6041         calculate D2E/DX2 analytically  !
 ! D17   D(6,5,45,46)           20.6987         calculate D2E/DX2 analytically  !
 ! D18   D(6,5,45,47)          138.2033         calculate D2E/DX2 analytically  !
 ! D19   D(1,7,8,10)           172.5485         calculate D2E/DX2 analytically  !
 ! D20   D(1,7,8,11)            -4.2722         calculate D2E/DX2 analytically  !
 ! D21   D(9,7,8,10)            -6.7558         calculate D2E/DX2 analytically  !
 ! D22   D(9,7,8,11)           176.4235         calculate D2E/DX2 analytically  !
 ! D23   D(1,7,9,12)          -167.1297         calculate D2E/DX2 analytically  !
 ! D24   D(1,7,9,13)           -37.2047         calculate D2E/DX2 analytically  !
 ! D25   D(1,7,9,50)            73.7589         calculate D2E/DX2 analytically  !
 ! D26   D(8,7,9,12)            12.1604         calculate D2E/DX2 analytically  !
 ! D27   D(8,7,9,13)           142.0854         calculate D2E/DX2 analytically  !
 ! D28   D(8,7,9,50)          -106.9511         calculate D2E/DX2 analytically  !
 ! D29   D(7,8,10,14)           -1.8583         calculate D2E/DX2 analytically  !
 ! D30   D(7,8,10,15)         -178.6594         calculate D2E/DX2 analytically  !
 ! D31   D(11,8,10,14)         174.9632         calculate D2E/DX2 analytically  !
 ! D32   D(11,8,10,15)          -1.8379         calculate D2E/DX2 analytically  !
 ! D33   D(7,9,12,14)           -9.8053         calculate D2E/DX2 analytically  !
 ! D34   D(7,9,12,18)          171.6191         calculate D2E/DX2 analytically  !
 ! D35   D(13,9,12,14)        -140.9474         calculate D2E/DX2 analytically  !
 ! D36   D(13,9,12,18)          40.477          calculate D2E/DX2 analytically  !
 ! D37   D(50,9,12,14)         110.3755         calculate D2E/DX2 analytically  !
 ! D38   D(50,9,12,18)         -68.2001         calculate D2E/DX2 analytically  !
 ! D39   D(7,9,50,48)         -100.4217         calculate D2E/DX2 analytically  !
 ! D40   D(7,9,50,49)           78.4017         calculate D2E/DX2 analytically  !
 ! D41   D(12,9,50,48)         133.9408         calculate D2E/DX2 analytically  !
 ! D42   D(12,9,50,49)         -47.2358         calculate D2E/DX2 analytically  !
 ! D43   D(13,9,50,48)          18.5748         calculate D2E/DX2 analytically  !
 ! D44   D(13,9,50,49)        -162.6019         calculate D2E/DX2 analytically  !
 ! D45   D(8,10,14,12)           4.6058         calculate D2E/DX2 analytically  !
 ! D46   D(8,10,14,16)        -173.8534         calculate D2E/DX2 analytically  !
 ! D47   D(15,10,14,12)       -178.5586         calculate D2E/DX2 analytically  !
 ! D48   D(15,10,14,16)          2.9823         calculate D2E/DX2 analytically  !
 ! D49   D(9,12,14,10)           1.603          calculate D2E/DX2 analytically  !
 ! D50   D(9,12,14,16)        -179.922          calculate D2E/DX2 analytically  !
 ! D51   D(18,12,14,10)        179.8999         calculate D2E/DX2 analytically  !
 ! D52   D(18,12,14,16)         -1.6252         calculate D2E/DX2 analytically  !
 ! D53   D(9,12,18,19)         154.2733         calculate D2E/DX2 analytically  !
 ! D54   D(14,12,18,19)        -24.164          calculate D2E/DX2 analytically  !
 ! D55   D(10,14,16,17)         -0.6436         calculate D2E/DX2 analytically  !
 ! D56   D(12,14,16,17)       -179.0996         calculate D2E/DX2 analytically  !
 ! D57   D(12,18,19,20)         73.2465         calculate D2E/DX2 analytically  !
 ! D58   D(12,18,19,21)       -167.7581         calculate D2E/DX2 analytically  !
 ! D59   D(12,18,19,22)        -49.5199         calculate D2E/DX2 analytically  !
 ! D60   D(24,23,25,26)        178.2743         calculate D2E/DX2 analytically  !
 ! D61   D(24,23,25,27)         -0.4588         calculate D2E/DX2 analytically  !
 ! D62   D(29,23,25,26)         -0.2507         calculate D2E/DX2 analytically  !
 ! D63   D(29,23,25,27)       -178.9838         calculate D2E/DX2 analytically  !
 ! D64   D(24,23,29,30)         -0.1005         calculate D2E/DX2 analytically  !
 ! D65   D(24,23,29,31)        179.5845         calculate D2E/DX2 analytically  !
 ! D66   D(25,23,29,30)        178.476          calculate D2E/DX2 analytically  !
 ! D67   D(25,23,29,31)         -1.839          calculate D2E/DX2 analytically  !
 ! D68   D(23,25,27,28)        176.8011         calculate D2E/DX2 analytically  !
 ! D69   D(23,25,27,45)         -3.5288         calculate D2E/DX2 analytically  !
 ! D70   D(26,25,27,28)         -2.0203         calculate D2E/DX2 analytically  !
 ! D71   D(26,25,27,45)        177.6498         calculate D2E/DX2 analytically  !
 ! D72   D(25,27,45,5)          79.5384         calculate D2E/DX2 analytically  !
 ! D73   D(25,27,45,46)        -40.5777         calculate D2E/DX2 analytically  !
 ! D74   D(25,27,45,47)       -158.1125         calculate D2E/DX2 analytically  !
 ! D75   D(28,27,45,5)        -100.79           calculate D2E/DX2 analytically  !
 ! D76   D(28,27,45,46)        139.0939         calculate D2E/DX2 analytically  !
 ! D77   D(28,27,45,47)         21.559          calculate D2E/DX2 analytically  !
 ! D78   D(23,29,30,32)       -179.6438         calculate D2E/DX2 analytically  !
 ! D79   D(23,29,30,33)         -0.2395         calculate D2E/DX2 analytically  !
 ! D80   D(31,29,30,32)          0.6538         calculate D2E/DX2 analytically  !
 ! D81   D(31,29,30,33)       -179.942          calculate D2E/DX2 analytically  !
 ! D82   D(23,29,31,34)        179.6291         calculate D2E/DX2 analytically  !
 ! D83   D(23,29,31,35)          0.2914         calculate D2E/DX2 analytically  !
 ! D84   D(30,29,31,34)         -0.6831         calculate D2E/DX2 analytically  !
 ! D85   D(30,29,31,35)        179.9792         calculate D2E/DX2 analytically  !
 ! D86   D(29,30,32,36)          0.0327         calculate D2E/DX2 analytically  !
 ! D87   D(29,30,32,37)        179.2678         calculate D2E/DX2 analytically  !
 ! D88   D(33,30,32,36)       -179.3724         calculate D2E/DX2 analytically  !
 ! D89   D(33,30,32,37)         -0.1373         calculate D2E/DX2 analytically  !
 ! D90   D(29,31,34,36)          0.0255         calculate D2E/DX2 analytically  !
 ! D91   D(29,31,34,40)       -176.7897         calculate D2E/DX2 analytically  !
 ! D92   D(35,31,34,36)        179.3877         calculate D2E/DX2 analytically  !
 ! D93   D(35,31,34,40)          2.5724         calculate D2E/DX2 analytically  !
 ! D94   D(30,32,36,34)         -0.7068         calculate D2E/DX2 analytically  !
 ! D95   D(30,32,36,38)        178.5987         calculate D2E/DX2 analytically  !
 ! D96   D(37,32,36,34)       -179.948          calculate D2E/DX2 analytically  !
 ! D97   D(37,32,36,38)         -0.6425         calculate D2E/DX2 analytically  !
 ! D98   D(31,34,36,32)          0.6758         calculate D2E/DX2 analytically  !
 ! D99   D(31,34,36,38)       -178.6659         calculate D2E/DX2 analytically  !
 ! D100  D(40,34,36,32)        177.425          calculate D2E/DX2 analytically  !
 ! D101  D(40,34,36,38)         -1.9167         calculate D2E/DX2 analytically  !
 ! D102  D(31,34,40,41)       -112.7159         calculate D2E/DX2 analytically  !
 ! D103  D(36,34,40,41)         70.5266         calculate D2E/DX2 analytically  !
 ! D104  D(32,36,38,39)          0.281          calculate D2E/DX2 analytically  !
 ! D105  D(34,36,38,39)        179.5981         calculate D2E/DX2 analytically  !
 ! D106  D(34,40,41,42)         58.3261         calculate D2E/DX2 analytically  !
 ! D107  D(34,40,41,43)        176.7407         calculate D2E/DX2 analytically  !
 ! D108  D(34,40,41,44)        -64.1854         calculate D2E/DX2 analytically  !
 --------------------------------------------------------------------------------
 Trust Radius=3.00D-01 FncErr=1.00D-07 GrdErr=1.00D-06 EigMax=2.50D+02 EigMin=1.00D-04
 Number of steps in this run=    251 maximum allowed number of steps=    300.
 GradGradGradGradGradGradGradGradGradGradGradGradGradGradGradGradGradGrad

                          Input orientation:                          
 ---------------------------------------------------------------------
 Center     Atomic      Atomic             Coordinates (Angstroms)
 Number     Number       Type             X           Y           Z
 ---------------------------------------------------------------------
      1          6           0        2.192579    0.894022    0.910090
      2          1           0        1.759867    1.889897    0.877922
      3          6           0        1.453140   -0.116491    1.445045
      4          1           0        1.822548   -1.136147    1.465104
      5          6           0        0.112813    0.029666    2.011779
      6          8           0       -0.494383   -0.954257    2.420558
      7          6           0        3.511502    0.811010    0.362549
      8          6           0        4.150371    1.956268   -0.092956
      9          6           0        4.255935   -0.488157    0.272213
     10          6           0        5.485548    1.955743   -0.492862
     11          1           0        3.606155    2.895006   -0.090006
     12          6           0        5.711399   -0.402938   -0.036106
     13          1           0        4.083063   -1.141826    1.127106
     14          6           0        6.283921    0.791769   -0.422012
     15          1           0        5.947716    2.881826   -0.821273
     16          8           0        7.619102    0.843613   -0.700536
     17          1           0        7.864228    1.747748   -0.940032
     18          8           0        6.295027   -1.609926    0.090387
     19          6           0        7.494473   -1.953810   -0.633493
     20          1           0        8.363045   -1.444825   -0.220835
     21          1           0        7.596415   -3.030221   -0.508237
     22          1           0        7.383018   -1.713370   -1.691387
     23          6           0       -3.180231    0.505661    0.966728
     24          1           0       -2.790637    0.058190    1.876801
     25          6           0       -2.435198    1.440836    0.339126
     26          1           0       -2.767225    1.898174   -0.588601
     27          6           0       -1.126391    1.923642    0.788123
     28          8           0       -0.503945    2.734956    0.113290
     29          6           0       -4.473188   -0.016867    0.545648
     30          6           0       -5.082818   -1.017119    1.319187
     31          6           0       -5.154882    0.434633   -0.601878
     32          6           0       -6.311781   -1.554381    0.957699
     33          1           0       -4.582379   -1.384338    2.209194
     34          6           0       -6.379571   -0.091416   -0.975017
     35          1           0       -4.732382    1.205327   -1.236672
     36          6           0       -6.968230   -1.107770   -0.189318
     37          1           0       -6.764750   -2.336631    1.560924
     38          8           0       -8.156176   -1.616424   -0.604270
     39          1           0       -8.449081   -2.303905    0.010474
     40          8           0       -6.966022    0.338193   -2.136076
     41          6           0       -8.175759    1.096086   -1.979925
     42          1           0       -7.997467    1.985414   -1.366565
     43          1           0       -8.470368    1.403539   -2.982942
     44          1           0       -8.971077    0.494632   -1.536090
     45          6           0       -0.534268    1.418981    2.111147
     46          1           0       -1.307452    1.350192    2.876092
     47          1           0        0.197168    2.161141    2.431306
     48          8           0        2.823579   -2.235267   -0.593264
     49          8           0        3.906244   -1.061546   -2.056749
     50          7           0        3.600374   -1.355539   -0.916582
 ---------------------------------------------------------------------
                    Distance matrix (angstroms):
                    1          2          3          4          5
     1  C    0.000000
     2  H    1.086298   0.000000
     3  C    1.361647   2.107440   0.000000
     4  H    2.136948   3.083124   1.084694   0.000000
     5  C    2.507241   2.731095   1.462541   2.140366   0.000000
     6  O    3.594080   3.943423   2.333736   2.512796   1.226333
     7  C    1.430472   2.120810   2.503779   2.803501   3.857661
     8  C    2.442830   2.580992   3.733207   4.172450   4.944045
     9  C    2.564126   3.500340   3.060936   2.786441   4.523239
    10  C    3.733520   3.970401   4.930512   5.177932   6.232919
    11  H    2.646191   2.314283   4.007614   4.674378   4.983082
    12  C    3.867750   4.659093   4.517591   4.232540   5.977052
    13  H    2.786701   3.827621   2.840579   2.285652   4.232957
    14  C    4.303955   4.833505   5.258068   5.213628   6.677328
    15  H    4.588032   4.627015   5.858952   6.195857   7.085696
    16  O    5.660725   6.157668   6.598819   6.496883   8.022689
    17  H    6.026557   6.370901   7.089853   7.113608   8.470503
    18  O    4.875628   5.782444   5.244932   4.702912   6.678307
    19  C    6.213121   7.067119   6.647839   6.102739   8.088297
    20  H    6.695061   7.478609   7.230934   6.761344   8.673236
    21  H    6.827355   7.758498   7.074246   6.388985   8.468629
    22  H    6.364498   7.155747   6.895700   6.419926   8.343111
    23  C    5.387125   5.131137   4.699360   5.288828   3.487526
    24  H    5.144472   5.005996   4.269259   4.783034   2.906726
    25  C    4.694819   4.253296   4.332146   5.102653   3.358799
    26  H    5.277694   4.758710   5.099614   5.872889   4.306729
    27  C    3.477148   2.887852   3.353755   4.303121   2.572956
    28  O    3.360829   2.534489   3.706009   4.714383   3.362030
    29  C    6.737581   6.526648   5.995015   6.460223   4.814885
    30  C    7.533341   7.447671   6.598918   6.907933   5.345094
    31  C    7.515469   7.219513   6.939711   7.444750   5.894389
    32  C    8.849920   8.776156   7.911955   8.160863   6.700426
    33  H    7.264892   7.260647   6.214407   6.452779   4.907465
    34  C    8.832127   8.579594   8.198090   8.620928   7.147494
    35  H    7.256762   6.862175   6.870189   7.466539   5.950675
    36  C    9.441202   9.290032   8.635581   8.945150   7.501984
    37  H    9.544341   9.539346   8.513293   8.671333   7.287215
    38  O   10.756038  10.621633   9.939238  10.202348   8.827769
    39  H   11.148138  11.070821  10.241912  10.439635   9.097077
    40  O    9.667888   9.361256   9.160429   9.611511   8.210347
    41  C   10.765475  10.368900  10.291572  10.808202   9.261284
    42  H   10.498159  10.012613  10.081524  10.686215   9.000823
    43  H   11.362823  10.945343  10.972400  11.496923  10.025256
    44  H   11.435494  11.087262  10.859325  11.321172   9.763228
    45  C    3.025528   2.646821   2.598300   3.535624   1.535834
    46  H    4.040232   3.700326   3.438012   4.239064   2.123200
    47  H    2.810935   2.220046   2.781688   3.800988   2.174006
    48  O    3.528552   4.506978   3.243765   2.539096   4.389125
    49  O    3.945000   4.682974   4.378745   4.092775   5.668667
    50  N    3.221667   4.140116   3.423906   2.980139   4.759955
                    6          7          8          9         10
     6  O    0.000000
     7  C    4.837219   0.000000
     8  C    6.030145   1.388256   0.000000
     9  C    5.234324   1.500058   2.473804   0.000000
    10  C    7.260557   2.437006   1.393780   2.840763   0.000000
    11  H    6.159072   2.134667   1.085085   3.463987   2.139305
    12  C    6.697080   2.544041   2.829469   1.490201   2.413091
    13  H    4.760379   2.173660   3.330356   1.089959   3.766457
    14  C    7.554747   2.881355   2.452828   2.496575   1.413242
    15  H    8.168576   3.409523   2.148849   3.926146   1.085856
    16  O    8.877061   4.243064   3.693135   3.745764   2.414957
    17  H    9.405358   4.639010   3.814937   4.414588   2.429267
    18  O    7.208029   3.699056   4.165442   2.334379   3.702625
    19  C    8.610932   4.949787   5.173385   3.668320   4.397745
    20  H    9.255898   5.382062   5.415755   4.245782   4.462942
    21  H    8.851467   5.674490   6.075586   4.269660   5.414410
    22  H    8.918396   5.057646   5.145020   3.890440   4.301075
    23  C    3.385079   6.725887   7.547511   7.534360   8.906675
    24  H    2.567782   6.525079   7.460579   7.247577   8.815398
    25  C    3.719622   5.980006   6.619825   6.963960   7.980949
    26  H    4.728341   6.442750   6.935573   7.467285   8.253529
    27  C    3.368468   4.788436   5.349915   5.920504   6.734961
    28  O    4.351307   4.459542   4.723511   5.750667   6.070307
    29  C    4.497208   8.029582   8.869434   8.746112  10.205201
    30  C    4.719185   8.838527   9.802396   9.412134  11.127075
    31  C    5.725766   8.728001   9.442570   9.496266  10.749159
    32  C    6.028451  10.121570  11.085358  10.643465  12.393630
    33  H    4.115988   8.587233   9.629148   9.092350  10.946251
    34  C    6.849077  10.021815  10.763398  10.715735  12.050078
    35  H    5.999981   8.406820   8.987509   9.270085  10.272414
    36  C    6.981813  10.668227  11.533469  11.250725  12.828634
    37  H    6.478227  10.814116  11.845006  11.248694  13.142005
    38  O    8.263844  11.956667  12.824846  12.494067  14.102107
    39  H    8.420646  12.364555  13.300601  12.836778  14.579844
    40  O    8.019691  10.781707  11.417824  11.507173  12.663263
    41  C    9.086896  11.923109  12.499362  12.732987  13.768866
    42  H    8.903945  11.697241  12.214455  12.607538  13.511326
    43  H    9.918334  12.454261  12.959190  13.271524  14.187073
    44  H    9.466186  12.630111  13.281243  13.386175  14.567676
    45  C    2.393655   4.449212   5.205055   5.474021   6.580818
    46  H    2.485775   5.461770   6.242628   6.411785   7.606667
    47  H    3.191248   4.133694   4.694858   5.306039   6.046479
    48  O    4.661864   3.265979   4.424890   2.419316   4.965957
    49  O    6.278798   3.084686   3.608778   2.423865   3.747529
    50  N    5.297599   2.517540   3.456721   1.611008   3.833798
                   11         12         13         14         15
    11  H    0.000000
    12  C    3.912977   0.000000
    13  H    4.243208   2.133190   0.000000
    14  C    3.421149   1.379865   3.313960   0.000000
    15  H    2.453127   3.385559   4.843851   2.154247   0.000000
    16  O    4.548044   2.373749   4.448125   1.364908   2.638640
    17  H    4.491094   3.174460   5.188440   1.918231   2.230079
    18  O    5.249475   1.346641   2.487306   2.455772   4.596476
    19  C    6.239023   2.437504   3.923869   3.008050   5.080462
    20  H    6.440439   2.854974   4.497444   3.060324   4.991418
    21  H    7.155795   3.267845   4.310919   4.041990   6.145608
    22  H    6.169785   2.692860   4.377245   3.015801   4.892139
    23  C    7.271911   8.994015   7.449521   9.569776   9.600131
    24  H    7.268755   8.726768   7.017822   9.389903   9.571381
    25  C    6.228700   8.361061   7.055408   8.776311   8.584650
    26  H    6.470104   8.802695   7.688413   9.120039   8.773363
    27  C    4.910362   7.269643   6.053959   7.593305   7.317873
    28  O    4.118236   6.964137   6.090805   7.080794   6.520653
    29  C    8.611553  10.208492   8.649454  10.830773  10.902575
    30  C    9.632694  10.896292   9.168742  11.640730  11.893529
    31  C    9.114342  10.913189   9.529651  11.445790  11.371217
    32  C   10.920631  12.119007  10.404407  12.886416  13.158265
    33  H    9.521093  10.581418   8.736110  11.390135  11.758690
    34  C   10.460243  12.131371  10.723292  12.706292  12.681712
    35  H    8.584932  10.634870   9.423834  11.054123  10.818859
    36  C   11.307064  12.700129  11.129475  13.389619  13.532846
    37  H   11.732487  12.725721  10.922032  13.564170  13.946825
    38  O   12.608327  13.932157  12.370201  14.640663  14.805442
    39  H   13.128880  14.287584  12.635344  15.060929  15.324861
    40  O   11.067729  12.871525  11.615554  13.368049  13.227373
    41  C   12.067369  14.102435  12.842920  14.546547  14.282993
    42  H   11.709014  13.978819  12.725456  14.362277  13.984600
    43  H   12.507436  14.596908  13.452138  14.987383  14.653986
    44  H   12.885640  14.786166  13.423158  15.298510  15.125477
    45  C    4.915977   6.851164   5.370831   7.300547   7.263272
    46  H    5.943712   7.798630   6.190861   8.295677   8.285763
    47  H    4.303111   6.562726   5.264096   6.860405   6.645861
    48  O    5.213961   3.465164   2.396161   4.600678   5.999738
    49  O    4.428592   2.788431   3.189772   3.429357   4.609142
    50  N    4.330172   2.477724   2.110764   3.472313   4.845035
                   16         17         18         19         20
    16  O    0.000000
    17  H    0.966905   0.000000
    18  O    2.898032   3.846834   0.000000
    19  C    2.801000   3.732588   1.442543   0.000000
    20  H    2.453673   3.310375   2.097812   1.088012   0.000000
    21  H    3.878670   4.804910   2.017225   1.088459   1.784322
    22  H    2.752396   3.574274   2.090250   1.090584   1.787483
    23  C   10.932501  11.276461   9.748035  11.070637  11.766984
    24  H   10.752778  11.149677   9.408676  10.776512  11.448308
    25  C   10.125538  10.383092   9.251262  10.538879  11.191186
    26  H   10.440327  10.638323   9.741263  10.960942  11.627287
    27  C    8.936791   9.156893   8.249266   9.559024  10.119979
    28  O    8.379940   8.491783   8.068739   9.301447   9.808452
    29  C   12.186751  12.551213  10.894933  12.180601  12.938139
    30  C   12.995399  13.430359  11.459351  12.762390  13.540526
    31  C   12.780911  13.089532  11.651604  12.872912  13.653275
    32  C   14.232696  14.678714  12.636729  13.903384  14.722482
    33  H   12.739955  13.215355  11.084142  12.419965  13.171663
    34  C   14.032550  14.362087  12.809621  14.002652  14.823806
    35  H   12.368406  12.611772  11.458206  12.642783  13.399457
    36  C   14.726151  15.123470  13.275707  14.494236  15.335012
    37  H   14.903803  15.392982  13.162384  14.432167  15.258445
    38  O   15.966229  16.373262  14.467891  15.654313  16.524561
    39  H   16.388988  16.835777  14.760648  15.960394  16.835650
    40  O   14.664313  14.945022  13.587043  14.717913  15.550807
    41  C   15.848603  16.086864  14.866484  16.020953  16.825061
    42  H   15.672414  15.869208  14.809611  16.001722  16.755465
    43  H   16.260196  16.465448  15.379962  16.482350  17.294687
    44  H   16.614873  16.892397  15.496081  16.671050  17.491803
    45  C    8.643730   8.941617   7.739317   9.130688   9.633365
    46  H    9.629759   9.941858   8.620913  10.035313  10.531932
    47  H    8.162685   8.385739   7.542197   8.920565   9.312271
    48  O    5.699829   6.433723   3.592963   4.679540   5.607958
    49  O    4.387968   4.980444   3.258404   3.961966   4.835344
    50  N    4.586189   5.273650   2.887881   3.949947   4.814050
                   21         22         23         24         25
    21  H    0.000000
    22  H    1.783110   0.000000
    23  C   11.437398  11.116290   0.000000
    24  H   11.095834  10.925825   1.086391   0.000000
    25  C   11.015517  10.510440   1.350374   2.098211   0.000000
    26  H   11.476086  10.829904   2.128078   3.076409   1.086314
    27  C   10.114774   9.580495   2.502164   2.726691   1.465495
    28  O    9.961897   9.233020   3.586171   3.937513   2.335698
    29  C   12.484642  12.184091   1.456737   2.146760   2.514151
    30  C   12.967459  12.843107   2.462301   2.592550   3.743255
    31  C   13.213991  12.767141   2.522859   3.446043   3.048707
    32  C   14.062894  13.949568   3.748394   3.980401   4.937799
    33  H   12.586357  12.589422   2.661173   2.324159   4.011129
    34  C   14.289249  13.876339   3.789809   4.586469   4.430897
    35  H   13.056405  12.470304   2.784543   3.844477   2.795650
    36  C   14.694435  14.442344   4.276510   4.804227   5.227143
    37  H   14.526029  14.530152   4.613075   4.650647   5.874271
    38  O   15.816199  15.577476   5.633055   6.144026   6.554878
    39  H   16.070300  15.934253   6.047220   6.409420   7.092101
    40  O   15.035313  14.501780   4.897719   5.797881   5.279282
    41  C   16.369292  15.813028   5.829808   6.704558   6.200878
    42  H   16.403124  15.822321   5.553350   6.429984   5.843354
    43  H   16.850042  16.208427   6.662704   7.595157   6.889180
    44  H   16.969468  16.503206   6.308575   7.073623   6.865089
    45  C    9.631437   9.324930   3.024065   2.645349   2.598859
    46  H   10.484300  10.284529   2.804675   2.206284   2.777809
    47  H    9.504736   9.145758   4.036387   3.695518   3.438808
    48  O    4.839333   4.718765   6.781739   6.548327   6.483657
    49  O    4.459925   3.556166   7.862295   7.846964   7.226065
    50  N    4.351971   3.877727   7.279252   7.116645   6.769389
                   26         27         28         29         30
    26  H    0.000000
    27  C    2.142044   0.000000
    28  O    2.513024   1.225182   0.000000
    29  C    2.804321   3.876263   4.849160   0.000000
    30  C    4.183367   4.958167   6.041385   1.403750   0.000000
    31  C    2.800542   4.514199   5.237763   1.409034   2.408998
    32  C    5.184116   6.246092   7.269278   2.431904   1.389127
    33  H    4.679458   4.990594   6.164011   2.156221   1.085082
    34  C    4.142081   5.896187   6.610278   2.439728   2.793182
    35  H    2.182173   4.197492   4.694874   2.176603   3.405067
    36  C    5.181078   6.653715   7.526294   2.820546   2.416316
    37  H    6.207595   7.109024   8.186227   3.415164   2.151381
    38  O    6.433774   7.993041   8.832103   4.176756   3.674831
    39  H    7.092239   8.491094   9.408819   4.617865   3.834094
    40  O    4.739000   6.720556   7.250004   3.678577   4.161991
    41  C    5.641930   7.618433   8.119370   4.618031   4.991598
    42  H    5.288504   7.201262   7.674937   4.481766   4.972288
    43  H    6.205109   8.271967   8.650041   5.517784   5.986935
    44  H    6.430820   8.305608   8.912453   4.982596   5.055349
    45  C    3.536150   1.534824   2.392518   4.475214   5.220258
    46  H    3.799383   2.172841   3.193160   4.161936   4.720329
    47  H    4.239883   2.123267   2.488779   5.487408   6.262299
    48  O    6.952872   5.899747   6.022852   7.711110   8.225112
    49  O    7.446515   6.506310   6.210658   8.836216   9.602196
    50  N    7.158249   6.000113   5.885424   8.313396   8.972793
                   31         32         33         34         35
    31  C    0.000000
    32  C    2.779726   0.000000
    33  H    3.396844   2.141492   0.000000
    34  C    1.384133   2.424923   3.878240   0.000000
    35  H    1.084176   3.863386   4.313103   2.112637   0.000000
    36  C    2.416080   1.395003   3.394354   1.413088   3.383250
    37  H    3.866431   1.086727   2.467763   3.408863   4.950002
    38  O    3.635190   2.417724   4.554280   2.370533   4.481582
    39  H    4.327391   2.455010   4.542175   3.185777   5.261552
    40  O    2.375561   3.685283   5.246927   1.369871   2.559296
    41  C    3.385591   4.373674   6.050917   2.376193   3.524372
    42  H    3.327154   4.557838   5.983654   2.661602   3.359492
    43  H    4.195317   5.379353   7.060240   3.261608   4.130531
    44  H    3.929337   4.182019   6.067812   2.715540   4.308279
    45  C    5.447892   6.599317   4.924979   6.780359   5.373798
    46  H    5.266616   6.095908   4.318282   6.529599   5.354060
    47  H    6.389481   7.638261   5.955151   7.741482   6.218368
    48  O    8.413339   9.291065   7.964048   9.457261   8.327317
    49  O    9.298345  10.664794   9.505746  10.387940   8.968674
    50  N    8.941938  10.089761   8.759495  10.059856   8.723263
                   36         37         38         39         40
    36  C    0.000000
    37  H    2.148220   0.000000
    38  O    1.357251   2.672607   0.000000
    39  H    1.914047   2.289528   0.967643   0.000000
    40  O    2.425011   4.567603   2.753802   3.713196   0.000000
    41  C    3.085673   5.129532   3.041467   3.949219   1.436053
    42  H    3.465981   5.363754   3.685040   4.527522   2.090302
    43  H    4.045667   6.127374   3.857068   4.765095   2.028596
    44  H    2.897046   4.740825   2.447225   3.239776   2.098738
    45  C    7.285086   7.295633   8.641797   8.995386   7.782960
    46  H    6.890771   6.715983   8.235215   8.518631   7.626623
    47  H    8.300384   8.334015   9.657281  10.027696   8.688809
    48  O    9.864783   9.827860  10.997186  11.289024  10.239104
    49  O   11.033750  11.339467  12.162219  12.588524  10.962287
    50  N   10.596494  10.702166  11.763590  12.122219  10.770544
                   41         42         43         44         45
    41  C    0.000000
    42  H    1.094944   0.000000
    43  H    1.089663   1.781821   0.000000
    44  H    1.091452   1.788599   1.780506   0.000000
    45  C    8.673725   8.253161   9.430358   9.237776   0.000000
    46  H    8.415409   7.947323   9.254107   8.884283   1.089809
    47  H    9.523612   9.033645  10.247644  10.127892   1.090092
    48  O   11.576103  11.640755  12.103913  12.143112   5.651770
    49  O   12.273389  12.306855  12.653656  12.981455   6.575905
    50  N   12.075531  12.077846  12.553293  12.721961   5.827553
                   46         47         48         49         50
    46  H    0.000000
    47  H    1.766169   0.000000
    48  O    6.477450   5.947643   0.000000
    49  O    7.571791   6.654742   2.166004   0.000000
    50  N    6.766986   5.929351   1.217319   1.216540   0.000000
 Stoichiometry    C21H20NO8(2)
 Framework group  C1[X(C21H20NO8)]
 Deg. of freedom   144
 Full point group                 C1      NOp   1
 Largest Abelian subgroup         C1      NOp   1
 Largest concise Abelian subgroup C1      NOp   1
                         Standard orientation:                         
 ---------------------------------------------------------------------
 Center     Atomic      Atomic             Coordinates (Angstroms)
 Number     Number       Type             X           Y           Z
 ---------------------------------------------------------------------
      1          6           0        2.205432    0.979520    0.728341
      2          1           0        1.772659    1.960559    0.554237
      3          6           0        1.468544    0.057835    1.407735
      4          1           0        1.837952   -0.948437    1.573614
      5          6           0        0.131040    0.285692    1.953802
      6          8           0       -0.474226   -0.628084    2.503857
      7          6           0        3.521633    0.816942    0.192213
      8          6           0        4.158356    1.883547   -0.427617
      9          6           0        4.265491   -0.482196    0.287564
     10          6           0        5.491546    1.823975   -0.829709
     11          1           0        3.614248    2.813234   -0.558149
     12          6           0        5.719426   -0.443750   -0.036926
     13          1           0        4.096773   -1.004881    1.229023
     14          6           0        6.290150    0.681927   -0.594739
     15          1           0        5.952176    2.692289   -1.291156
     16          8           0        7.623948    0.691767   -0.884325
     17          1           0        7.867974    1.551431   -1.253560
     18          8           0        6.303558   -1.620118    0.260379
     19          6           0        7.499391   -2.066281   -0.411821
     20          1           0        8.370033   -1.503548   -0.081542
     21          1           0        7.601849   -3.113243   -0.132329
     22          1           0        7.382747   -1.981661   -1.492842
     23          6           0       -3.167070    0.607804    0.866807
     24          1           0       -2.773038    0.296686    1.830233
     25          6           0       -2.425052    1.441511    0.106641
     26          1           0       -2.761604    1.759787   -0.875963
     27          6           0       -1.114004    1.983255    0.474529
     28          8           0       -0.494815    2.687661   -0.313816
     29          6           0       -4.462135    0.030793    0.532222
     30          6           0       -5.068039   -0.846255    1.445558
     31          6           0       -5.149434    0.311709   -0.665310
     32          6           0       -6.298818   -1.429257    1.171760
     33          1           0       -4.563254   -1.080968    2.376958
     34          6           0       -6.375995   -0.261891   -0.952282
     35          1           0       -4.729995    0.981890   -1.407177
     36          6           0       -6.960870   -1.153125   -0.024681
     37          1           0       -6.748881   -2.115424    1.884217
     38          8           0       -8.150893   -1.715606   -0.355725
     39          1           0       -8.440829   -2.306464    0.353611
     40          8           0       -6.968120   -0.004673   -2.160492
     41          6           0       -8.177003    0.768826   -2.109988
     42          1           0       -7.995608    1.737536   -1.632917
     43          1           0       -8.476522    0.927854   -3.145538
     44          1           0       -8.970180    0.238712   -1.579783
     45          6           0       -0.515416    1.675256    1.853845
     46          1           0       -1.284827    1.718716    2.624431
     47          1           0        0.217658    2.455400    2.059464
     48          8           0        2.828725   -2.335166   -0.308501
     49          8           0        3.904275   -1.386889   -1.931935
     50          7           0        3.603999   -1.512232   -0.759718
 ---------------------------------------------------------------------
 Rotational constants (GHZ):           0.3757415           0.0449607           0.0441915
 Standard basis: 6-311+G(d) (5D, 7F)
 There are   750 symmetry adapted cartesian basis functions of A   symmetry.
 There are   720 symmetry adapted basis functions of A   symmetry.
   720 basis functions,  1180 primitive gaussians,   750 cartesian basis functions
   109 alpha electrons      108 beta electrons
       nuclear repulsion energy      2674.2778789137 Hartrees.
 NAtoms=   50 NActive=   50 NUniq=   50 SFac= 1.00D+00 NAtFMM=   60 NAOKFM=F Big=F
 Integral buffers will be    131072 words long.
 Raffenetti 2 integral format.
 Two-electron integral symmetry is turned on.
 Force inversion solution in PCM.
 Using the following non-standard input for PCM:
 Eps=7
 EpsInf=1.85341
 HbondAcidity=0
 HbondBasicity=0.48
 SurfaceTensionAtInterface=60.62
 CarbonAromaticity=0
 ElectronegativeHalogenicity=0
 --- end of non-standard input.
 Force inversion solution in PCM.
 ------------------------------------------------------------------------------
 Polarizable Continuum Model (PCM)
 =================================
 Model                : PCM.
 Atomic radii         : SMD-Coulomb.
 Polarization charges : Total charges.
 Charge compensation  : None.
 Solution method      : Matrix inversion.
 Cavity type          : VdW (van der Waals Surface) (Alpha=1.000).
 Cavity algorithm     : GePol (No added spheres)
                        Default sphere list used, NSphG=   50.
                        Lebedev-Laikov grids with approx.  5.0 points / Ang**2.
                        Smoothing algorithm: York/Karplus (Gamma=1.0000).
                        Polarization charges: spherical gaussians, with
                                              point-specific exponents (IZeta= 3).
                        Self-potential: point-specific (ISelfS= 7).
                        Self-field    : sphere-specific E.n sum rule (ISelfD= 2).
 1st derivatives      : Analytical E(r).r(x)/FMM algorithm (CHGder, D1EAlg=3).
                        Cavity 1st derivative terms included.
 2nd derivatives      : Analytical E(r).r(xy)/FMM algorithm (CHGder, D2EAlg=3).
                        Cavity 2nd derivative terms included.
 Solvent              : Generic,
                        Eps                           =   7.000000
                        Eps(infinity)                 =   1.853410
                        RSolv                         =   0.000000 Ang.
                        Molar volume                  =   0.000000 cm**3/mol
                        Thermal expansion coefficient =   0.000000 K**-1
                        Absolute temperature          = 298.150000 K
                        Numeral density               =   0.000000 Ang**-3
                        Hydrogen bond acidity         =   0.000000
                        Hydrogen bond basicity        =   0.480000
                        Surface tension at interface  =  60.620000 (cal/mol)*Ang**-2
                        Carbon aromaticity            =   0.000000
                        Electronegative halogenicity  =   0.000000
 ------------------------------------------------------------------------------
 ------------------------------------------------------------------------------
 Atomic radii for non-electrostatic terms: SMD-CDS.
 ------------------------------------------------------------------------------
 Nuclear repulsion after PCM non-electrostatic terms =     2674.2739524113 Hartrees.
 One-electron integrals computed using PRISM.
 NBasis=   720 RedAO= T EigKep=  1.04D-06  NBF=   720
 NBsUse=   716 1.00D-06 EigRej=  8.64D-07 NBFU=   716
 Initial guess from the checkpoint file:  "CURCUMIN-OPT-FREQ-Reag-1-B3LYP-6-311+G-D-298.chk"
 B after Tr=    -0.000000    0.000000   -0.000000
         Rot=    1.000000   -0.000000   -0.000000    0.000000 Ang=   0.00 deg.
 Initial guess <Sx>= 0.0000 <Sy>= 0.0000 <Sz>= 0.5000 <S**2>= 0.7861 S= 0.5179
 Requested convergence on RMS density matrix=1.00D-08 within 128 cycles.
 Requested convergence on MAX density matrix=1.00D-06.
 Requested convergence on             energy=1.00D-06.
 No special actions if energy rises.
 Inv3:  Mode=1 IEnd=    50135232.
 Iteration    1 A*A^-1 deviation from unit magnitude is 4.22D-15 for   2951.
 Iteration    1 A*A^-1 deviation from orthogonality  is 1.84D-15 for   3799   2509.
 Iteration    1 A^-1*A deviation from unit magnitude is 3.33D-15 for   2852.
 Iteration    1 A^-1*A deviation from orthogonality  is 2.72D-15 for   1772    758.
 Error on total polarization charges =  0.04050
 SCF Done:  E(UB3LYP) =  -1469.02620470     A.U. after   19 cycles
            NFock= 19  Conv=0.43D-08     -V/T= 2.0037
 <Sx>= 0.0000 <Sy>= 0.0000 <Sz>= 0.5000 <S**2>= 0.7859 S= 0.5178
 <L.S>=  0.00000000000    
 SMD-CDS (non-electrostatic) energy       (kcal/mol) =      -2.46
 (included in total energy above)
 Annihilation of the first spin contaminant:
 S**2 before annihilation     0.7859,   after     0.7508
 DoSCS=F DFT=T ScalE2(SS,OS)=  1.000000  1.000000
 Range of M.O.s used for correlation:     1   716
 NBasis=   720 NAE=   109 NBE=   108 NFC=     0 NFV=     0
 NROrb=    716 NOA=   109 NOB=   108 NVA=   607 NVB=   608

 **** Warning!!: The largest alpha MO coefficient is  0.13130443D+03


 **** Warning!!: The largest beta MO coefficient is  0.13258690D+03


 **** Warning!!: The smallest beta delta epsilon is  0.93161932D-01

 Symmetrizing basis deriv contribution to polar:
 IMax=3 JMax=2 DiffMx= 0.00D+00
 G2DrvN: will do    26 centers at a time, making    2 passes.
 Calling FoFCou, ICntrl=  3107 FMM=F I1Cent=   0 AccDes= 0.00D+00.
 Calling FoFCou, ICntrl=  3107 FMM=F I1Cent=   0 AccDes= 0.00D+00.
 NEqPCM:  Using equilibrium solvation (IEInf=0, Eps=   7.0000, EpsInf=   1.8534)
 G2PCM: DoFxE=T DoFxN=T DoGrad=T DoDP/DQ/DG/TGxP=FFFF NFrqRd=   0 IEInf=0 SqF1=F DoCFld=F IF1Alg=4.
 End of G2Drv F.D. properties file   721 does not exist.
 End of G2Drv F.D. properties file   722 does not exist.
 End of G2Drv F.D. properties file   788 does not exist.
          IDoAtm=11111111111111111111111111111111111111111111111111
 NEqPCM:  Using equilibrium solvation (IEInf=0, Eps=   7.0000, EpsInf=   1.8534)
          Differentiating once with respect to nuclear coordinates.
 CalDSu exits because no D1Ps are significant.
          There are   153 degrees of freedom in the 1st order CPHF.  IDoFFX=6 NUNeed=     0.
    150 vectors produced by pass  0 Test12= 1.32D-13 1.00D-09 XBig12= 6.97D-01 2.82D-01.
 AX will form    38 AO Fock derivatives at one time.
    150 vectors produced by pass  1 Test12= 1.32D-13 1.00D-09 XBig12= 5.69D-02 5.16D-02.
    147 vectors produced by pass  2 Test12= 1.32D-13 1.00D-09 XBig12= 2.43D-03 1.07D-02.
    147 vectors produced by pass  3 Test12= 1.32D-13 1.00D-09 XBig12= 2.90D-05 4.39D-04.
    147 vectors produced by pass  4 Test12= 1.32D-13 1.00D-09 XBig12= 2.20D-07 3.32D-05.
    145 vectors produced by pass  5 Test12= 1.32D-13 1.00D-09 XBig12= 1.82D-09 2.24D-06.
    124 vectors produced by pass  6 Test12= 1.32D-13 1.00D-09 XBig12= 9.60D-12 2.36D-07.
     94 vectors produced by pass  7 Test12= 1.32D-13 1.00D-09 XBig12= 1.23D-13 1.29D-08.
     81 vectors produced by pass  8 Test12= 1.32D-13 1.00D-09 XBig12= 6.54D-14 8.96D-09.
     68 vectors produced by pass  9 Test12= 1.32D-13 1.00D-09 XBig12= 5.20D-14 7.81D-09.
     60 vectors produced by pass 10 Test12= 1.32D-13 1.00D-09 XBig12= 9.03D-14 1.09D-08.
     60 vectors produced by pass 11 Test12= 1.32D-13 1.00D-09 XBig12= 1.25D-13 1.13D-08.
     54 vectors produced by pass 12 Test12= 1.32D-13 1.00D-09 XBig12= 5.19D-14 7.20D-09.
     49 vectors produced by pass 13 Test12= 1.32D-13 1.00D-09 XBig12= 6.58D-14 8.36D-09.
     45 vectors produced by pass 14 Test12= 1.32D-13 1.00D-09 XBig12= 4.82D-14 8.12D-09.
     43 vectors produced by pass 15 Test12= 1.32D-13 1.00D-09 XBig12= 6.14D-14 8.06D-09.
     43 vectors produced by pass 16 Test12= 1.32D-13 1.00D-09 XBig12= 8.93D-14 1.23D-08.
     43 vectors produced by pass 17 Test12= 1.32D-13 1.00D-09 XBig12= 4.63D-14 6.62D-09.
     43 vectors produced by pass 18 Test12= 1.32D-13 1.00D-09 XBig12= 5.82D-14 9.21D-09.
     42 vectors produced by pass 19 Test12= 1.32D-13 1.00D-09 XBig12= 4.96D-14 7.61D-09.
     41 vectors produced by pass 20 Test12= 1.32D-13 1.00D-09 XBig12= 3.35D-14 5.46D-09.
     36 vectors produced by pass 21 Test12= 1.32D-13 1.00D-09 XBig12= 3.51D-14 6.51D-09.
     34 vectors produced by pass 22 Test12= 1.32D-13 1.00D-09 XBig12= 3.77D-14 7.05D-09.
     26 vectors produced by pass 23 Test12= 1.32D-13 1.00D-09 XBig12= 1.38D-14 3.49D-09.
     22 vectors produced by pass 24 Test12= 1.32D-13 1.00D-09 XBig12= 1.14D-14 2.83D-09.
     22 vectors produced by pass 25 Test12= 1.32D-13 1.00D-09 XBig12= 1.62D-14 3.90D-09.
     22 vectors produced by pass 26 Test12= 1.32D-13 1.00D-09 XBig12= 2.80D-14 5.60D-09.
     18 vectors produced by pass 27 Test12= 1.32D-13 1.00D-09 XBig12= 1.42D-14 3.48D-09.
     16 vectors produced by pass 28 Test12= 1.32D-13 1.00D-09 XBig12= 1.01D-14 3.07D-09.
     16 vectors produced by pass 29 Test12= 1.32D-13 1.00D-09 XBig12= 2.08D-14 5.04D-09.
     14 vectors produced by pass 30 Test12= 1.32D-13 1.00D-09 XBig12= 1.61D-14 3.63D-09.
     10 vectors produced by pass 31 Test12= 1.32D-13 1.00D-09 XBig12= 8.55D-15 2.65D-09.
     10 vectors produced by pass 32 Test12= 1.32D-13 1.00D-09 XBig12= 1.28D-14 3.57D-09.
     10 vectors produced by pass 33 Test12= 1.32D-13 1.00D-09 XBig12= 2.29D-14 4.74D-09.
      9 vectors produced by pass 34 Test12= 1.32D-13 1.00D-09 XBig12= 1.48D-14 3.50D-09.
      9 vectors produced by pass 35 Test12= 1.32D-13 1.00D-09 XBig12= 3.08D-14 5.40D-09.
      9 vectors produced by pass 36 Test12= 1.32D-13 1.00D-09 XBig12= 3.83D-14 5.99D-09.
      9 vectors produced by pass 37 Test12= 1.32D-13 1.00D-09 XBig12= 2.53D-14 5.16D-09.
      9 vectors produced by pass 38 Test12= 1.32D-13 1.00D-09 XBig12= 3.18D-14 5.34D-09.
      9 vectors produced by pass 39 Test12= 1.32D-13 1.00D-09 XBig12= 1.54D-14 3.65D-09.
      9 vectors produced by pass 40 Test12= 1.32D-13 1.00D-09 XBig12= 2.95D-14 4.65D-09.
      8 vectors produced by pass 41 Test12= 1.32D-13 1.00D-09 XBig12= 1.65D-14 4.22D-09.
      7 vectors produced by pass 42 Test12= 1.32D-13 1.00D-09 XBig12= 1.43D-14 3.41D-09.
      7 vectors produced by pass 43 Test12= 1.32D-13 1.00D-09 XBig12= 2.08D-14 3.87D-09.
      7 vectors produced by pass 44 Test12= 1.32D-13 1.00D-09 XBig12= 2.18D-14 4.21D-09.
      7 vectors produced by pass 45 Test12= 1.32D-13 1.00D-09 XBig12= 1.44D-14 3.35D-09.
      7 vectors produced by pass 46 Test12= 1.32D-13 1.00D-09 XBig12= 1.52D-14 3.29D-09.
      7 vectors produced by pass 47 Test12= 1.32D-13 1.00D-09 XBig12= 1.57D-14 4.15D-09.
      7 vectors produced by pass 48 Test12= 1.32D-13 1.00D-09 XBig12= 1.26D-14 3.14D-09.
      7 vectors produced by pass 49 Test12= 1.32D-13 1.00D-09 XBig12= 1.49D-14 3.99D-09.
      7 vectors produced by pass 50 Test12= 1.32D-13 1.00D-09 XBig12= 1.36D-14 3.91D-09.
      7 vectors produced by pass 51 Test12= 1.32D-13 1.00D-09 XBig12= 1.39D-14 3.61D-09.
      7 vectors produced by pass 52 Test12= 1.32D-13 1.00D-09 XBig12= 1.53D-14 3.17D-09.
      7 vectors produced by pass 53 Test12= 1.32D-13 1.00D-09 XBig12= 1.05D-14 3.42D-09.
      7 vectors produced by pass 54 Test12= 1.32D-13 1.00D-09 XBig12= 1.26D-14 4.01D-09.
      6 vectors produced by pass 55 Test12= 1.32D-13 1.00D-09 XBig12= 1.16D-14 3.26D-09.
      6 vectors produced by pass 56 Test12= 1.32D-13 1.00D-09 XBig12= 1.53D-14 4.09D-09.
      4 vectors produced by pass 57 Test12= 1.32D-13 1.00D-09 XBig12= 8.33D-15 2.67D-09.
      4 vectors produced by pass 58 Test12= 1.32D-13 1.00D-09 XBig12= 2.67D-14 4.50D-09.
      4 vectors produced by pass 59 Test12= 1.32D-13 1.00D-09 XBig12= 1.35D-14 4.06D-09.
      4 vectors produced by pass 60 Test12= 1.32D-13 1.00D-09 XBig12= 1.17D-14 3.43D-09.
      4 vectors produced by pass 61 Test12= 1.32D-13 1.00D-09 XBig12= 2.47D-14 4.67D-09.
      4 vectors produced by pass 62 Test12= 1.32D-13 1.00D-09 XBig12= 1.30D-14 3.98D-09.
      4 vectors produced by pass 63 Test12= 1.32D-13 1.00D-09 XBig12= 1.88D-14 4.24D-09.
      4 vectors produced by pass 64 Test12= 1.32D-13 1.00D-09 XBig12= 9.47D-15 2.74D-09.
      4 vectors produced by pass 65 Test12= 1.32D-13 1.00D-09 XBig12= 3.22D-14 5.18D-09.
      4 vectors produced by pass 66 Test12= 1.32D-13 1.00D-09 XBig12= 2.09D-14 4.23D-09.
      4 vectors produced by pass 67 Test12= 1.32D-13 1.00D-09 XBig12= 7.45D-15 2.72D-09.
      4 vectors produced by pass 68 Test12= 1.32D-13 1.00D-09 XBig12= 2.19D-14 4.35D-09.
      4 vectors produced by pass 69 Test12= 1.32D-13 1.00D-09 XBig12= 8.56D-15 2.77D-09.
      4 vectors produced by pass 70 Test12= 1.32D-13 1.00D-09 XBig12= 2.00D-14 4.11D-09.
      4 vectors produced by pass 71 Test12= 1.32D-13 1.00D-09 XBig12= 1.14D-14 3.37D-09.
      4 vectors produced by pass 72 Test12= 1.32D-13 1.00D-09 XBig12= 1.31D-14 4.07D-09.
      4 vectors produced by pass 73 Test12= 1.32D-13 1.00D-09 XBig12= 2.15D-14 4.22D-09.
      4 vectors produced by pass 74 Test12= 1.32D-13 1.00D-09 XBig12= 1.20D-14 3.05D-09.
      4 vectors produced by pass 75 Test12= 1.32D-13 1.00D-09 XBig12= 1.78D-14 3.62D-09.
      4 vectors produced by pass 76 Test12= 1.32D-13 1.00D-09 XBig12= 1.43D-14 3.65D-09.
      4 vectors produced by pass 77 Test12= 1.32D-13 1.00D-09 XBig12= 2.06D-14 3.76D-09.
      4 vectors produced by pass 78 Test12= 1.32D-13 1.00D-09 XBig12= 2.09D-14 4.37D-09.
      4 vectors produced by pass 79 Test12= 1.32D-13 1.00D-09 XBig12= 1.43D-14 3.32D-09.
      4 vectors produced by pass 80 Test12= 1.32D-13 1.00D-09 XBig12= 2.41D-14 4.69D-09.
      4 vectors produced by pass 81 Test12= 1.32D-13 1.00D-09 XBig12= 2.27D-14 4.23D-09.
      4 vectors produced by pass 82 Test12= 1.32D-13 1.00D-09 XBig12= 7.24D-15 2.41D-09.
      4 vectors produced by pass 83 Test12= 1.32D-13 1.00D-09 XBig12= 1.85D-14 4.58D-09.
      4 vectors produced by pass 84 Test12= 1.32D-13 1.00D-09 XBig12= 2.54D-14 5.19D-09.
      4 vectors produced by pass 85 Test12= 1.32D-13 1.00D-09 XBig12= 1.37D-14 3.19D-09.
      4 vectors produced by pass 86 Test12= 1.32D-13 1.00D-09 XBig12= 1.02D-14 3.33D-09.
      4 vectors produced by pass 87 Test12= 1.32D-13 1.00D-09 XBig12= 1.41D-14 3.19D-09.
      4 vectors produced by pass 88 Test12= 1.32D-13 1.00D-09 XBig12= 2.01D-14 4.16D-09.
      4 vectors produced by pass 89 Test12= 1.32D-13 1.00D-09 XBig12= 1.02D-14 2.95D-09.
      4 vectors produced by pass 90 Test12= 1.32D-13 1.00D-09 XBig12= 2.01D-14 4.02D-09.
      4 vectors produced by pass 91 Test12= 1.32D-13 1.00D-09 XBig12= 3.18D-14 4.88D-09.
      4 vectors produced by pass 92 Test12= 1.32D-13 1.00D-09 XBig12= 1.44D-14 4.19D-09.
      4 vectors produced by pass 93 Test12= 1.32D-13 1.00D-09 XBig12= 2.23D-14 4.50D-09.
      3 vectors produced by pass 94 Test12= 1.32D-13 1.00D-09 XBig12= 9.97D-15 3.10D-09.
      3 vectors produced by pass 95 Test12= 1.32D-13 1.00D-09 XBig12= 2.13D-14 4.54D-09.
      3 vectors produced by pass 96 Test12= 1.32D-13 1.00D-09 XBig12= 1.85D-14 4.77D-09.
      3 vectors produced by pass 97 Test12= 1.32D-13 1.00D-09 XBig12= 2.16D-14 4.36D-09.
      3 vectors produced by pass 98 Test12= 1.32D-13 1.00D-09 XBig12= 8.23D-15 2.52D-09.
      3 vectors produced by pass 99 Test12= 1.32D-13 1.00D-09 XBig12= 1.43D-14 3.35D-09.
      3 vectors produced by pass100 Test12= 1.32D-13 1.00D-09 XBig12= 3.16D-14 5.65D-09.
      3 vectors produced by pass101 Test12= 1.32D-13 1.00D-09 XBig12= 1.64D-14 3.76D-09.
      3 vectors produced by pass102 Test12= 1.32D-13 1.00D-09 XBig12= 1.80D-14 3.69D-09.
      3 vectors produced by pass103 Test12= 1.32D-13 1.00D-09 XBig12= 2.60D-14 4.59D-09.
      3 vectors produced by pass104 Test12= 1.32D-13 1.00D-09 XBig12= 1.69D-14 3.32D-09.
      3 vectors produced by pass105 Test12= 1.32D-13 1.00D-09 XBig12= 2.62D-14 4.67D-09.
      3 vectors produced by pass106 Test12= 1.32D-13 1.00D-09 XBig12= 1.63D-14 4.08D-09.
      3 vectors produced by pass107 Test12= 1.32D-13 1.00D-09 XBig12= 9.52D-15 2.84D-09.
      3 vectors produced by pass108 Test12= 1.32D-13 1.00D-09 XBig12= 9.78D-15 2.90D-09.
      3 vectors produced by pass109 Test12= 1.32D-13 1.00D-09 XBig12= 2.96D-14 4.55D-09.
      3 vectors produced by pass110 Test12= 1.32D-13 1.00D-09 XBig12= 9.16D-15 2.70D-09.
      3 vectors produced by pass111 Test12= 1.32D-13 1.00D-09 XBig12= 1.08D-14 3.39D-09.
      3 vectors produced by pass112 Test12= 1.32D-13 1.00D-09 XBig12= 1.59D-14 3.44D-09.
      2 vectors produced by pass113 Test12= 1.32D-13 1.00D-09 XBig12= 5.88D-15 2.32D-09.
 InvSVY:  IOpt=1 It=  1 EMax= 8.88D-16
 Solved reduced A of dimension  2413 with   153 vectors.
 End of Minotr F.D. properties file   721 does not exist.
 End of Minotr F.D. properties file   722 does not exist.
 End of Minotr F.D. properties file   788 does not exist.

 **********************************************************************

            Population analysis using the SCF density.

 **********************************************************************

 Orbital symmetries:
 Alpha Orbitals:
       Occupied  (A) (A) (A) (A) (A) (A) (A) (A) (A) (A) (A) (A)
                 (A) (A) (A) (A) (A) (A) (A) (A) (A) (A) (A) (A)
                 (A) (A) (A) (A) (A) (A) (A) (A) (A) (A) (A) (A)
                 (A) (A) (A) (A) (A) (A) (A) (A) (A) (A) (A) (A)
                 (A) (A) (A) (A) (A) (A) (A) (A) (A) (A) (A) (A)
                 (A) (A) (A) (A) (A) (A) (A) (A) (A) (A) (A) (A)
                 (A) (A) (A) (A) (A) (A) (A) (A) (A) (A) (A) (A)
                 (A) (A) (A) (A) (A) (A) (A) (A) (A) (A) (A) (A)
                 (A) (A) (A) (A) (A) (A) (A) (A) (A) (A) (A) (A)
                 (A)
       Virtual   (A) (A) (A) (A) (A) (A) (A) (A) (A) (A) (A) (A)
                 (A) (A) (A) (A) (A) (A) (A) (A) (A) (A) (A) (A)
                 (A) (A) (A) (A) (A) (A) (A) (A) (A) (A) (A) (A)
                 (A) (A) (A) (A) (A) (A) (A) (A) (A) (A) (A) (A)
                 (A) (A) (A) (A) (A) (A) (A) (A) (A) (A) (A) (A)
                 (A) (A) (A) (A) (A) (A) (A) (A) (A) (A) (A) (A)
                 (A) (A) (A) (A) (A) (A) (A) (A) (A) (A) (A) (A)
                 (A) (A) (A) (A) (A) (A) (A) (A) (A) (A) (A) (A)
                 (A) (A) (A) (A) (A) (A) (A) (A) (A) (A) (A) (A)
                 (A) (A) (A) (A) (A) (A) (A) (A) (A) (A) (A) (A)
                 (A) (A) (A) (A) (A) (A) (A) (A) (A) (A) (A) (A)
                 (A) (A) (A) (A) (A) (A) (A) (A) (A) (A) (A) (A)
                 (A) (A) (A) (A) (A) (A) (A) (A) (A) (A) (A) (A)
                 (A) (A) (A) (A) (A) (A) (A) (A) (A) (A) (A) (A)
                 (A) (A) (A) (A) (A) (A) (A) (A) (A) (A) (A) (A)
                 (A) (A) (A) (A) (A) (A) (A) (A) (A) (A) (A) (A)
                 (A) (A) (A) (A) (A) (A) (A) (A) (A) (A) (A) (A)
                 (A) (A) (A) (A) (A) (A) (A) (A) (A) (A) (A) (A)
                 (A) (A) (A) (A) (A) (A) (A) (A) (A) (A) (A) (A)
                 (A) (A) (A) (A) (A) (A) (A) (A) (A) (A) (A) (A)
                 (A) (A) (A) (A) (A) (A) (A) (A) (A) (A) (A) (A)
                 (A) (A) (A) (A) (A) (A) (A) (A) (A) (A) (A) (A)
                 (A) (A) (A) (A) (A) (A) (A) (A) (A) (A) (A) (A)
                 (A) (A) (A) (A) (A) (A) (A) (A) (A) (A) (A) (A)
                 (A) (A) (A) (A) (A) (A) (A) (A) (A) (A) (A) (A)
                 (A) (A) (A) (A) (A) (A) (A) (A) (A) (A) (A) (A)
                 (A) (A) (A) (A) (A) (A) (A) (A) (A) (A) (A) (A)
                 (A) (A) (A) (A) (A) (A) (A) (A) (A) (A) (A) (A)
                 (A) (A) (A) (A) (A) (A) (A) (A) (A) (A) (A) (A)
                 (A) (A) (A) (A) (A) (A) (A) (A) (A) (A) (A) (A)
                 (A) (A) (A) (A) (A) (A) (A) (A) (A) (A) (A) (A)
                 (A) (A) (A) (A) (A) (A) (A) (A) (A) (A) (A) (A)
                 (A) (A) (A) (A) (A) (A) (A) (A) (A) (A) (A) (A)
                 (A) (A) (A) (A) (A) (A) (A) (A) (A) (A) (A) (A)
                 (A) (A) (A) (A) (A) (A) (A) (A) (A) (A) (A) (A)
                 (A) (A) (A) (A) (A) (A) (A) (A) (A) (A) (A) (A)
                 (A) (A) (A) (A) (A) (A) (A) (A) (A) (A) (A) (A)
                 (A) (A) (A) (A) (A) (A) (A) (A) (A) (A) (A) (A)
                 (A) (A) (A) (A) (A) (A) (A) (A) (A) (A) (A) (A)
                 (A) (A) (A) (A) (A) (A) (A) (A) (A) (A) (A) (A)
                 (A) (A) (A) (A) (A) (A) (A) (A) (A) (A) (A) (A)
                 (A) (A) (A) (A) (A) (A) (A) (A) (A) (A) (A) (A)
                 (A) (A) (A) (A) (A) (A) (A) (A) (A) (A) (A) (A)
                 (A) (A) (A) (A) (A) (A) (A) (A) (A) (A) (A) (A)
                 (A) (A) (A) (A) (A) (A) (A) (A) (A) (A) (A) (A)
                 (A) (A) (A) (A) (A) (A) (A) (A) (A) (A) (A) (A)
                 (A) (A) (A) (A) (A) (A) (A) (A) (A) (A) (A) (A)
                 (A) (A) (A) (A) (A) (A) (A) (A) (A) (A) (A) (A)
                 (A) (A) (A) (A) (A) (A) (A) (A) (A) (A) (A) (A)
                 (A) (A) (A) (A) (A) (A) (A) (A) (A) (A) (A) (A)
                 (A) (A) (A) (A) (A) (A) (A)
 Beta  Orbitals:
       Occupied  (A) (A) (A) (A) (A) (A) (A) (A) (A) (A) (A) (A)
                 (A) (A) (A) (A) (A) (A) (A) (A) (A) (A) (A) (A)
                 (A) (A) (A) (A) (A) (A) (A) (A) (A) (A) (A) (A)
                 (A) (A) (A) (A) (A) (A) (A) (A) (A) (A) (A) (A)
                 (A) (A) (A) (A) (A) (A) (A) (A) (A) (A) (A) (A)
                 (A) (A) (A) (A) (A) (A) (A) (A) (A) (A) (A) (A)
                 (A) (A) (A) (A) (A) (A) (A) (A) (A) (A) (A) (A)
                 (A) (A) (A) (A) (A) (A) (A) (A) (A) (A) (A) (A)
                 (A) (A) (A) (A) (A) (A) (A) (A) (A) (A) (A) (A)
       Virtual   (A) (A) (A) (A) (A) (A) (A) (A) (A) (A) (A) (A)
                 (A) (A) (A) (A) (A) (A) (A) (A) (A) (A) (A) (A)
                 (A) (A) (A) (A) (A) (A) (A) (A) (A) (A) (A) (A)
                 (A) (A) (A) (A) (A) (A) (A) (A) (A) (A) (A) (A)
                 (A) (A) (A) (A) (A) (A) (A) (A) (A) (A) (A) (A)
                 (A) (A) (A) (A) (A) (A) (A) (A) (A) (A) (A) (A)
                 (A) (A) (A) (A) (A) (A) (A) (A) (A) (A) (A) (A)
                 (A) (A) (A) (A) (A) (A) (A) (A) (A) (A) (A) (A)
                 (A) (A) (A) (A) (A) (A) (A) (A) (A) (A) (A) (A)
                 (A) (A) (A) (A) (A) (A) (A) (A) (A) (A) (A) (A)
                 (A) (A) (A) (A) (A) (A) (A) (A) (A) (A) (A) (A)
                 (A) (A) (A) (A) (A) (A) (A) (A) (A) (A) (A) (A)
                 (A) (A) (A) (A) (A) (A) (A) (A) (A) (A) (A) (A)
                 (A) (A) (A) (A) (A) (A) (A) (A) (A) (A) (A) (A)
                 (A) (A) (A) (A) (A) (A) (A) (A) (A) (A) (A) (A)
                 (A) (A) (A) (A) (A) (A) (A) (A) (A) (A) (A) (A)
                 (A) (A) (A) (A) (A) (A) (A) (A) (A) (A) (A) (A)
                 (A) (A) (A) (A) (A) (A) (A) (A) (A) (A) (A) (A)
                 (A) (A) (A) (A) (A) (A) (A) (A) (A) (A) (A) (A)
                 (A) (A) (A) (A) (A) (A) (A) (A) (A) (A) (A) (A)
                 (A) (A) (A) (A) (A) (A) (A) (A) (A) (A) (A) (A)
                 (A) (A) (A) (A) (A) (A) (A) (A) (A) (A) (A) (A)
                 (A) (A) (A) (A) (A) (A) (A) (A) (A) (A) (A) (A)
                 (A) (A) (A) (A) (A) (A) (A) (A) (A) (A) (A) (A)
                 (A) (A) (A) (A) (A) (A) (A) (A) (A) (A) (A) (A)
                 (A) (A) (A) (A) (A) (A) (A) (A) (A) (A) (A) (A)
                 (A) (A) (A) (A) (A) (A) (A) (A) (A) (A) (A) (A)
                 (A) (A) (A) (A) (A) (A) (A) (A) (A) (A) (A) (A)
                 (A) (A) (A) (A) (A) (A) (A) (A) (A) (A) (A) (A)
                 (A) (A) (A) (A) (A) (A) (A) (A) (A) (A) (A) (A)
                 (A) (A) (A) (A) (A) (A) (A) (A) (A) (A) (A) (A)
                 (A) (A) (A) (A) (A) (A) (A) (A) (A) (A) (A) (A)
                 (A) (A) (A) (A) (A) (A) (A) (A) (A) (A) (A) (A)
                 (A) (A) (A) (A) (A) (A) (A) (A) (A) (A) (A) (A)
                 (A) (A) (A) (A) (A) (A) (A) (A) (A) (A) (A) (A)
                 (A) (A) (A) (A) (A) (A) (A) (A) (A) (A) (A) (A)
                 (A) (A) (A) (A) (A) (A) (A) (A) (A) (A) (A) (A)
                 (A) (A) (A) (A) (A) (A) (A) (A) (A) (A) (A) (A)
                 (A) (A) (A) (A) (A) (A) (A) (A) (A) (A) (A) (A)
                 (A) (A) (A) (A) (A) (A) (A) (A) (A) (A) (A) (A)
                 (A) (A) (A) (A) (A) (A) (A) (A) (A) (A) (A) (A)
                 (A) (A) (A) (A) (A) (A) (A) (A) (A) (A) (A) (A)
                 (A) (A) (A) (A) (A) (A) (A) (A) (A) (A) (A) (A)
                 (A) (A) (A) (A) (A) (A) (A) (A) (A) (A) (A) (A)
                 (A) (A) (A) (A) (A) (A) (A) (A) (A) (A) (A) (A)
                 (A) (A) (A) (A) (A) (A) (A) (A) (A) (A) (A) (A)
                 (A) (A) (A) (A) (A) (A) (A) (A) (A) (A) (A) (A)
                 (A) (A) (A) (A) (A) (A) (A) (A) (A) (A) (A) (A)
                 (A) (A) (A) (A) (A) (A) (A) (A) (A) (A) (A) (A)
                 (A) (A) (A) (A) (A) (A) (A) (A) (A) (A) (A) (A)
                 (A) (A) (A) (A) (A) (A) (A) (A)
 The electronic state is 2-A.
 Alpha  occ. eigenvalues --  -19.17752 -19.17548 -19.17386 -19.17040 -19.17010
 Alpha  occ. eigenvalues --  -19.14338 -19.11122 -19.11039 -14.55376 -10.26379
 Alpha  occ. eigenvalues --  -10.26332 -10.26135 -10.25572 -10.25229 -10.25111
 Alpha  occ. eigenvalues --  -10.23600 -10.21946 -10.21003 -10.20897 -10.20122
 Alpha  occ. eigenvalues --  -10.19854 -10.19697 -10.19596 -10.19089 -10.18542
 Alpha  occ. eigenvalues --  -10.18354 -10.18275 -10.18106 -10.17792 -10.17502
 Alpha  occ. eigenvalues --   -1.24815  -1.09761  -1.08757  -1.07885  -1.07728
 Alpha  occ. eigenvalues --   -1.05490  -1.04524  -1.04097  -0.89022  -0.87082
 Alpha  occ. eigenvalues --   -0.82085  -0.81114  -0.80473  -0.77768  -0.76472
 Alpha  occ. eigenvalues --   -0.75716  -0.73375  -0.72065  -0.69963  -0.69182
 Alpha  occ. eigenvalues --   -0.66482  -0.64880  -0.63307  -0.62505  -0.60037
 Alpha  occ. eigenvalues --   -0.58955  -0.58174  -0.56481  -0.55862  -0.55469
[...]
 1,-0.00003239,0.00000620,-0.00002800,0.00000697,-0.00000138,-0.0000032
 0,-0.00001237,-0.00003598,0.00001936,0.00000053,0.00001233,-0.00001019
 ,0.00004363,0.00002234,0.00001342,-0.00000143,-0.00000269,0.00000023,-
 0.00004880,-0.00002369,-0.00001436,0.00000528,0.00000552,-0.00000390,-
 0.00001164,0.00000946,-0.00001704,0.00000905,-0.00000616,-0.00000056,-
 0.00000057,0.00000158,0.00000109,-0.00000134,0.00000117,-0.00000084,-0
 .00000048,-0.00000076,0.00000027,-0.12625378,-0.17272212,-0.05948585,0
 .00037191,0.00000910,0.00049958,0.13354465,0.18787954,0.00068249,-0.00
 122448,-0.00021686,0.00117928,-0.00046714,-0.00121321,0.00043873,0.000
 42581,0.00002151,-0.00002958,0.00007500,0.00011925,-0.00158145,0.00031
 186,-0.00145417,-0.00060445,0.00054442,0.00040061,0.00007577,0.0003127
 4,-0.00014066,-0.00006219,-0.00006164,0.00003919,-0.00012358,-0.000004
 16,0.00003774,0.00005138,-0.00004543,-0.00001047,0.00001779,0.00001064
 ,-0.00000564,0.00002086,-0.00011061,0.00002573,0.00000983,0.00000090,0
 .00001194,0.00006597,0.00011129,-0.00003872,-0.00000747,-0.00000469,0.
 00000492,-0.00007568,-0.00001740,0.00001756,0.00000788,0.00000599,-0.0
 0000083,-0.00008934,0.00011599,0.00000010,0.00004251,-0.00001368,-0.00
 002243,-0.00000749,-0.00000036,0.00000482,-0.00000478,0.00000683,0.000
 00316,-0.00000444,-0.00000107,0.00000623,0.00094370,0.00079659,-0.0004
 0635,-0.00003304,-0.00013826,0.00030122,-0.00104529,0.00279979,-0.0035
 0443,-0.00124097,-0.00012384,-0.00016707,-0.02350367,-0.02020042,-0.01
 347041,0.00114223,-0.00088903,0.00438397,-0.00006710,-0.00025107,0.000
 11775,0.00000856,0.00004218,-0.00004108,0.00005606,0.00002896,0.000008
 16,-0.00004305,-0.00000684,-0.00003629,-0.00000113,-0.00000964,0.00000
 384,-0.00001011,-0.00008143,0.00007090,0.00000416,-0.00000626,0.000043
 97,0.00006059,0.00003000,0.00001334,-0.00000527,-0.00000198,0.00000062
 ,-0.00008338,-0.00004294,-0.00001718,0.00000414,0.00001147,-0.00000531
 ,-0.00001597,0.00001877,-0.00001865,0.00001431,-0.00000896,-0.00000123
 ,-0.00000038,0.00000129,0.00000085,-0.00000146,0.00000152,-0.00000078,
 -0.00000018,-0.00000134,0.00000189,-0.04509333,-0.05459802,-0.06797687
 ,0.01360143,0.01646801,0.00844978,0.05531768,0.05618690,0.07467258,-0.
 00327782,-0.00144173,0.00159968,0.00024176,0.00010176,-0.00013967,0.00
 279981,-0.00046608,0.00067249,0.00004330,0.00102379,-0.00097491,-0.002
 09627,0.00058704,0.00091206,0.00112065,0.00099037,-0.00054885,-0.00350
 028,-0.00235854,-0.00274179,0.00109874,-0.00068633,-0.00104742,-0.0014
 3416,-0.02567942,0.00369113,-0.00028877,-0.00045857,-0.00006348,-0.000
 03289,-0.00030464,0.00040001,0.00125213,-0.00261103,-0.00161243,-0.000
 45529,0.00029267,0.00126250,0.00081379,0.00056108,-0.00032063,-0.00009
 910,-0.00005328,0.00000268,-0.00109044,-0.00029911,0.00042560,0.000134
 92,0.00009355,0.00000228,-0.00176855,0.00199599,0.00005322,0.00065181,
 -0.00020583,-0.00020993,-0.00007599,0.00000017,0.00002332,-0.00011840,
 0.00010230,0.00004862,-0.00008911,-0.00001205,0.00006725,-0.00002019,-
 0.00002111,-0.00001129,-0.00002453,-0.00001454,-0.00001089,0.00006114,
 0.00010944,0.00008472,0.00003055,-0.00002030,0.00000734,-0.00022482,-0
 .00006184,-0.00026158,0.00009231,0.00003699,0.00007152,0.00002702,0.00
 001340,0.00002098,-0.00001787,0.00000715,0.00001091,-0.00000809,0.0000
 1280,-0.00000007,0.00000268,0.00001801,0.00001515,0.00000536,-0.000014
 58,-0.00001563,0.00002497,-0.00000403,0.00003101,0.00000606,-0.0000170
 0,-0.00000593,0.00001736,0.00000182,-0.00001179,0.00000694,-0.00000655
 ,-0.00000547,-0.00001799,0.00000596,0.00000560,0.00001279,-0.00000589,
 -0.00000576,-0.00003746,0.00002805,-0.00002142,0.00003287,-0.00002591,
 -0.00000134,-0.00000163,0.00000653,0.00000359,-0.00000244,0.00000086,-
 0.00000214,-0.00000348,-0.00000024,0.00000198,-0.00014985,-0.00019234,
 0.00008546,-0.00001749,0.00004435,-0.00001374,0.00003017,-0.00002506,0
 .00000358,0.23944629,-0.00265615,-0.00114041,0.00120791,0.00020817,0.0
 0004795,-0.00009568,0.00286708,0.00008938,-0.00122798,0.00018657,-0.00
 053791,-0.00120159,-0.00233773,-0.00001658,0.00123751,0.00121791,0.001
 12340,-0.00073813,0.00005502,0.00333806,-0.00130967,-0.00146455,-0.001
 61388,0.00092164,-0.02580088,-0.01479253,0.00531128,0.00121206,0.00022
 866,-0.00074768,0.00005106,-0.00019700,0.00025863,0.00062941,-0.006409
 14,-0.00419592,-0.00029047,0.00021142,-0.00055398,0.00027550,0.0016392
 7,-0.00102212,-0.00007292,-0.00011828,-0.00004640,-0.00195837,-0.00077
 229,0.00095525,0.00008734,0.00024535,0.00016937,0.00004959,0.00133845,
 0.00051969,0.00039149,-0.00015256,0.00002830,0.00000790,-0.00000775,-0
 .00001252,-0.00016197,0.00011999,0.00003230,-0.00000457,-0.00000894,-0
 .00005584,-0.00011119,-0.00009065,-0.00002254,-0.00004704,-0.00000652,
 -0.00000034,0.00017136,0.00013413,0.00003933,0.00001922,-0.00000140,0.
 00001342,-0.00037534,-0.00003945,-0.00031533,0.00017789,0.00000285,0.0
 0007943,0.00004658,0.00003446,-0.00000211,-0.00000417,-0.00000422,0.00
 005702,-0.00002174,0.00000688,0.00001615,0.00000217,-0.00003190,0.0000
 1620,0.00000181,-0.00001483,-0.00001024,0.00001247,-0.00000266,0.00001
 667,0.00000637,-0.00000711,-0.00000251,-0.00002377,0.00001803,-0.00002
 955,0.00001092,-0.00000209,-0.00000379,0.00004182,0.00003016,0.0000081
 9,0.00000924,-0.00000877,-0.00000038,0.00000464,0.00002208,-0.00000384
 ,0.00001237,-0.00001225,-0.00000414,-0.00000104,0.00000290,0.00000380,
 -0.00000331,0.00000054,0.00000021,-0.00000320,0.00000200,-0.00000448,0
 .00009315,-0.00022250,0.00011000,0.00002066,0.00001425,-0.00002288,0.0
 0000738,-0.00001785,0.00003156,0.28703638,0.39969639,-0.00018645,-0.00
 047244,0.00038291,0.00015863,-0.00009450,0.00015433,0.00073596,0.00103
 445,-0.00203382,0.00018654,-0.00154941,0.00015289,-0.00097359,-0.00058
 015,0.00050141,0.00047312,0.00029582,-0.00027495,-0.00127678,0.0005259
 5,-0.00084173,0.00005310,-0.00127367,0.00052178,-0.01150179,-0.0118312
 5,0.01018905,0.00085105,-0.00063703,-0.00012329,-0.00006065,-0.0002852
 6,0.00015069,-0.00137156,-0.00452448,-0.00192660,0.00021562,-0.0015554
 7,0.00366046,-0.00048159,0.00231524,0.00000828,-0.00005162,-0.00007623
 ,-0.00004735,-0.00105750,-0.00072926,0.00046329,-0.00008043,0.00007598
 ,0.00001438,-0.00072831,0.00046581,0.00022560,0.00036883,-0.00017703,-
 0.00051010,-0.00008036,0.00000083,0.00009771,-0.00005173,0.00005253,0.
 00003829,-0.00011338,-0.00002790,0.00012915,-0.00005272,-0.00004903,-0
 .00000550,-0.00003474,-0.00000565,0.00000886,0.00008482,0.00006800,0.0
 0002979,0.00002474,-0.00000191,0.00001720,-0.00019181,0.00006989,-0.00
 039962,0.00006863,-0.00010083,0.00019410,0.00003451,0.00001214,0.00000
 843,-0.00000768,-0.00001152,0.00001442,-0.00000362,0.00001433,-0.00001
 302,0.00001254,-0.00001483,0.00001728,-0.00000228,-0.00000080,0.000004
 76,-0.00000230,0.00002210,-0.00003113,0.00000021,-0.00000597,-0.000002
 36,-0.00002864,-0.00000781,-0.00001252,0.00000011,0.00000117,-0.000000
 23,0.00003913,0.00002024,0.00001353,-0.00000258,-0.00000470,0.00000022
 ,0.00001950,-0.00001053,0.00003398,-0.00000642,0.00000360,-0.00000282,
 0.00000131,-0.00000010,-0.00000163,0.00000244,-0.00000045,0.00000256,-
 0.00000180,-0.00000037,-0.00000160,0.00035344,-0.00016330,0.00006043,0
 .00005656,-0.00004912,-0.00000993,-0.00001494,0.00001484,0.00002843,-0
 .08670316,-0.12424007,0.16314413,-0.00128418,-0.00077621,0.00062074,0.
 00009375,0.00000177,-0.00003239,0.00111076,-0.00003845,-0.00053219,0.0
 0001996,-0.00008335,-0.00023339,-0.00111444,0.00000295,0.00047191,0.00
 055457,0.00050664,-0.00029584,-0.00008953,-0.00159867,-0.00180312,0.00
 092351,-0.00000321,-0.00028095,0.01428581,0.00155288,-0.00812186,-0.00
 088596,0.00073591,-0.00001693,0.00007769,-0.00006948,0.00019012,0.0014
 0119,0.00099428,-0.00081322,-0.00054112,-0.00150541,-0.00319876,0.0011
 6203,-0.00078863,-0.00145975,-0.00005969,-0.00006266,0.00002927,-0.000
 70893,0.00006267,0.00040249,0.00009450,0.00006842,-0.00012337,-0.00079
 733,0.00011877,-0.00019048,0.00061554,-0.00019608,-0.00013821,-0.00008
 993,-0.00001091,-0.00000913,-0.00005235,0.00007017,0.00001339,0.000036
 85,0.00000240,-0.00007156,-0.00000734,-0.00001364,-0.00000273,-0.00001
 752,-0.00000823,-0.00000198,0.00003000,0.00005857,0.00004856,0.0000241
 5,-0.00001202,0.00000694,-0.00010951,0.00000911,-0.00024863,0.00002782
 ,-0.00001854,0.00010901,0.00001211,0.00000839,0.00001544,-0.00000977,-
 0.00000027,0.00000183,-0.00000343,0.00001056,-0.00000520,0.00000282,0.
 00001169,0.00001065,0.00000209,-0.00000694,-0.00000633,0.00001155,0.00
 000285,0.00000711,0.00000245,-0.00001104,-0.00000370,0.00000924,-0.000
 00100,-0.00000572,0.00000293,-0.00000275,-0.00000290,-0.00000852,0.000
 00252,0.00000604,0.00000650,-0.00000247,-0.00000387,-0.00001856,0.0000
 1068,-0.00000260,0.00001634,-0.00001235,-0.00000121,-0.00000049,0.0000
 0300,0.00000116,-0.00000003,0.00000025,-0.00000013,-0.00000170,-0.0000
 0077,0.00000165,0.00007101,-0.00013298,0.00007809,0.00000954,0.0000007
 5,-0.00000590,0.00001158,0.00000042,0.00000858,-0.00089747,-0.03560607
 ,0.06122861,0.07969049,-0.00084886,0.00007679,0.00043462,0.00006580,0.
 00003659,-0.00013149,0.00081552,-0.00041732,0.00040630,0.00003072,0.00
 014834,-0.00075708,-0.00066338,0.00028548,0.00036653,0.00038119,0.0003
 2166,-0.00020199,-0.00026807,0.00189913,-0.00028235,-0.00004032,0.0002
 6829,0.00008343,-0.00015985,0.01467056,-0.00718321,-0.00013970,0.00139
 592,-0.00055178,0.00004764,-0.00005717,-0.00001556,-0.00056193,-0.0005
 9520,-0.00190350,-0.00204821,-0.00126648,-0.00376523,0.00086319,-0.000
 85683,-0.00089458,-0.00005597,-0.00006849,-0.00002160,-0.00121708,-0.0
 0004124,0.00058777,0.00006197,0.00014417,0.00001833,0.00058619,-0.0005
 2594,0.00049050,-0.00007013,-0.00009480,-0.00008613,-0.00000382,-0.000
 01021,0.00002669,-0.00003199,0.00003012,-0.00001694,-0.00000578,-0.000
 02265,-0.00002133,-0.00005946,-0.00004792,-0.00000388,-0.00001237,-0.0
 0000064,-0.00000152,0.00007609,0.00005570,0.00001235,-0.00000259,0.000
 00183,0.00000189,-0.00017382,-0.00008035,0.00002519,0.00011171,0.00005
 555,-0.00007111,0.00003167,0.00001385,-0.00000467,-0.00000884,-0.00000
 264,0.00002599,-0.00001232,-0.00000112,0.00000294,0.00000748,-0.000003
 35,0.00000237,0.00000184,-0.00000589,-0.00000542,0.00000542,0.00000467
 ,0.00000215,0.00000236,0.00000079,-0.00000292,-0.00000997,-0.00000322,
 0.00000010,0.00000507,-0.00000135,-0.00000136,0.00002078,0.00001899,0.
 00000341,0.00000215,-0.00000864,0.00000152,0.00000169,0.00000977,-0.00
 000555,0.00000319,-0.00000680,-0.00000085,-0.00000082,0.00000166,0.000
 00263,-0.00000230,0.,-0.00000127,-0.00000054,0.00000173,-0.00000193,-0
 .00009662,-0.00002883,0.00000364,-0.00000912,0.00002220,-0.00001109,0.
 00001036,-0.00001391,0.00000566,-0.03225187,-0.02992313,0.08209530,0.0
 7826730,0.14086964,-0.00058687,-0.00167098,0.00051131,0.00017572,-0.00
 012128,-0.00012182,0.00109664,0.00066163,-0.00132389,-0.00018933,-0.00
 021409,0.00088929,-0.00178101,-0.00026786,0.00084445,0.00087446,0.0005
 1148,-0.00049673,-0.00157052,0.00281491,-0.00078268,0.00042145,-0.0014
 6179,0.00009869,0.00269667,0.01142147,-0.03702090,0.00085780,-0.001417
 91,-0.00033051,0.00000873,-0.00034295,0.00031847,0.00418220,-0.0045897
 5,-0.00099226,-0.00350488,-0.00450218,-0.00569132,0.00081683,0.0037373
 8,-0.00047068,-0.00009430,-0.00011656,0.00005592,-0.00225173,-0.000966
 84,0.00075111,0.00001197,0.00019626,-0.00010397,-0.00240974,0.00346062
 ,0.00081470,0.00069426,-0.00033067,-0.00102223,-0.00014832,0.00002055,
 0.00024600,-0.00014013,0.00010186,0.00008267,-0.00034946,-0.00006863,0
 .00036133,-0.00005423,-0.00005613,-0.00002153,-0.00005792,-0.00000553,
 0.00001639,0.00010212,0.00009170,0.00004071,0.00004670,-0.00000459,0.0
 0002967,-0.00022844,0.00019299,-0.00069212,0.00002586,-0.00020169,0.00
 038803,0.00003581,0.00001781,0.00001605,0.00000082,-0.00001531,0.00001
 311,-0.00000054,0.00002356,-0.00001445,0.00000818,-0.00003426,0.000030
 42,-0.00000359,-0.00000060,0.00001288,-0.00000978,0.00003324,-0.000047
 18,0.00000171,-0.00001136,-0.00000312,-0.00005015,-0.00000438,-0.00003
 689,-0.00000258,0.00000137,0.00000039,0.00005988,0.00002280,0.00002176
 ,-0.00000494,-0.00000087,-0.00000221,0.00003589,-0.00002184,0.00006594
 ,-0.00001066,0.00000886,-0.00000545,0.00000259,-0.00000035,-0.00000449
 ,0.00000516,-0.00000043,0.00000533,-0.00000372,-0.00000163,-0.00000290
 ,0.00041779,-0.00034651,0.00016768,0.00006125,-0.00003409,-0.00001142,
 -0.00001160,0.00002384,0.00003736,0.04824161,0.06933679,-0.03496954,-0
 .08792385,-0.17080971,0.58451279,0.00068904,0.00362795,0.00043917,-0.0
 0068612,-0.00022237,-0.00003601,-0.00125342,0.00157737,-0.00082836,-0.
 00013624,-0.00026668,0.00187619,0.00109214,-0.00041440,-0.00049141,-0.
 00068805,-0.00070597,0.00033915,0.01612767,-0.00080901,0.00988277,-0.0
 0427951,0.00182826,0.00245339,-0.05692344,0.02876529,0.01295160,0.0018
 7702,-0.00130254,0.00004357,-0.00000714,0.00049959,-0.00113736,-0.0415
 6982,-0.02301035,-0.01871226,-0.00049936,-0.00211752,0.00055208,-0.002
 25028,0.00575294,-0.00309819,0.00021573,0.00006061,-0.00020907,-0.0001
 8350,-0.00057027,0.00088250,-0.00014448,0.00014080,0.00060032,0.006649
 26,-0.00532587,0.00034894,-0.00204478,0.00098995,0.00136355,0.00059870
 ,-0.00013361,-0.00021350,0.00027410,-0.00021027,-0.00010517,0.00013629
 ,-0.00000239,-0.00018506,-0.00000066,0.00001028,0.00001396,0.00001134,
 0.00001874,0.00001316,-0.00004920,-0.00012918,-0.00008242,-0.00003384,
 0.00002557,-0.00000257,0.00024251,0.00016858,0.00013318,-0.00017969,-0
 .00009746,-0.00002920,-0.00001033,-0.00002034,-0.00000747,0.00000935,-
 0.00001837,-0.00001853,0.00000926,-0.00000878,-0.00001491,0.00000959,-
 0.00001002,-0.00000536,-0.00000833,0.00001805,0.00001785,-0.00002074,0
 .00001841,-0.00005088,-0.00000954,0.00002094,0.00000668,-0.00003806,-0
 .00002123,0.00001290,-0.00000711,0.00000839,0.00000569,0.00003832,0.00
 000371,-0.00000059,-0.00001787,0.00000416,0.00000804,0.00004792,-0.000
 03877,0.00003052,-0.00004420,0.00003352,0.00000294,0.00000214,-0.00000
 780,-0.00000499,0.00000367,-0.00000199,0.00000244,0.00000484,0.0000005
 0,-0.00000183,0.00017075,0.00011208,-0.00001847,-0.00000212,-0.0000464
 4,-0.00000488,-0.00002368,-0.00002613,-0.00002273,-0.23220305,-0.22396
 906,0.04009906,-0.09360900,-0.04264360,0.04050619,0.40871393,-0.002293
 51,-0.00023260,0.00108689,-0.00028479,0.00007241,0.00140498,-0.0004179
 4,0.00258242,-0.00276948,0.00019366,-0.00050453,0.00176567,0.00056721,
 -0.00076426,-0.00046293,-0.00049820,-0.00036579,0.00021345,0.00006962,
 -0.03600443,-0.02247002,0.00141108,0.00138882,-0.00254344,0.02332741,-
 0.03869780,0.01831857,0.00085457,-0.00552943,0.00150740,0.00008805,0.0
 0030566,0.00034473,-0.02381947,-0.00500910,0.00363509,0.00584588,0.004
 88425,0.01273225,-0.00099769,0.00698632,-0.00113300,0.00011021,0.00016
 119,-0.00009895,0.00311524,0.00021558,-0.00128043,-0.00010097,-0.00037
 848,-0.00004320,0.00137924,0.00101830,-0.00099801,-0.00019378,0.000412
 78,0.00027526,0.00010937,-0.00007104,-0.00007965,0.00019275,-0.0001363
 8,-0.00003856,-0.00000250,-0.00005091,0.00006099,0.00007612,0.00004002
 ,0.00005365,0.00001260,0.00000528,0.00001000,-0.00010161,-0.00007715,0
 .00000062,-0.00000762,0.00000556,0.00000464,0.00030938,0.00016226,-0.0
 0015792,-0.00022757,-0.00015230,0.00011972,0.00000055,-0.00003446,0.00
 006685,-0.00002840,-0.00003530,-0.00008837,0.00002226,0.00001010,-0.00
 007482,0.00003508,0.00007443,0.00002828,-0.00000927,0.00001882,0.00001
 203,0.00001150,0.00005323,-0.00008100,-0.00001728,0.00000644,0.0000015
 6,-0.00004105,-0.00008595,0.00002088,-0.00000855,0.00000756,0.00000112
 ,0.00001803,0.00000037,0.00001771,-0.00001951,0.00000480,0.00000095,0.
 00001103,-0.00004768,0.00003878,-0.00003520,0.00002683,0.00000720,0.00
 000329,-0.00000474,-0.00000726,0.00000854,-0.00000511,0.00000321,0.000
 00735,-0.00000320,0.00000744,0.00025609,0.00002375,0.00008781,0.000011
 54,-0.00006685,0.00000399,-0.00001410,-0.00000923,-0.00003348,-0.22583
 258,-0.35219403,0.06139286,-0.04154082,-0.12624936,0.09494167,0.258444
 75,0.54824293,-0.00349939,0.00089704,0.00163948,-0.00063517,0.00030637
 ,0.00059294,0.00013770,-0.00012054,0.00090141,0.00069867,0.00060967,-0
 .00207547,0.00166867,0.00057809,-0.00086291,-0.00090961,-0.00036727,0.
 00045667,0.01363609,-0.02567888,-0.00488411,-0.00037474,0.00598122,-0.
 00250532,0.02742078,0.03879892,-0.03724098,-0.00148036,-0.00047747,0.0
 0113780,0.00028013,0.00105754,-0.00086837,-0.02349104,0.00397303,0.012
 38693,-0.01549995,-0.01620390,-0.03213688,0.00195563,0.00003012,-0.003
 32996,0.00021589,0.00022891,0.00004382,0.00268811,0.00170029,-0.001203
 96,0.00023486,-0.00017192,0.00001071,0.00563056,-0.00400041,-0.0017856
 8,-0.00137914,0.00086806,0.00208569,0.00048191,-0.00009575,-0.00048010
 ,0.00024985,-0.00018407,-0.00020382,0.00063795,0.00002697,-0.00065013,
 0.00007091,0.00006224,0.00004507,0.00006981,0.00001091,-0.00002397,-0.
 00013523,-0.00011651,-0.00002943,-0.00006345,0.00000482,-0.00003654,0.
 00035004,-0.00021625,0.00082437,-0.00011677,0.00023993,-0.00049369,-0.
 00002609,-0.00002504,0.00002676,-0.00001943,0.00000262,-0.00005328,-0.
 00000238,-0.00002539,-0.00000644,0.00000522,0.00008989,-0.00002113,0.0
 0000466,0.00000106,-0.00001608,0.00003451,-0.00001556,0.00003957,-0.00
 000381,0.00001816,-0.00000189,0.00003770,-0.00004116,0.00004700,0.0000
 0386,-0.00000373,-0.00000178,-0.00006341,-0.00001862,-0.00001793,0.000
 00130,-0.00000326,0.00000166,-0.00005563,0.00002054,-0.00007960,0.0000
 1326,-0.00001295,0.00001240,-0.00000320,0.00000278,0.00000493,-0.00000
 579,-0.00000120,-0.00000934,0.00000654,0.00000173,0.00000629,-0.000636
 25,0.00042379,-0.00007565,-0.00011300,0.00006863,0.00000456,0.00001449
 ,-0.00007151,-0.00007875,0.03698502,0.05549904,-0.13906064,0.04228430,
 0.10215473,-0.50616419,-0.08730460,-0.16580571,0.71412996\\-0.00004730
 ,-0.00002722,-0.00001729,0.00003973,0.00004381,0.00000028,0.00000571,-
 0.00000732,0.00003814,-0.00006865,-0.00004485,-0.00001817,0.00004334,0
 .00004666,-0.00003561,-0.00005842,0.00006709,-0.00000320,-0.00000535,-
 0.00001617,-0.00000386,0.00000460,-0.00002081,-0.00000808,-0.00000440,
 0.00001047,0.00001588,0.00002530,0.00001486,0.00002948,-0.00002433,0.0
 0001007,0.00001557,0.00000445,0.00004248,-0.00002444,0.00005380,0.0000
 5685,-0.00000956,-0.00004496,-0.00004045,0.00001385,0.00001401,0.00004
 047,-0.00006538,-0.00005090,-0.00003800,0.00003825,0.00001154,0.000014
 69,-0.00001077,0.00003609,-0.00005068,0.00002041,0.00001296,-0.0000218
 8,-0.00001697,0.00001049,-0.00001916,0.00001678,0.00000528,0.00000880,
 0.00002309,0.00001433,0.00001138,-0.00001597,-0.00006483,-0.00001921,0
 .00001413,0.00001060,0.00002713,0.00008196,0.00000614,0.00002481,0.000
 01521,0.00006174,-0.00001013,0.00002479,-0.00008252,-0.00007102,0.0000
 1170,0.00003929,0.00005948,-0.00006966,-0.00000729,-0.00000580,-0.0000
 1074,-0.00001811,0.00001460,0.00000449,0.00001538,0.00001942,-0.000038
 79,-0.00004896,0.00000391,-0.00002478,0.00004328,-0.00000308,-0.000019
 31,0.00001385,-0.00003004,0.00002088,-0.00004666,0.00005132,0.00001152
 ,0.00003877,0.00004503,-0.00001272,-0.00001456,-0.00001650,-0.00007118
 ,0.00000249,0.00001358,0.00008564,-0.00001540,-0.00000860,0.00000406,0
 .00000041,-0.00002815,-0.00000476,-0.00002117,0.00001099,0.00000797,0.
 00001444,-0.00000750,0.00000531,-0.00000204,-0.00000371,-0.00001026,0.
 00001536,-0.00002209,-0.00001720,0.00001229,0.00000220,-0.00000965,0.0
 0006135,-0.00007040,-0.00001965,-0.00001730,-0.00005454,-0.00001479,0.
 00000168,-0.00004345,0.00005052,-0.00000704,0.00002547,0.00000242,0.00
 003148,0.00001520,0.00000048\\\@


 ...THE PHYSICISTS HAVE MADE THEIR UNIVERSE, AND IF YOU DO NOT LIKE
 IT, YOU MUST MAKE YOUR OWN.
                               -- E. R. HARRISON IN "COSMOLOGY" (1980)
 Job cpu time:       0 days 23 hours  9 minutes 36.8 seconds.
 Elapsed time:       0 days 23 hours 11 minutes 45.8 seconds.
 File lengths (MBytes):  RWF=   9600 Int=      0 D2E=      0 Chk=     88 Scr=      1
 Normal termination of Gaussian 16 at Sat Nov 16 17:07:26 2024.
