 Entering Gaussian System, Link 0=g16
 Initial command:
 /sw/cluster/pub/apps//g16/l1.exe "/data/natrosa/25584/Gau-1747634.inp" -scrdir="/data/natrosa/25584/"
 Entering Link 1 = /sw/cluster/pub/apps//g16/l1.exe PID=   1747635.
  
 Copyright (c) 1988,1990,1992,1993,1995,1998,2003,2009,2016,
            Gaussian, Inc.  All Rights Reserved.
  
 This is part of the Gaussian(R) 16 program.  It is based on
 the Gaussian(R) 09 system (copyright 2009, Gaussian, Inc.),
 the Gaussian(R) 03 system (copyright 2003, Gaussian, Inc.),
 the Gaussian(R) 98 system (copyright 1998, Gaussian, Inc.),
 the Gaussian(R) 94 system (copyright 1995, Gaussian, Inc.),
 the Gaussian 92(TM) system (copyright 1992, Gaussian, Inc.),
 the Gaussian 90(TM) system (copyright 1990, Gaussian, Inc.),
 the Gaussian 88(TM) system (copyright 1988, Gaussian, Inc.),
 the Gaussian 86(TM) system (copyright 1986, Carnegie Mellon
 University), and the Gaussian 82(TM) system (copyright 1983,
 Carnegie Mellon University). Gaussian is a federally registered
 trademark of Gaussian, Inc.
  
 This software contains proprietary and confidential information,
 including trade secrets, belonging to Gaussian, Inc.
  
 This software is provided under written license and may be
 used, copied, transmitted, or stored only in accord with that
 written license.
  
 The following legend is applicable only to US Government
 contracts under FAR:
  
                    RESTRICTED RIGHTS LEGEND
  
 Use, reproduction and disclosure by the US Government is
 subject to restrictions as set forth in subparagraphs (a)
 and (c) of the Commercial Computer Software - Restricted
 Rights clause in FAR 52.227-19.
  
 Gaussian, Inc.
 340 Quinnipiac St., Bldg. 40, Wallingford CT 06492
  
  
 ---------------------------------------------------------------
 Warning -- This program may not be used in any manner that
 competes with the business of Gaussian, Inc. or will provide
 assistance to any competitor of Gaussian, Inc.  The licensee
 of this program is prohibited from giving any competitor of
 Gaussian, Inc. access to this program.  By using this program,
 the user acknowledges that Gaussian, Inc. is engaged in the
 business of creating and licensing software in the field of
 computational chemistry and represents and warrants to the
 licensee that it is not a competitor of Gaussian, Inc. and that
 it will not use this program in any manner prohibited above.
 ---------------------------------------------------------------
  

 Cite this work as:
 Gaussian 16, Revision A.03,
 M. J. Frisch, G. W. Trucks, H. B. Schlegel, G. E. Scuseria, 
 M. A. Robb, J. R. Cheeseman, G. Scalmani, V. Barone, 
 G. A. Petersson, H. Nakatsuji, X. Li, M. Caricato, A. V. Marenich, 
 J. Bloino, B. G. Janesko, R. Gomperts, B. Mennucci, H. P. Hratchian, 
 J. V. Ortiz, A. F. Izmaylov, J. L. Sonnenberg, D. Williams-Young, 
 F. Ding, F. Lipparini, F. Egidi, J. Goings, B. Peng, A. Petrone, 
 T. Henderson, D. Ranasinghe, V. G. Zakrzewski, J. Gao, N. Rega, 
 G. Zheng, W. Liang, M. Hada, M. Ehara, K. Toyota, R. Fukuda, 
 J. Hasegawa, M. Ishida, T. Nakajima, Y. Honda, O. Kitao, H. Nakai, 
 T. Vreven, K. Throssell, J. A. Montgomery, Jr., J. E. Peralta, 
 F. Ogliaro, M. J. Bearpark, J. J. Heyd, E. N. Brothers, K. N. Kudin, 
 V. N. Staroverov, T. A. Keith, R. Kobayashi, J. Normand, 
 K. Raghavachari, A. P. Rendell, J. C. Burant, S. S. Iyengar, 
 J. Tomasi, M. Cossi, J. M. Millam, M. Klene, C. Adamo, R. Cammi, 
 J. W. Ochterski, R. L. Martin, K. Morokuma, O. Farkas, 
 J. B. Foresman, and D. J. Fox, Gaussian, Inc., Wallingford CT, 2016.
 
 ******************************************
 Gaussian 16:  ES64L-G16RevA.03 25-Dec-2016
                13-Nov-2024 
 ******************************************
 %oldchk=/home/natrosa/MOSSRI/REACAO-1/B3LYP-6-311+G-D/CURCUMIN-OPT-FREQ-Prod-1-B
 3LYP-6-311G-D-298.chk
 %chk=CURCUMIN-OPT-FREQ-Prod-1-B3LYP-6-311+G-D-298.chk
 Copying data from "/home/natrosa/MOSSRI/REACAO-1/B3LYP-6-311+G-D/CURCUMIN-OPT-FREQ-Prod-1-B3LYP-6-311G-D-298.chk" to current chk file "CURCUMIN-OPT-FREQ-Prod-1-B3LYP-6-311+G-D-298.chk"
 IOpt=  2 FromEx=T IUOpen= 4 IOptOp= 5 NList=   0 IFRang= 0 IUIn= 4 IUOut= 2.
 ----------------------------------------------------------------------
 # opt=(calcfc) freq=noraman b3lyp/6-311+g(d) scrf=(smd,solvent=generic
 ,read) temperature=298.15 Geom=Check Guess=Read
 ----------------------------------------------------------------------
 1/10=4,18=20,19=15,26=3,29=2,38=1,40=2,112=298150/1,3;
 2/9=110,12=2,40=1/2;
 3/5=4,6=6,7=11,11=2,14=-4,25=1,30=1,70=32203,71=2,72=-2,74=-5,116=-2,140=1/1,2,3;
 4/5=1/1;
 5/5=2,38=6/2;
 8/6=4,10=90,11=11/1;
 11/6=1,8=1,9=11,15=111,16=1/1,2,10;
 10/6=1,13=1/2;
 6/7=2,8=2,9=2,10=2,28=1/1;
 7/10=1,18=20,25=1/1,2,3,16;
 1/10=4,18=20,19=15,26=3/3(2);
 2/9=110/2;
 99//99;
 2/9=110/2;
 3/5=4,6=6,7=11,11=2,14=-2,25=1,30=1,70=32205,71=1,72=-2,74=-5/1,2,3;
 4/5=5,16=3,69=1/1;
 5/5=2,38=5/2;
 7//1,2,3,16;
 1/18=20,19=15,26=3/3(-5);
 2/9=110/2;
 6/7=2,8=2,9=2,10=2,19=2,28=1/1;
 99/9=1/99;
 ----------
 Reagente 1
 ----------
 Structure from the checkpoint file:  "CURCUMIN-OPT-FREQ-Prod-1-B3LYP-6-311+G-D-298.chk"
 Charge =  0 Multiplicity = 2
 Redundant internal coordinates found in file.  (old form).
 C,0,2.2181617273,0.8320274486,0.7725790665
 H,0,1.7735181912,1.822833046,0.7668367742
 C,0,1.5086857038,-0.1724405186,1.3238953008
 H,0,1.8748146781,-1.190505174,1.3878341691
 C,0,0.1640487977,-0.0242842969,1.9069899842
 O,0,-0.4291667953,-1.0115558259,2.3165522901
 C,0,3.5480968344,0.8071953824,0.1675849433
 C,0,4.1996905706,2.0381671287,-0.0187913339
 C,0,4.2795042264,-0.3274996848,-0.2296974225
 C,0,5.4795163185,2.1287286554,-0.5461221245
 H,0,3.6817830578,2.9469594312,0.2660648834
 C,0,5.556860241,-0.279320159,-0.772127843
 H,0,5.3134994133,-1.8455552015,4.1502930163
 C,0,6.1710339082,0.9800436895,-0.9275659438
 H,0,5.9441821694,3.1016857136,-0.6772792712
 O,0,7.4078909929,0.9978491726,-1.4740408
 H,0,7.7245685155,1.9097674773,-1.547182346
 O,0,6.1311997835,-1.4310349321,-1.2123298273
 C,0,7.2788515138,-1.8925867083,-0.4677288662
 H,0,7.0193069901,-2.0289477396,0.5846378647
 H,0,7.5459883734,-2.8526273927,-0.9059555195
 H,0,8.1133900826,-1.1975391542,-0.5645985272
 C,0,-3.1542571501,0.4832718529,0.8986665002
 H,0,-2.7588525747,0.0234509515,1.8000502896
 C,0,-2.4051943619,1.4128659806,0.2667340182
 H,0,-2.7445172959,1.8815663521,-0.6526814425
 C,0,-1.0840379216,1.8740293292,0.6984507677
 O,0,-0.4561701797,2.6757583898,0.0179874361
 C,0,-4.4620172726,-0.0144279241,0.495244388
 C,0,-5.0809398606,-1.0035137965,1.2759244265
 C,0,-5.1514277559,0.4543665399,-0.6406510478
 C,0,-6.3274425637,-1.5118378911,0.9333571322
 H,0,-4.5757652506,-1.3839753447,2.1575681314
 C,0,-6.3935044356,-0.0423959643,-0.9948698798
 H,0,-4.7211210292,1.2155201277,-1.2813665789
 C,0,-6.9926620071,-1.046648828,-0.2013986102
 H,0,-6.7879421877,-2.2851073399,1.5426616138
 O,0,-8.1990058283,-1.5251644967,-0.5976374739
 H,0,-8.4981703407,-2.2078004989,0.019566559
 O,0,-6.9883004235,0.4031615804,-2.1454524736
 C,0,-8.1769177365,1.189653456,-1.9688366608
 H,0,-7.9678867225,2.0727689256,-1.3561846429
 H,0,-8.4793666463,1.5067617333,-2.9664945205
 H,0,-8.9796339168,0.6063906134,-1.5142296461
 C,0,-0.482586496,1.3608101904,2.0162423411
 H,0,-1.2494441851,1.2895126172,2.7870490601
 H,0,0.2530469659,2.0998599082,2.3335478332
 O,0,4.0715116962,-2.4102124992,0.7574508994
 O,0,2.8802997238,-1.9915187812,-1.0079064546
 N,0,3.6951564627,-1.6869455412,-0.1540514326
 Recover connectivity data from disk.

 GradGradGradGradGradGradGradGradGradGradGradGradGradGradGradGradGradGrad
 Berny optimization.
 Initialization pass.
                           ----------------------------
                           !    Initial Parameters    !
                           ! (Angstroms and Degrees)  !
 --------------------------                            --------------------------
 ! Name  Definition              Value          Derivative Info.                !
 --------------------------------------------------------------------------------
 ! R1    R(1,2)                  1.086          calculate D2E/DX2 analytically  !
 ! R2    R(1,3)                  1.3477         calculate D2E/DX2 analytically  !
 ! R3    R(1,7)                  1.4613         calculate D2E/DX2 analytically  !
 ! R4    R(3,4)                  1.0838         calculate D2E/DX2 analytically  !
 ! R5    R(3,5)                  1.4731         calculate D2E/DX2 analytically  !
 ! R6    R(5,6)                  1.2224         calculate D2E/DX2 analytically  !
 ! R7    R(5,45)                 1.5325         calculate D2E/DX2 analytically  !
 ! R8    R(7,8)                  1.4052         calculate D2E/DX2 analytically  !
 ! R9    R(7,9)                  1.4072         calculate D2E/DX2 analytically  !
 ! R10   R(8,10)                 1.3872         calculate D2E/DX2 analytically  !
 ! R11   R(8,11)                 1.0841         calculate D2E/DX2 analytically  !
 ! R12   R(9,12)                 1.3886         calculate D2E/DX2 analytically  !
 ! R13   R(9,50)                 1.4816         calculate D2E/DX2 analytically  !
 ! R14   R(10,14)                1.394          calculate D2E/DX2 analytically  !
 ! R15   R(10,15)                1.0862         calculate D2E/DX2 analytically  !
 ! R16   R(12,14)                1.4097         calculate D2E/DX2 analytically  !
 ! R17   R(12,18)                1.3602         calculate D2E/DX2 analytically  !
 ! R18   R(13,20)                3.9569         calculate D2E/DX2 analytically  !
 ! R19   R(13,48)                3.6569         calculate D2E/DX2 analytically  !
 ! R20   R(14,16)                1.3523         calculate D2E/DX2 analytically  !
 ! R21   R(16,17)                0.9681         calculate D2E/DX2 analytically  !
 ! R22   R(18,19)                1.4438         calculate D2E/DX2 analytically  !
 ! R23   R(19,20)                1.0924         calculate D2E/DX2 analytically  !
 ! R24   R(19,21)                1.0886         calculate D2E/DX2 analytically  !
 ! R25   R(19,22)                1.0904         calculate D2E/DX2 analytically  !
 ! R26   R(23,24)                1.0864         calculate D2E/DX2 analytically  !
 ! R27   R(23,25)                1.3508         calculate D2E/DX2 analytically  !
 ! R28   R(23,29)                1.4563         calculate D2E/DX2 analytically  !
 ! R29   R(25,26)                1.0863         calculate D2E/DX2 analytically  !
 ! R30   R(25,27)                1.4644         calculate D2E/DX2 analytically  !
 ! R31   R(27,28)                1.2248         calculate D2E/DX2 analytically  !
 ! R32   R(27,45)                1.5368         calculate D2E/DX2 analytically  !
 ! R33   R(29,30)                1.4039         calculate D2E/DX2 analytically  !
 ! R34   R(29,31)                1.409          calculate D2E/DX2 analytically  !
 ! R35   R(30,32)                1.3891         calculate D2E/DX2 analytically  !
 ! R36   R(30,33)                1.085          calculate D2E/DX2 analytically  !
 ! R37   R(31,34)                1.3838         calculate D2E/DX2 analytically  !
 ! R38   R(31,35)                1.084          calculate D2E/DX2 analytically  !
 ! R39   R(32,36)                1.3952         calculate D2E/DX2 analytically  !
 ! R40   R(32,37)                1.0869         calculate D2E/DX2 analytically  !
 ! R41   R(34,36)                1.4132         calculate D2E/DX2 analytically  !
 ! R42   R(34,40)                1.3697         calculate D2E/DX2 analytically  !
 ! R43   R(36,38)                1.3569         calculate D2E/DX2 analytically  !
 ! R44   R(38,39)                0.9677         calculate D2E/DX2 analytically  !
 ! R45   R(40,41)                1.4362         calculate D2E/DX2 analytically  !
 ! R46   R(41,42)                1.095          calculate D2E/DX2 analytically  !
 ! R47   R(41,43)                1.0897         calculate D2E/DX2 analytically  !
 ! R48   R(41,44)                1.0914         calculate D2E/DX2 analytically  !
 ! R49   R(45,46)                1.0896         calculate D2E/DX2 analytically  !
 ! R50   R(45,47)                1.09           calculate D2E/DX2 analytically  !
 ! R51   R(48,50)                1.2229         calculate D2E/DX2 analytically  !
 ! R52   R(49,50)                1.2189         calculate D2E/DX2 analytically  !
 ! A1    A(2,1,3)              117.8144         calculate D2E/DX2 analytically  !
 ! A2    A(2,1,7)              112.7019         calculate D2E/DX2 analytically  !
 ! A3    A(3,1,7)              129.4808         calculate D2E/DX2 analytically  !
 ! A4    A(1,3,4)              123.1217         calculate D2E/DX2 analytically  !
 ! A5    A(1,3,5)              124.5761         calculate D2E/DX2 analytically  !
 ! A6    A(4,3,5)              112.302          calculate D2E/DX2 analytically  !
 ! A7    A(3,5,6)              119.6268         calculate D2E/DX2 analytically  !
 ! A8    A(3,5,45)             120.2831         calculate D2E/DX2 analytically  !
 ! A9    A(6,5,45)             120.0859         calculate D2E/DX2 analytically  !
 ! A10   A(1,7,8)              117.5191         calculate D2E/DX2 analytically  !
 ! A11   A(1,7,9)              127.129          calculate D2E/DX2 analytically  !
 ! A12   A(8,7,9)              115.3343         calculate D2E/DX2 analytically  !
 ! A13   A(7,8,10)             122.373          calculate D2E/DX2 analytically  !
 ! A14   A(7,8,11)             118.5533         calculate D2E/DX2 analytically  !
 ! A15   A(10,8,11)            119.0729         calculate D2E/DX2 analytically  !
 ! A16   A(7,9,12)             124.0845         calculate D2E/DX2 analytically  !
 ! A17   A(7,9,50)             121.3609         calculate D2E/DX2 analytically  !
 ! A18   A(12,9,50)            114.4926         calculate D2E/DX2 analytically  !
 ! A19   A(8,10,14)            120.525          calculate D2E/DX2 analytically  !
 ! A20   A(8,10,15)            119.9393         calculate D2E/DX2 analytically  !
 ! A21   A(14,10,15)           119.5301         calculate D2E/DX2 analytically  !
 ! A22   A(9,12,14)            118.3484         calculate D2E/DX2 analytically  !
 ! A23   A(9,12,18)            119.0433         calculate D2E/DX2 analytically  !
 ! A24   A(14,12,18)           122.4641         calculate D2E/DX2 analytically  !
 ! A25   A(20,13,48)            45.8294         calculate D2E/DX2 analytically  !
 ! A26   A(10,14,12)           119.3301         calculate D2E/DX2 analytically  !
 ! A27   A(10,14,16)           123.6038         calculate D2E/DX2 analytically  !
 ! A28   A(12,14,16)           117.0511         calculate D2E/DX2 analytically  !
 ! A29   A(14,16,17)           110.0057         calculate D2E/DX2 analytically  !
 ! A30   A(12,18,19)           116.0668         calculate D2E/DX2 analytically  !
 ! A31   A(18,19,20)           110.3563         calculate D2E/DX2 analytically  !
 ! A32   A(18,19,21)           105.6269         calculate D2E/DX2 analytically  !
 ! A33   A(18,19,22)           111.0255         calculate D2E/DX2 analytically  !
 ! A34   A(20,19,21)           109.6338         calculate D2E/DX2 analytically  !
 ! A35   A(20,19,22)           110.3029         calculate D2E/DX2 analytically  !
 ! A36   A(21,19,22)           109.7899         calculate D2E/DX2 analytically  !
 ! A37   A(13,20,19)           164.7294         calculate D2E/DX2 analytically  !
 ! A38   A(24,23,25)           118.5292         calculate D2E/DX2 analytically  !
 ! A39   A(24,23,29)           114.3329         calculate D2E/DX2 analytically  !
 ! A40   A(25,23,29)           127.1279         calculate D2E/DX2 analytically  !
 ! A41   A(23,25,26)           121.3088         calculate D2E/DX2 analytically  !
 ! A42   A(23,25,27)           125.3872         calculate D2E/DX2 analytically  !
 ! A43   A(26,25,27)           113.293          calculate D2E/DX2 analytically  !
 ! A44   A(25,27,28)           120.3215         calculate D2E/DX2 analytically  !
 ! A45   A(25,27,45)           120.0471         calculate D2E/DX2 analytically  !
 ! A46   A(28,27,45)           119.6298         calculate D2E/DX2 analytically  !
 ! A47   A(23,29,30)           118.8588         calculate D2E/DX2 analytically  !
 ! A48   A(23,29,31)           123.2993         calculate D2E/DX2 analytically  !
 ! A49   A(30,29,31)           117.84           calculate D2E/DX2 analytically  !
 ! A50   A(29,30,32)           121.0849         calculate D2E/DX2 analytically  !
 ! A51   A(29,30,33)           119.5807         calculate D2E/DX2 analytically  !
 ! A52   A(32,30,33)           119.3327         calculate D2E/DX2 analytically  !
 ! A53   A(29,31,34)           121.7412         calculate D2E/DX2 analytically  !
 ! A54   A(29,31,35)           121.0572         calculate D2E/DX2 analytically  !
 ! A55   A(34,31,35)           117.1982         calculate D2E/DX2 analytically  !
 ! A56   A(30,32,36)           120.4258         calculate D2E/DX2 analytically  !
 ! A57   A(30,32,37)           120.1534         calculate D2E/DX2 analytically  !
 ! A58   A(36,32,37)           119.4172         calculate D2E/DX2 analytically  !
 ! A59   A(31,34,36)           119.4669         calculate D2E/DX2 analytically  !
 ! A60   A(31,34,40)           119.2097         calculate D2E/DX2 analytically  !
 ! A61   A(36,34,40)           121.2448         calculate D2E/DX2 analytically  !
 ! A62   A(32,36,34)           119.4361         calculate D2E/DX2 analytically  !
 ! A63   A(32,36,38)           122.9428         calculate D2E/DX2 analytically  !
 ! A64   A(34,36,38)           117.6176         calculate D2E/DX2 analytically  !
 ! A65   A(36,38,39)           109.7163         calculate D2E/DX2 analytically  !
 ! A66   A(34,40,41)           115.7365         calculate D2E/DX2 analytically  !
 ! A67   A(40,41,42)           110.6399         calculate D2E/DX2 analytically  !
 ! A68   A(40,41,43)           106.0512         calculate D2E/DX2 analytically  !
 ! A69   A(40,41,44)           111.5472         calculate D2E/DX2 analytically  !
 ! A70   A(42,41,43)           109.3025         calculate D2E/DX2 analytically  !
 ! A71   A(42,41,44)           109.7771         calculate D2E/DX2 analytically  !
 ! A72   A(43,41,44)           109.435          calculate D2E/DX2 analytically  !
 ! A73   A(5,45,27)            113.9438         calculate D2E/DX2 analytically  !
 ! A74   A(5,45,46)            106.7531         calculate D2E/DX2 analytically  !
 ! A75   A(5,45,47)            110.4141         calculate D2E/DX2 analytically  !
 ! A76   A(27,45,46)           110.6715         calculate D2E/DX2 analytically  !
 ! A77   A(27,45,47)           106.6983         calculate D2E/DX2 analytically  !
 ! A78   A(46,45,47)           108.2654         calculate D2E/DX2 analytically  !
 ! A79   A(13,48,50)           134.8068         calculate D2E/DX2 analytically  !
 ! A80   A(9,50,48)            117.3431         calculate D2E/DX2 analytically  !
 ! A81   A(9,50,49)            117.2029         calculate D2E/DX2 analytically  !
 ! A82   A(48,50,49)           125.4539         calculate D2E/DX2 analytically  !
 ! D1    D(2,1,3,4)           -179.1382         calculate D2E/DX2 analytically  !
 ! D2    D(2,1,3,5)              0.712          calculate D2E/DX2 analytically  !
 ! D3    D(7,1,3,4)              0.1898         calculate D2E/DX2 analytically  !
 ! D4    D(7,1,3,5)           -179.96           calculate D2E/DX2 analytically  !
 ! D5    D(2,1,7,8)             15.5036         calculate D2E/DX2 analytically  !
 ! D6    D(2,1,7,9)           -166.1039         calculate D2E/DX2 analytically  !
 ! D7    D(3,1,7,8)           -163.8522         calculate D2E/DX2 analytically  !
 ! D8    D(3,1,7,9)             14.5403         calculate D2E/DX2 analytically  !
 ! D9    D(1,3,5,6)            175.9349         calculate D2E/DX2 analytically  !
 ! D10   D(1,3,5,45)            -4.8073         calculate D2E/DX2 analytically  !
 ! D11   D(4,3,5,6)             -4.2008         calculate D2E/DX2 analytically  !
 ! D12   D(4,3,5,45)           175.057          calculate D2E/DX2 analytically  !
 ! D13   D(3,5,45,27)           78.8035         calculate D2E/DX2 analytically  !
 ! D14   D(3,5,45,46)         -158.7141         calculate D2E/DX2 analytically  !
 ! D15   D(3,5,45,47)          -41.2443         calculate D2E/DX2 analytically  !
 ! D16   D(6,5,45,27)         -101.9421         calculate D2E/DX2 analytically  !
 ! D17   D(6,5,45,46)           20.5403         calculate D2E/DX2 analytically  !
 ! D18   D(6,5,45,47)          138.0101         calculate D2E/DX2 analytically  !
 ! D19   D(1,7,8,10)           178.0133         calculate D2E/DX2 analytically  !
 ! D20   D(1,7,8,11)            -1.657          calculate D2E/DX2 analytically  !
 ! D21   D(9,7,8,10)            -0.5687         calculate D2E/DX2 analytically  !
 ! D22   D(9,7,8,11)           179.761          calculate D2E/DX2 analytically  !
 ! D23   D(1,7,9,12)          -178.4369         calculate D2E/DX2 analytically  !
 ! D24   D(1,7,9,50)             4.5866         calculate D2E/DX2 analytically  !
 ! D25   D(8,7,9,12)            -0.0142         calculate D2E/DX2 analytically  !
 ! D26   D(8,7,9,50)          -176.9907         calculate D2E/DX2 analytically  !
 ! D27   D(7,8,10,14)            0.5947         calculate D2E/DX2 analytically  !
 ! D28   D(7,8,10,15)          179.7286         calculate D2E/DX2 analytically  !
 ! D29   D(11,8,10,14)        -179.7367         calculate D2E/DX2 analytically  !
 ! D30   D(11,8,10,15)          -0.6027         calculate D2E/DX2 analytically  !
 ! D31   D(7,9,12,14)            0.5579         calculate D2E/DX2 analytically  !
 ! D32   D(7,9,12,18)         -175.1857         calculate D2E/DX2 analytically  !
 ! D33   D(50,9,12,14)         177.7209         calculate D2E/DX2 analytically  !
 ! D34   D(50,9,12,18)           1.9773         calculate D2E/DX2 analytically  !
 ! D35   D(7,9,50,48)         -104.3011         calculate D2E/DX2 analytically  !
 ! D36   D(7,9,50,49)           75.8136         calculate D2E/DX2 analytically  !
 ! D37   D(12,9,50,48)          78.4505         calculate D2E/DX2 analytically  !
 ! D38   D(12,9,50,49)        -101.4348         calculate D2E/DX2 analytically  !
 ! D39   D(8,10,14,12)          -0.0158         calculate D2E/DX2 analytically  !
 ! D40   D(8,10,14,16)         178.538          calculate D2E/DX2 analytically  !
 ! D41   D(15,10,14,12)       -179.1533         calculate D2E/DX2 analytically  !
 ! D42   D(15,10,14,16)         -0.5995         calculate D2E/DX2 analytically  !
 ! D43   D(9,12,14,10)          -0.5335         calculate D2E/DX2 analytically  !
 ! D44   D(9,12,14,16)        -179.1809         calculate D2E/DX2 analytically  !
 ! D45   D(18,12,14,10)        175.0559         calculate D2E/DX2 analytically  !
 ! D46   D(18,12,14,16)         -3.5916         calculate D2E/DX2 analytically  !
 ! D47   D(9,12,18,19)        -112.8795         calculate D2E/DX2 analytically  !
 ! D48   D(14,12,18,19)         71.5606         calculate D2E/DX2 analytically  !
 ! D49   D(48,13,20,19)         49.9322         calculate D2E/DX2 analytically  !
 ! D50   D(20,13,48,50)        -87.6903         calculate D2E/DX2 analytically  !
 ! D51   D(10,14,16,17)          0.4211         calculate D2E/DX2 analytically  !
 ! D52   D(12,14,16,17)        179.0053         calculate D2E/DX2 analytically  !
 ! D53   D(12,18,19,20)         56.9547         calculate D2E/DX2 analytically  !
 ! D54   D(12,18,19,21)        175.3743         calculate D2E/DX2 analytically  !
 ! D55   D(12,18,19,22)        -65.6683         calculate D2E/DX2 analytically  !
 ! D56   D(18,19,20,13)        -22.3781         calculate D2E/DX2 analytically  !
 ! D57   D(21,19,20,13)       -138.3172         calculate D2E/DX2 analytically  !
 ! D58   D(22,19,20,13)        100.6671         calculate D2E/DX2 analytically  !
 ! D59   D(24,23,25,26)        178.3086         calculate D2E/DX2 analytically  !
 ! D60   D(24,23,25,27)         -0.4042         calculate D2E/DX2 analytically  !
 ! D61   D(29,23,25,26)         -0.4725         calculate D2E/DX2 analytically  !
 ! D62   D(29,23,25,27)       -179.1853         calculate D2E/DX2 analytically  !
 ! D63   D(24,23,29,30)          0.2392         calculate D2E/DX2 analytically  !
 ! D64   D(24,23,29,31)        179.7161         calculate D2E/DX2 analytically  !
 ! D65   D(25,23,29,30)        179.0639         calculate D2E/DX2 analytically  !
 ! D66   D(25,23,29,31)         -1.4592         calculate D2E/DX2 analytically  !
 ! D67   D(23,25,27,28)        176.4024         calculate D2E/DX2 analytically  !
 ! D68   D(23,25,27,45)         -4.0662         calculate D2E/DX2 analytically  !
 ! D69   D(26,25,27,28)         -2.4003         calculate D2E/DX2 analytically  !
 ! D70   D(26,25,27,45)        177.1311         calculate D2E/DX2 analytically  !
 ! D71   D(25,27,45,5)          80.6758         calculate D2E/DX2 analytically  !
 ! D72   D(25,27,45,46)        -39.6312         calculate D2E/DX2 analytically  !
 ! D73   D(25,27,45,47)       -157.2068         calculate D2E/DX2 analytically  !
 ! D74   D(28,27,45,5)         -99.7895         calculate D2E/DX2 analytically  !
 ! D75   D(28,27,45,46)        139.9035         calculate D2E/DX2 analytically  !
 ! D76   D(28,27,45,47)         22.328          calculate D2E/DX2 analytically  !
 ! D77   D(23,29,30,32)       -179.9523         calculate D2E/DX2 analytically  !
 ! D78   D(23,29,30,33)         -0.4228         calculate D2E/DX2 analytically  !
 ! D79   D(31,29,30,32)          0.5422         calculate D2E/DX2 analytically  !
 ! D80   D(31,29,30,33)       -179.9284         calculate D2E/DX2 analytically  !
 ! D81   D(23,29,31,34)        179.9609         calculate D2E/DX2 analytically  !
 ! D82   D(23,29,31,35)          0.6588         calculate D2E/DX2 analytically  !
 ! D83   D(30,29,31,34)         -0.5572         calculate D2E/DX2 analytically  !
 ! D84   D(30,29,31,35)       -179.8593         calculate D2E/DX2 analytically  !
 ! D85   D(29,30,32,36)          0.038          calculate D2E/DX2 analytically  !
 ! D86   D(29,30,32,37)        179.3376         calculate D2E/DX2 analytically  !
 ! D87   D(33,30,32,36)       -179.4926         calculate D2E/DX2 analytically  !
 ! D88   D(33,30,32,37)         -0.193          calculate D2E/DX2 analytically  !
 ! D89   D(29,31,34,36)         -0.008          calculate D2E/DX2 analytically  !
 ! D90   D(29,31,34,40)       -176.8253         calculate D2E/DX2 analytically  !
 ! D91   D(35,31,34,36)        179.3199         calculate D2E/DX2 analytically  !
 ! D92   D(35,31,34,40)          2.5026         calculate D2E/DX2 analytically  !
 ! D93   D(30,32,36,34)         -0.6167         calculate D2E/DX2 analytically  !
 ! D94   D(30,32,36,38)        178.6913         calculate D2E/DX2 analytically  !
 ! D95   D(37,32,36,34)       -179.9214         calculate D2E/DX2 analytically  !
 ! D96   D(37,32,36,38)         -0.6134         calculate D2E/DX2 analytically  !
 ! D97   D(31,34,36,32)          0.5999         calculate D2E/DX2 analytically  !
 ! D98   D(31,34,36,38)       -178.7447         calculate D2E/DX2 analytically  !
 ! D99   D(40,34,36,32)        177.3506         calculate D2E/DX2 analytically  !
 ! D100  D(40,34,36,38)         -1.994          calculate D2E/DX2 analytically  !
 ! D101  D(31,34,40,41)       -112.6571         calculate D2E/DX2 analytically  !
 ! D102  D(36,34,40,41)         70.5841         calculate D2E/DX2 analytically  !
 ! D103  D(32,36,38,39)          0.2331         calculate D2E/DX2 analytically  !
 ! D104  D(34,36,38,39)        179.5529         calculate D2E/DX2 analytically  !
 ! D105  D(34,40,41,42)         58.2483         calculate D2E/DX2 analytically  !
 ! D106  D(34,40,41,43)        176.6682         calculate D2E/DX2 analytically  !
 ! D107  D(34,40,41,44)        -64.2632         calculate D2E/DX2 analytically  !
 ! D108  D(13,48,50,9)          28.8606         calculate D2E/DX2 analytically  !
 ! D109  D(13,48,50,49)       -151.2647         calculate D2E/DX2 analytically  !
 --------------------------------------------------------------------------------
 Trust Radius=3.00D-01 FncErr=1.00D-07 GrdErr=1.00D-06 EigMax=2.50D+02 EigMin=1.00D-04
 Number of steps in this run=    253 maximum allowed number of steps=    300.
 GradGradGradGradGradGradGradGradGradGradGradGradGradGradGradGradGradGrad

                          Input orientation:                          
 ---------------------------------------------------------------------
 Center     Atomic      Atomic             Coordinates (Angstroms)
 Number     Number       Type             X           Y           Z
 ---------------------------------------------------------------------
      1          6           0        2.218162    0.832027    0.772579
      2          1           0        1.773518    1.822833    0.766837
      3          6           0        1.508686   -0.172441    1.323895
      4          1           0        1.874815   -1.190505    1.387834
      5          6           0        0.164049   -0.024284    1.906990
      6          8           0       -0.429167   -1.011556    2.316552
      7          6           0        3.548097    0.807195    0.167585
      8          6           0        4.199691    2.038167   -0.018791
      9          6           0        4.279504   -0.327500   -0.229697
     10          6           0        5.479516    2.128729   -0.546122
     11          1           0        3.681783    2.946959    0.266065
     12          6           0        5.556860   -0.279320   -0.772128
     13          1           0        5.313499   -1.845555    4.150293
     14          6           0        6.171034    0.980044   -0.927566
     15          1           0        5.944182    3.101686   -0.677279
     16          8           0        7.407891    0.997849   -1.474041
     17          1           0        7.724569    1.909767   -1.547182
     18          8           0        6.131200   -1.431035   -1.212330
     19          6           0        7.278852   -1.892587   -0.467729
     20          1           0        7.019307   -2.028948    0.584638
     21          1           0        7.545988   -2.852627   -0.905956
     22          1           0        8.113390   -1.197539   -0.564599
     23          6           0       -3.154257    0.483272    0.898667
     24          1           0       -2.758853    0.023451    1.800050
     25          6           0       -2.405194    1.412866    0.266734
     26          1           0       -2.744517    1.881566   -0.652681
     27          6           0       -1.084038    1.874029    0.698451
     28          8           0       -0.456170    2.675758    0.017987
     29          6           0       -4.462017   -0.014428    0.495244
     30          6           0       -5.080940   -1.003514    1.275924
     31          6           0       -5.151428    0.454367   -0.640651
     32          6           0       -6.327443   -1.511838    0.933357
     33          1           0       -4.575765   -1.383975    2.157568
     34          6           0       -6.393504   -0.042396   -0.994870
     35          1           0       -4.721121    1.215520   -1.281367
     36          6           0       -6.992662   -1.046649   -0.201399
     37          1           0       -6.787942   -2.285107    1.542662
     38          8           0       -8.199006   -1.525164   -0.597637
     39          1           0       -8.498170   -2.207800    0.019567
     40          8           0       -6.988300    0.403162   -2.145452
     41          6           0       -8.176918    1.189653   -1.968837
     42          1           0       -7.967887    2.072769   -1.356185
     43          1           0       -8.479367    1.506762   -2.966495
     44          1           0       -8.979634    0.606391   -1.514230
     45          6           0       -0.482586    1.360810    2.016242
     46          1           0       -1.249444    1.289513    2.787049
     47          1           0        0.253047    2.099860    2.333548
     48          8           0        4.071512   -2.410212    0.757451
     49          8           0        2.880300   -1.991519   -1.007906
     50          7           0        3.695156   -1.686946   -0.154051
 ---------------------------------------------------------------------
                    Distance matrix (angstroms):
                    1          2          3          4          5
     1  C    0.000000
     2  H    1.086019   0.000000
     3  C    1.347688   2.088437   0.000000
     4  H    2.141743   3.078328   1.083787   0.000000
     5  C    2.497907   2.702255   1.473091   2.134552   0.000000
     6  O    3.576451   3.909885   2.333400   2.490556   1.222437
     7  C    1.461288   2.130669   2.540854   2.877445   3.894698
     8  C    2.451020   2.559276   3.732439   4.219949   4.924301
     9  C    2.568695   3.449200   3.180429   3.023858   4.646972
    10  C    3.749245   3.943584   4.955789   5.267957   6.237581
    11  H    2.621389   2.270662   3.946139   4.652109   4.888290
    12  C    3.842931   4.593597   4.559874   4.364992   6.027033
    13  H    5.306554   6.118522   5.026375   4.459240   5.904767
    14  C    4.305531   4.787425   5.304224   5.341335   6.717682
    15  H    4.597463   4.595147   5.865001   6.264770   7.061167
    16  O    5.657569   6.119501   6.633148   6.602587   8.059118
    17  H    6.071518   6.385706   7.156527   7.241936   8.534244
    18  O    4.936920   5.787413   5.420713   4.993548   6.878662
    19  C    5.879836   6.755530   6.282009   5.756705   7.729829
    20  H    5.592092   6.510585   5.861746   5.273890   7.263736
    21  H    6.691778   7.614432   6.971704   6.339269   8.390782
    22  H    6.376590   7.147681   6.945456   6.536962   8.406979
    23  C    5.385203   5.108304   4.727982   5.322817   3.505065
    24  H    5.145888   4.984746   4.298486   4.807752   2.925247
    25  C    4.687075   4.228453   4.353073   5.133506   3.369993
    26  H    5.268879   4.736151   5.120111   5.910969   4.317863
    27  C    3.463493   2.858833   3.361761   4.315255   2.573302
    28  O    3.334787   2.501953   3.698417   4.717835   3.353093
    29  C    6.739302   6.506243   6.030002   6.506559   4.836694
    30  C    7.543173   7.431756   6.641999   6.959167   5.372806
    31  C    7.513368   7.197819   6.972047   7.495895   5.913871
    32  C    8.862669   8.762039   7.959360   8.221121   6.730545
    33  H    7.279169   7.247838   6.259662   6.499223   4.937346
    34  C    8.834551   8.560546   8.236394   8.681045   7.170957
    35  H    7.247027   6.836981   6.893788   7.511322   5.963859
    36  C    9.450785   9.274552   8.681225   9.009911   7.530541
    37  H    9.561353   9.527627   8.564184   8.733011   7.319442
    38  O   10.768065  10.607644   9.988064  10.273069   8.858131
    39  H   11.164558  11.059476  10.294714  10.512177   9.130397
    40  O    9.667356   9.341647   9.196003   9.673608   8.231713
    41  C   10.756437  10.339052  10.320286  10.861387   9.277252
    42  H   10.479821   9.973197  10.100951  10.726480   9.009679
    43  H   11.352227  10.916012  10.999471  11.551818  10.040099
    44  H   11.431143  11.059533  10.893410  11.378482   9.783120
    45  C    3.019992   2.620017   2.606792   3.530078   1.532501
    46  H    4.036294   3.674778   3.447522   4.227208   2.120974
    47  H    2.811707   2.200718   2.785566   3.788272   2.168377
    48  O    3.734602   4.816590   3.449139   2.590472   4.720419
    49  O    3.403082   4.350168   3.260011   2.718859   4.443495
    50  N    3.063557   4.106005   3.042812   2.436700   4.413735
                    6          7          8          9         10
     6  O    0.000000
     7  C    4.872837   0.000000
     8  C    6.015061   1.405205   0.000000
     9  C    5.396564   1.407239   2.376390   0.000000
    10  C    7.277969   2.446673   1.387167   2.751947   0.000000
    11  H    6.064178   2.146197   1.084101   3.365284   2.135648
    12  C    6.775591   2.469556   2.789296   1.388593   2.419868
    13  H    6.085752   5.100558   5.805612   4.749522   6.154576
    14  C    7.619280   2.847636   2.414889   2.403034   1.393977
    15  H    8.154837   3.423406   2.146609   3.838072   1.086168
    16  O    8.934527   4.198725   3.673222   3.618251   2.420444
    17  H    9.483985   4.647473   3.844116   4.313884   2.467858
    18  O    7.461058   3.685954   4.146158   2.368994   3.679734
    19  C    8.242693   4.648761   5.013342   3.391495   4.406215
    20  H    7.714556   4.501882   4.985558   3.326347   4.575571
    21  H    8.796431   5.525389   5.992048   4.183720   5.404969
    22  H    9.017256   5.039539   5.107323   3.945606   4.242840
    23  C    3.416289   6.749886   7.572316   7.562497   8.907131
    24  H    2.601048   6.561769   7.469176   7.333588   8.820853
    25  C    3.739554   5.984843   6.640560   6.925353   7.958760
    26  H    4.748405   6.436156   6.974838   7.375349   8.228437
    27  C    3.372493   4.782952   5.334713   5.871607   6.685363
    28  O    4.345160   4.421319   4.699459   5.613156   5.987473
    29  C    4.536001   8.058806   8.916421   8.777115  10.223094
    30  C    4.766756   8.886358   9.851813   9.504831  11.164857
    31  C    5.761400   8.744110   9.504659   9.472205  10.762407
    32  C    6.078912  10.173033  11.150321  10.736046  12.443748
    33  H    4.166323   8.646294   9.667276   9.232062  10.988982
    34  C    6.890436  10.045324  10.839615  10.704199  12.078236
    35  H    6.027085   8.405127   9.047194   9.192289  10.267791
    36  C    7.029991  10.708897  11.611124  11.295119  12.874668
    37  H    6.531069  10.875977  11.910370  11.378131  13.203617
    38  O    8.314246  12.000829  12.913561  12.541252  14.158233
    39  H    8.474430  12.418722  13.389002  12.917687  14.645860
    40  O    8.058111  10.794862  11.505089  11.452834  12.687864
    41  C    9.123460  11.924200  12.557989  12.668418  13.762419
    42  H    8.935007  11.685094  12.240905  12.531115  13.471896
    43  H    9.952800  12.448764  13.028040  13.177381  14.180813
    44  H    9.508056  12.641711  13.340949  13.353910  14.571265
    45  C    2.391895   4.468829   5.150135   5.529208   6.534683
    46  H    2.487798   5.487315   6.174649   6.502673   7.556006
    47  H    3.185375   4.149666   4.594921   5.354872   5.967354
    48  O    4.964186   3.312645   4.517418   2.314177   4.927856
    49  O    4.792173   3.108140   4.354022   2.309186   4.893425
    50  N    4.854902   2.519090   3.761557   1.481647   4.230488
                   11         12         13         14         15
    11  H    0.000000
    12  C    3.873324   0.000000
    13  H    6.381060   5.171319   0.000000
    14  C    3.389673   1.409740   5.874013   0.000000
    15  H    2.456072   3.404441   6.941067   2.148364   0.000000
    16  O    4.550921   2.355877   6.641126   1.352319   2.683915
    17  H    4.550577   3.176755   7.237191   1.913578   2.312396
    18  O    5.229926   1.360180   5.440421   2.428163   4.568020
    19  C    6.074419   2.379189   5.019058   3.112991   5.173781
    20  H    6.000017   2.653443   3.956932   3.472802   5.391820
    21  H    7.066889   3.255219   5.618171   4.071896   6.170245
    22  H    6.124215   2.724342   5.521731   2.940469   4.816793
    23  C    7.293928   8.902621   9.364796   9.515406   9.597984
    24  H    7.237527   8.709699   8.612763   9.386045   9.558007
    25  C    6.277319   8.205915   9.234586   8.669797   8.570610
    26  H    6.578487   8.578844  10.094138   8.965230   8.773984
    27  C    4.904201   7.134497   8.165722   7.488605   7.266062
    28  O    4.154245   6.746355   8.414708   6.905748   6.452079
    29  C    8.668554  10.102193  10.595902  10.773817  10.925839
    30  C    9.664956  10.857337  10.817365  11.636012  11.925644
    31  C    9.222839  10.734198  11.737013  11.338289  11.407112
    32  C   10.977739  12.069152  12.081870  12.879613  13.208767
    33  H    9.514299  10.605352  10.098592  11.428050  11.782479
    34  C   10.584782  11.954788  12.914257  12.606250  12.735958
    35  H    8.717868  10.398595  11.813836  10.900443  10.847637
    36  C   11.406630  12.585906  13.077350  13.338579  13.594009
    37  H   11.773673  12.719103  12.387003  13.590375  14.001881
    38  O   12.723955  13.813270  14.325966  14.590509  14.880990
    39  H   13.228136  14.208790  14.420692  15.041442  15.403174
    40  O   11.231073  12.638547  14.000979  13.228156  13.292354
    41  C   12.194740  13.863861  15.121098  14.387213  14.308370
    42  H   11.794520  13.740168  14.902006  14.187559  13.966576
    43  H   12.665590  14.318554  15.878597  14.800976  14.690917
    44  H   12.998430  14.582348  15.568960  15.166625  15.154117
    45  C    4.787584   6.851274   6.959135   7.285716   7.182553
    46  H    5.780960   7.839308   7.399954   8.304073   8.187417
    47  H    4.092468   6.590611   6.668961   6.849191   6.515962
    48  O    5.393759   3.014394   3.656877   4.329101   5.995529
    49  O    5.162746   3.186094   5.705155   4.434588   5.952934
    50  N    4.652929   2.414409   4.601258   3.720366   5.316284
                   16         17         18         19         20
    16  O    0.000000
    17  H    0.968106   0.000000
    18  O    2.756431   3.716438   0.000000
    19  C    3.063321   3.977660   1.443802   0.000000
    20  H    3.681121   4.533821   2.091728   1.092444   0.000000
    21  H    3.894607   4.808687   2.028896   1.088615   1.782613
    22  H    2.478819   3.282074   2.098369   1.090380   1.791369
    23  C   10.837597  11.241259   9.712908  10.787099  10.483858
    24  H   10.725288  11.165316   9.498579  10.467546  10.064888
    25  C    9.974928  10.302878   9.118411  10.258957  10.038345
    26  H   10.223844  10.507268   9.490252  10.711973  10.590342
    27  C    8.809101   9.090418   8.162977   9.245826   8.995020
    28  O    8.178324   8.364268   7.859572   8.996458   8.850882
    29  C   12.074664  12.505475  10.823069  11.929074  11.657062
    30  C   12.943673  13.432728  11.492879  12.513801  12.163279
    31  C   12.598667  12.989660  11.453351  12.651084  12.481785
    32  C   14.168750  14.673768  12.642321  13.683539  13.361315
    33  H   12.746360  13.261679  11.224862  12.152482  11.719036
    34  C   13.848835  14.263098  12.603326  13.807042  13.650815
    35  H   12.132495  12.467872  11.170581  12.422628  12.322589
    36  C   14.600531  15.071443  13.168352  14.299043  14.068335
    37  H   14.879515  15.419373  13.237207  14.215148  13.842816
    38  O   15.833790  16.317494  14.343692  15.482763  15.272479
    39  H   16.294473  16.810304  14.701680  15.787693  15.528793
    40  O   14.424104  14.801902  13.279920  14.547744  14.476934
    41  C   15.593841  15.923367  14.565800  15.831435  15.741819
    42  H   15.413756  15.694464  14.528647  15.778987  15.659082
    43  H   15.965318  16.270967  15.005879  16.313211  16.288667
    44  H   16.392249  16.755007  15.250559  16.482670  16.349812
    45  C    8.635592   8.964192   7.871483   8.774658   8.355738
    46  H    9.653570   9.985148   8.824416   9.667014   9.177965
    47  H    8.179484   8.421392   7.719660   8.552702   8.117143
    48  O    5.265536   6.108878   3.013493   3.472180   2.977369
    49  O    5.445428   6.243220   3.305190   4.432701   4.434972
    50  N    4.768112   5.577931   2.668286   3.603270   3.422368
                   21         22         23         24         25
    21  H    0.000000
    22  H    1.782635   0.000000
    23  C   11.352539  11.485911   0.000000
    24  H   11.035581  11.193214   1.086404   0.000000
    25  C   10.890164  10.869496   1.350770   2.099192   0.000000
    26  H   11.330103  11.286399   2.128331   3.077124   1.086345
    27  C    9.969592   9.778676   2.502019   2.728217   1.464413
    28  O    9.769916   9.422272   3.586400   3.938633   2.335694
    29  C   12.418170  12.675326   1.456259   2.145862   2.513942
    30  C   12.946781  13.323495   2.462714   2.592577   3.743924
    31  C   13.123680  13.367497   2.521711   3.444870   3.046944
    32  C   14.058907  14.521718   3.748436   3.980340   4.937845
    33  H   12.588845  12.979199   2.663105   2.325906   4.013596
    34  C   14.220224  14.559172   3.788737   4.585478   4.429001
    35  H   12.929529  13.079040   2.782767   3.842741   2.792683
    36  C   14.667321  15.111171   4.275997   4.803754   5.226205
    37  H   14.552641  15.088839   4.613276   4.650726   5.874647
    38  O   15.803862  16.315719   5.632249   6.143483   6.553428
    39  H   16.083763  16.652502   6.047487   6.410021   7.091874
    40  O   14.945972  15.268346   4.896220   5.796499   5.276647
    41  C   16.268974  16.524064   5.826549   6.702236   6.193577
    42  H   16.283199  16.429516   5.548142   6.426162   5.832057
    43  H   16.735056  16.982400   6.659113   7.592394   6.881726
    44  H   16.894703  17.214164   6.306524   7.072651   6.858971
    45  C    9.526296   9.332562   3.026033   2.648897   2.599983
    46  H   10.399771  10.250933   2.800772   2.203495   2.775421
    47  H    9.391938   9.003171   4.035091   3.696976   3.436557
    48  O    3.877453   4.422123   7.784853   7.325545   7.536873
    49  O    4.745582   5.311512   6.795255   6.613982   6.414904
    50  N    4.093053   4.464175   7.261716   6.956882   6.855667
                   26         27         28         29         30
    26  H    0.000000
    27  C    2.140749   0.000000
    28  O    2.513378   1.224752   0.000000
    29  C    2.803985   3.875346   4.848885   0.000000
    30  C    4.183549   4.958725   6.042180   1.403858   0.000000
    31  C    2.798261   4.511352   5.235822   1.409012   2.409076
    32  C    5.183441   6.246004   7.269505   2.431870   1.389070
    33  H    4.681318   4.993574   6.166872   2.156831   1.085011
    34  C    4.139303   5.893255   6.608039   2.439645   2.793399
    35  H    2.178491   4.193052   4.691527   2.176294   3.404896
    36  C    5.179270   6.652212   7.525302   2.820453   2.416408
    37  H    6.207253   7.109545   8.186950   3.415113   2.151160
    38  O    6.431197   7.991066   8.830529   4.176338   3.674873
    39  H    7.090794   8.490676   9.408662   4.618191   3.834867
    40  O    4.735371   6.716513   7.246647   3.678283   4.162040
    41  C    5.632227   7.608662   8.109619   4.617574   4.992348
    42  H    5.273999   7.186682   7.660146   4.480547   4.972522
    43  H    6.195378   8.261816   8.639755   5.516951   5.987396
    44  H    6.422228   8.297186   8.903898   4.983198   5.057328
    45  C    3.537043   1.536786   2.392239   4.476671   5.223309
    46  H    3.797041   2.175146   3.196664   4.156111   4.714003
    47  H    4.236816   2.124226   2.489271   5.484652   6.261063
    48  O    8.177169   6.703574   6.849366   8.867336   9.274426
    49  O    6.838533   5.793970   5.828204   7.750998   8.341065
    50  N    7.379181   6.020631   6.024641   8.352148   8.918059
                   31         32         33         34         35
    31  C    0.000000
    32  C    2.779653   0.000000
    33  H    3.397193   2.140891   0.000000
    34  C    1.383835   2.425218   3.878386   0.000000
    35  H    1.083990   3.863127   4.313326   2.112179   0.000000
    36  C    2.415809   1.395202   3.394098   1.413192   3.382845
    37  H    3.866491   1.086857   2.466551   3.409458   4.949877
    38  O    3.634298   2.418030   4.554005   2.369859   4.480460
    39  H    4.327090   2.455898   4.542576   3.185542   5.260955
    40  O    2.375111   3.685516   5.246920   1.369724   2.558647
    41  C    3.385013   4.375082   6.051370   2.376367   3.523608
    42  H    3.326207   4.558779   5.983480   2.661419   3.358863
    43  H    4.194313   5.380666   7.060487   3.261597   4.129030
    44  H    3.929556   4.184697   6.069408   2.716381   4.308155
    45  C    5.447825   6.602052   4.930308   6.780467   5.372198
    46  H    5.260425   6.088498   4.313722   6.522135   5.348834
    47  H    6.384501   7.635950   5.956971   7.735908   6.212247
    48  O    9.758233  10.439170   8.819801  10.871695   9.726927
    49  O    8.403920   9.422373   8.122945   9.476428   8.254785
    50  N    9.115045  10.082937   8.593225  10.256344   8.973788
                   36         37         38         39         40
    36  C    0.000000
    37  H    2.148822   0.000000
    38  O    1.356926   2.673854   0.000000
    39  H    1.914067   2.291435   0.967694   0.000000
    40  O    2.425142   4.568273   2.753176   3.712699   0.000000
    41  C    3.086640   5.131650   3.041531   3.949638   1.436166
    42  H    3.466318   5.365321   3.684282   4.527380   2.090484
    43  H    4.046721   6.129574   3.857805   4.766014   2.028626
    44  H    2.898986   4.744350   2.448070   3.240989   2.098846
    45  C    7.286623   7.298939   8.643168   8.998404   7.782102
    46  H    6.882806   6.708306   8.226477   8.510828   7.619033
    47  H    8.296190   8.332405   9.652453  10.024682   8.682012
    48  O   11.189041  10.888524  12.376800  12.592948  11.775456
    49  O    9.950809  10.003324  11.096703  11.426813  10.218502
    50  N   10.707086  10.636352  11.903530  12.205681  11.066638
                   41         42         43         44         45
    41  C    0.000000
    42  H    1.094956   0.000000
    43  H    1.089658   1.781874   0.000000
    44  H    1.091429   1.788540   1.780452   0.000000
    45  C    8.666769   8.240744   9.423240   9.232183   0.000000
    46  H    8.403470   7.932046   9.242415   8.872626   1.089632
    47  H    9.508065   9.011027  10.232168  10.113270   1.089970
    48  O   13.054337  13.019666  13.665102  13.586494   6.045244
    49  O   11.545792  11.589775  12.046412  12.151688   5.629617
    50  N   12.349673  12.312886  12.896845  12.952212   5.608255
                   46         47         48         49         50
    46  H    0.000000
    47  H    1.766297   0.000000
    48  O    6.791156   6.116004   0.000000
    49  O    6.497818   5.899759   2.170432   0.000000
    50  N    6.477534   5.690006   1.222945   1.218944   0.000000
 Stoichiometry    C21H20NO8(2)
 Framework group  C1[X(C21H20NO8)]
 Deg. of freedom   144
 Full point group                 C1      NOp   1
 Largest Abelian subgroup         C1      NOp   1
 Largest concise Abelian subgroup C1      NOp   1
                         Standard orientation:                         
 ---------------------------------------------------------------------
 Center     Atomic      Atomic             Coordinates (Angstroms)
 Number     Number       Type             X           Y           Z
 ---------------------------------------------------------------------
      1          6           0        2.224401    0.623017    0.937426
      2          1           0        1.775076    1.584215    1.169033
      3          6           0        1.519863   -0.487635    1.231263
      4          1           0        1.890822   -1.489616    1.049555
      5          6           0        0.174732   -0.489876    1.831775
      6          8           0       -0.413675   -1.549305    1.992211
      7          6           0        3.554241    0.750166    0.345207
      8          6           0        4.199946    1.992948    0.459923
      9          6           0        4.290875   -0.252759   -0.311934
     10          6           0        5.479157    2.213270   -0.029272
     11          1           0        3.677841    2.804512    0.953931
     12          6           0        5.567811   -0.069974   -0.825952
     13          1           0        5.333471   -2.771801    3.577202
     14          6           0        6.175972    1.192780   -0.674424
     15          1           0        5.939174    3.191454    0.077041
     16          8           0        7.412552    1.346858   -1.199683
     17          1           0        7.724891    2.251184   -1.051801
     18          8           0        6.147445   -1.079865   -1.528969
     19          6           0        7.297510   -1.701111   -0.915806
     20          1           0        7.038958   -2.087011    0.072964
     21          1           0        7.569039   -2.526828   -1.571203
     22          1           0        8.128721   -0.999222   -0.842533
     23          6           0       -3.146267    0.229125    0.971841
     24          1           0       -2.748397   -0.431541    1.737016
     25          6           0       -2.401815    1.286600    0.581819
     26          1           0       -2.743651    1.960472   -0.198687
     27          6           0       -1.082712    1.636972    1.112586
     28          8           0       -0.458865    2.581382    0.644695
     29          6           0       -4.451791   -0.163438    0.459795
     30          6           0       -5.065775   -1.313724    0.980069
     31          6           0       -5.143783    0.560791   -0.531140
     32          6           0       -6.309972   -1.730906    0.524606
     33          1           0       -4.558518   -1.892101    1.745195
     34          6           0       -6.383613    0.157648   -0.995140
     35          1           0       -4.717290    1.455358   -0.970332
     36          6           0       -6.977756   -1.010336   -0.466068
     37          1           0       -6.766611   -2.629845    0.930373
     38          8           0       -8.181953   -1.385524   -0.966458
     39          1           0       -8.477685   -2.197615   -0.531161
     40          8           0       -6.980886    0.863282   -2.005828
     41          6           0       -8.173150    1.578933   -1.646771
     42          1           0       -7.968096    2.290375   -0.840091
     43          1           0       -8.477422    2.124566   -2.539552
     44          1           0       -8.972951    0.899948   -1.345915
     45          6           0       -0.478409    0.825593    2.269390
     46          1           0       -1.244668    0.567994    2.999997
     47          1           0        0.253826    1.470440    2.755228
     48          8           0        4.093055   -2.512346    0.146925
     49          8           0        2.899298   -1.688184   -1.467535
     50          7           0        3.712986   -1.593405   -0.564897
 ---------------------------------------------------------------------
 Rotational constants (GHZ):           0.3606700           0.0453969           0.0442823
 Standard basis: 6-311+G(d) (5D, 7F)
 There are   750 symmetry adapted cartesian basis functions of A   symmetry.
 There are   720 symmetry adapted basis functions of A   symmetry.
   720 basis functions,  1180 primitive gaussians,   750 cartesian basis functions
   109 alpha electrons      108 beta electrons
       nuclear repulsion energy      2673.3032711788 Hartrees.
 NAtoms=   50 NActive=   50 NUniq=   50 SFac= 1.00D+00 NAtFMM=   60 NAOKFM=F Big=F
 Integral buffers will be    131072 words long.
 Raffenetti 2 integral format.
 Two-electron integral symmetry is turned on.
 Force inversion solution in PCM.
 Using the following non-standard input for PCM:
 Eps=7
 EpsInf=1.85341
 HbondAcidity=0
 HbondBasicity=0.48
 SurfaceTensionAtInterface=60.62
 CarbonAromaticity=0
 ElectronegativeHalogenicity=0
 --- end of non-standard input.
 Force inversion solution in PCM.
 ------------------------------------------------------------------------------
 Polarizable Continuum Model (PCM)
 =================================
 Model                : PCM.
 Atomic radii         : SMD-Coulomb.
 Polarization charges : Total charges.
 Charge compensation  : None.
 Solution method      : Matrix inversion.
 Cavity type          : VdW (van der Waals Surface) (Alpha=1.000).
 Cavity algorithm     : GePol (No added spheres)
                        Default sphere list used, NSphG=   50.
                        Lebedev-Laikov grids with approx.  5.0 points / Ang**2.
                        Smoothing algorithm: York/Karplus (Gamma=1.0000).
                        Polarization charges: spherical gaussians, with
                                              point-specific exponents (IZeta= 3).
                        Self-potential: point-specific (ISelfS= 7).
                        Self-field    : sphere-specific E.n sum rule (ISelfD= 2).
 1st derivatives      : Analytical E(r).r(x)/FMM algorithm (CHGder, D1EAlg=3).
                        Cavity 1st derivative terms included.
 2nd derivatives      : Analytical E(r).r(xy)/FMM algorithm (CHGder, D2EAlg=3).
                        Cavity 2nd derivative terms included.
 Solvent              : Generic,
                        Eps                           =   7.000000
                        Eps(infinity)                 =   1.853410
                        RSolv                         =   0.000000 Ang.
                        Molar volume                  =   0.000000 cm**3/mol
                        Thermal expansion coefficient =   0.000000 K**-1
                        Absolute temperature          = 298.150000 K
                        Numeral density               =   0.000000 Ang**-3
                        Hydrogen bond acidity         =   0.000000
                        Hydrogen bond basicity        =   0.480000
                        Surface tension at interface  =  60.620000 (cal/mol)*Ang**-2
                        Carbon aromaticity            =   0.000000
                        Electronegative halogenicity  =   0.000000
 ------------------------------------------------------------------------------
 Separa: There are  2 disjoint cavities,
 ------------------------------------------------------------------------------
 Atomic radii for non-electrostatic terms: SMD-CDS.
 ------------------------------------------------------------------------------
 Separa: There are  2 disjoint cavities,
 Nuclear repulsion after PCM non-electrostatic terms =     2673.3000120278 Hartrees.
 One-electron integrals computed using PRISM.
 NBasis=   720 RedAO= T EigKep=  1.25D-06  NBF=   720
 NBsUse=   715 1.00D-06 EigRej=  8.48D-07 NBFU=   715
 Initial guess from the checkpoint file:  "CURCUMIN-OPT-FREQ-Prod-1-B3LYP-6-311+G-D-298.chk"
 B after Tr=     0.000000    0.000000    0.000000
         Rot=    1.000000    0.000000   -0.000000    0.000000 Ang=   0.00 deg.
 Initial guess <Sx>= 0.0000 <Sy>= 0.0000 <Sz>= 0.5000 <S**2>= 0.7500 S= 0.5000
 Requested convergence on RMS density matrix=1.00D-08 within 128 cycles.
 Requested convergence on MAX density matrix=1.00D-06.
 Requested convergence on             energy=1.00D-06.
 No special actions if energy rises.
 Inv3:  Mode=1 IEnd=    52768908.
 Iteration    1 A*A^-1 deviation from unit magnitude is 3.55D-15 for    213.
 Iteration    1 A*A^-1 deviation from orthogonality  is 1.87D-15 for   1474   1202.
 Iteration    1 A^-1*A deviation from unit magnitude is 3.77D-15 for   3036.
 Iteration    1 A^-1*A deviation from orthogonality  is 1.83D-15 for   2498    500.
 Error on total polarization charges =  0.04792
 SCF Done:  E(UB3LYP) =  -1468.95588177     A.U. after   14 cycles
            NFock= 14  Conv=0.88D-08     -V/T= 2.0037
 <Sx>= 0.0000 <Sy>= 0.0000 <Sz>= 0.5000 <S**2>= 0.7500 S= 0.5000
 <L.S>=  0.00000000000    
 SMD-CDS (non-electrostatic) energy       (kcal/mol) =      -2.05
 (included in total energy above)
 Annihilation of the first spin contaminant:
 S**2 before annihilation     0.7500,   after     0.7500
 DoSCS=F DFT=T ScalE2(SS,OS)=  1.000000  1.000000
 Range of M.O.s used for correlation:     1   715
 NBasis=   720 NAE=   109 NBE=   108 NFC=     0 NFV=     0
 NROrb=    715 NOA=   109 NOB=   108 NVA=   606 NVB=   607

 **** Warning!!: The largest alpha MO coefficient is  0.11034907D+03


 **** Warning!!: The largest beta MO coefficient is  0.12443948D+03

 Symmetrizing basis deriv contribution to polar:
 IMax=3 JMax=2 DiffMx= 0.00D+00
 G2DrvN: will do    26 centers at a time, making    2 passes.
 Calling FoFCou, ICntrl=  3107 FMM=F I1Cent=   0 AccDes= 0.00D+00.
 Calling FoFCou, ICntrl=  3107 FMM=F I1Cent=   0 AccDes= 0.00D+00.
 NEqPCM:  Using equilibrium solvation (IEInf=0, Eps=   7.0000, EpsInf=   1.8534)
 G2PCM: DoFxE=T DoFxN=T DoGrad=T DoDP/DQ/DG/TGxP=FFFF NFrqRd=   0 IEInf=0 SqF1=F DoCFld=F IF1Alg=4.
 Separa: There are  2 disjoint cavities,
 End of G2Drv F.D. properties file   721 does not exist.
 End of G2Drv F.D. properties file   722 does not exist.
 End of G2Drv F.D. properties file   788 does not exist.
          IDoAtm=11111111111111111111111111111111111111111111111111
 NEqPCM:  Using equilibrium solvation (IEInf=0, Eps=   7.0000, EpsInf=   1.8534)
          Differentiating once with respect to nuclear coordinates.
 CalDSu exits because no D1Ps are significant.
          There are   153 degrees of freedom in the 1st order CPHF.  IDoFFX=6 NUNeed=     0.
    150 vectors produced by pass  0 Test12= 1.32D-13 1.00D-09 XBig12= 6.30D-01 1.74D-01.
 AX will form    38 AO Fock derivatives at one time.
    148 vectors produced by pass  1 Test12= 1.32D-13 1.00D-09 XBig12= 9.18D-02 5.92D-02.
    147 vectors produced by pass  2 Test12= 1.32D-13 1.00D-09 XBig12= 9.67D-04 2.95D-03.
    147 vectors produced by pass  3 Test12= 1.32D-13 1.00D-09 XBig12= 3.92D-06 2.37D-04.
    147 vectors produced by pass  4 Test12= 1.32D-13 1.00D-09 XBig12= 1.39D-08 7.17D-06.
    146 vectors produced by pass  5 Test12= 1.32D-13 1.00D-09 XBig12= 2.82D-11 5.96D-07.
    111 vectors produced by pass  6 Test12= 1.32D-13 1.00D-09 XBig12= 2.00D-13 3.35D-08.
     79 vectors produced by pass  7 Test12= 1.32D-13 1.00D-09 XBig12= 5.98D-14 1.05D-08.
     71 vectors produced by pass  8 Test12= 1.32D-13 1.00D-09 XBig12= 6.70D-14 1.22D-08.
     70 vectors produced by pass  9 Test12= 1.32D-13 1.00D-09 XBig12= 6.28D-14 8.60D-09.
     69 vectors produced by pass 10 Test12= 1.32D-13 1.00D-09 XBig12= 4.57D-14 7.96D-09.
     61 vectors produced by pass 11 Test12= 1.32D-13 1.00D-09 XBig12= 5.72D-14 8.66D-09.
     58 vectors produced by pass 12 Test12= 1.32D-13 1.00D-09 XBig12= 5.93D-14 8.73D-09.
     54 vectors produced by pass 13 Test12= 1.32D-13 1.00D-09 XBig12= 3.73D-14 6.73D-09.
     53 vectors produced by pass 14 Test12= 1.32D-13 1.00D-09 XBig12= 2.65D-14 5.47D-09.
     53 vectors produced by pass 15 Test12= 1.32D-13 1.00D-09 XBig12= 4.40D-14 6.64D-09.
     51 vectors produced by pass 16 Test12= 1.32D-13 1.00D-09 XBig12= 3.88D-14 7.03D-09.
     47 vectors produced by pass 17 Test12= 1.32D-13 1.00D-09 XBig12= 3.47D-14 5.62D-09.
     40 vectors produced by pass 18 Test12= 1.32D-13 1.00D-09 XBig12= 2.67D-14 5.11D-09.
     37 vectors produced by pass 19 Test12= 1.32D-13 1.00D-09 XBig12= 2.33D-14 4.63D-09.
     29 vectors produced by pass 20 Test12= 1.32D-13 1.00D-09 XBig12= 1.63D-14 3.93D-09.
     29 vectors produced by pass 21 Test12= 1.32D-13 1.00D-09 XBig12= 2.26D-14 4.59D-09.
     27 vectors produced by pass 22 Test12= 1.32D-13 1.00D-09 XBig12= 1.50D-14 3.77D-09.
     25 vectors produced by pass 23 Test12= 1.32D-13 1.00D-09 XBig12= 1.10D-14 3.65D-09.
     25 vectors produced by pass 24 Test12= 1.32D-13 1.00D-09 XBig12= 1.97D-14 4.71D-09.
     23 vectors produced by pass 25 Test12= 1.32D-13 1.00D-09 XBig12= 1.19D-14 3.63D-09.
     23 vectors produced by pass 26 Test12= 1.32D-13 1.00D-09 XBig12= 2.08D-14 4.52D-09.
     23 vectors produced by pass 27 Test12= 1.32D-13 1.00D-09 XBig12= 3.31D-14 5.51D-09.
     22 vectors produced by pass 28 Test12= 1.32D-13 1.00D-09 XBig12= 1.18D-14 3.33D-09.
     20 vectors produced by pass 29 Test12= 1.32D-13 1.00D-09 XBig12= 1.18D-14 3.11D-09.
     20 vectors produced by pass 30 Test12= 1.32D-13 1.00D-09 XBig12= 1.89D-14 5.10D-09.
     18 vectors produced by pass 31 Test12= 1.32D-13 1.00D-09 XBig12= 1.04D-14 2.99D-09.
     18 vectors produced by pass 32 Test12= 1.32D-13 1.00D-09 XBig12= 1.70D-14 3.55D-09.
     15 vectors produced by pass 33 Test12= 1.32D-13 1.00D-09 XBig12= 7.21D-15 2.63D-09.
     15 vectors produced by pass 34 Test12= 1.32D-13 1.00D-09 XBig12= 1.28D-14 3.60D-09.
     15 vectors produced by pass 35 Test12= 1.32D-13 1.00D-09 XBig12= 2.69D-14 5.23D-09.
     15 vectors produced by pass 36 Test12= 1.32D-13 1.00D-09 XBig12= 8.63D-15 3.03D-09.
     15 vectors produced by pass 37 Test12= 1.32D-13 1.00D-09 XBig12= 1.30D-14 3.61D-09.
     12 vectors produced by pass 38 Test12= 1.32D-13 1.00D-09 XBig12= 5.98D-15 2.36D-09.
     12 vectors produced by pass 39 Test12= 1.32D-13 1.00D-09 XBig12= 9.04D-15 2.72D-09.
     12 vectors produced by pass 40 Test12= 1.32D-13 1.00D-09 XBig12= 2.13D-14 5.24D-09.
     12 vectors produced by pass 41 Test12= 1.32D-13 1.00D-09 XBig12= 8.33D-15 2.76D-09.
     12 vectors produced by pass 42 Test12= 1.32D-13 1.00D-09 XBig12= 1.58D-14 4.23D-09.
     12 vectors produced by pass 43 Test12= 1.32D-13 1.00D-09 XBig12= 1.13D-14 3.10D-09.
     12 vectors produced by pass 44 Test12= 1.32D-13 1.00D-09 XBig12= 1.31D-14 3.65D-09.
     11 vectors produced by pass 45 Test12= 1.32D-13 1.00D-09 XBig12= 8.18D-15 2.59D-09.
     11 vectors produced by pass 46 Test12= 1.32D-13 1.00D-09 XBig12= 1.14D-14 3.36D-09.
     11 vectors produced by pass 47 Test12= 1.32D-13 1.00D-09 XBig12= 1.17D-14 3.05D-09.
     11 vectors produced by pass 48 Test12= 1.32D-13 1.00D-09 XBig12= 1.27D-14 2.95D-09.
     11 vectors produced by pass 49 Test12= 1.32D-13 1.00D-09 XBig12= 8.13D-15 2.76D-09.
     11 vectors produced by pass 50 Test12= 1.32D-13 1.00D-09 XBig12= 8.67D-15 2.68D-09.
     11 vectors produced by pass 51 Test12= 1.32D-13 1.00D-09 XBig12= 1.30D-14 3.63D-09.
     11 vectors produced by pass 52 Test12= 1.32D-13 1.00D-09 XBig12= 8.70D-15 2.76D-09.
     11 vectors produced by pass 53 Test12= 1.32D-13 1.00D-09 XBig12= 1.15D-14 3.05D-09.
     11 vectors produced by pass 54 Test12= 1.32D-13 1.00D-09 XBig12= 1.52D-14 4.29D-09.
      6 vectors produced by pass 55 Test12= 1.32D-13 1.00D-09 XBig12= 4.39D-15 2.06D-09.
      6 vectors produced by pass 56 Test12= 1.32D-13 1.00D-09 XBig12= 9.64D-15 3.17D-09.
      6 vectors produced by pass 57 Test12= 1.32D-13 1.00D-09 XBig12= 1.00D-14 2.91D-09.
      6 vectors produced by pass 58 Test12= 1.32D-13 1.00D-09 XBig12= 8.78D-15 3.50D-09.
      6 vectors produced by pass 59 Test12= 1.32D-13 1.00D-09 XBig12= 1.03D-14 2.68D-09.
      6 vectors produced by pass 60 Test12= 1.32D-13 1.00D-09 XBig12= 4.48D-15 1.68D-09.
      6 vectors produced by pass 61 Test12= 1.32D-13 1.00D-09 XBig12= 1.78D-14 3.96D-09.
      6 vectors produced by pass 62 Test12= 1.32D-13 1.00D-09 XBig12= 4.52D-15 2.29D-09.
      6 vectors produced by pass 63 Test12= 1.32D-13 1.00D-09 XBig12= 1.33D-14 3.36D-09.
      6 vectors produced by pass 64 Test12= 1.32D-13 1.00D-09 XBig12= 8.44D-15 2.98D-09.
      6 vectors produced by pass 65 Test12= 1.32D-13 1.00D-09 XBig12= 1.59D-14 3.96D-09.
      6 vectors produced by pass 66 Test12= 1.32D-13 1.00D-09 XBig12= 2.02D-14 3.66D-09.
      6 vectors produced by pass 67 Test12= 1.32D-13 1.00D-09 XBig12= 1.00D-14 3.04D-09.
      6 vectors produced by pass 68 Test12= 1.32D-13 1.00D-09 XBig12= 8.22D-15 2.91D-09.
      6 vectors produced by pass 69 Test12= 1.32D-13 1.00D-09 XBig12= 4.89D-15 2.20D-09.
      6 vectors produced by pass 70 Test12= 1.32D-13 1.00D-09 XBig12= 7.26D-15 2.26D-09.
      6 vectors produced by pass 71 Test12= 1.32D-13 1.00D-09 XBig12= 8.27D-15 2.79D-09.
      6 vectors produced by pass 72 Test12= 1.32D-13 1.00D-09 XBig12= 8.23D-15 2.73D-09.
      6 vectors produced by pass 73 Test12= 1.32D-13 1.00D-09 XBig12= 8.62D-15 2.61D-09.
      6 vectors produced by pass 74 Test12= 1.32D-13 1.00D-09 XBig12= 1.10D-14 3.01D-09.
      5 vectors produced by pass 75 Test12= 1.32D-13 1.00D-09 XBig12= 2.90D-15 1.54D-09.
      5 vectors produced by pass 76 Test12= 1.32D-13 1.00D-09 XBig12= 8.32D-15 2.84D-09.
      5 vectors produced by pass 77 Test12= 1.32D-13 1.00D-09 XBig12= 1.33D-14 3.81D-09.
      5 vectors produced by pass 78 Test12= 1.32D-13 1.00D-09 XBig12= 1.77D-14 3.70D-09.
      5 vectors produced by pass 79 Test12= 1.32D-13 1.00D-09 XBig12= 6.62D-15 2.45D-09.
      5 vectors produced by pass 80 Test12= 1.32D-13 1.00D-09 XBig12= 4.37D-15 1.84D-09.
      5 vectors produced by pass 81 Test12= 1.32D-13 1.00D-09 XBig12= 7.40D-15 2.63D-09.
      5 vectors produced by pass 82 Test12= 1.32D-13 1.00D-09 XBig12= 1.83D-14 3.95D-09.
      3 vectors produced by pass 83 Test12= 1.32D-13 1.00D-09 XBig12= 3.27D-15 1.57D-09.
      3 vectors produced by pass 84 Test12= 1.32D-13 1.00D-09 XBig12= 1.52D-14 3.50D-09.
      3 vectors produced by pass 85 Test12= 1.32D-13 1.00D-09 XBig12= 6.77D-15 2.23D-09.
      3 vectors produced by pass 86 Test12= 1.32D-13 1.00D-09 XBig12= 6.97D-15 2.32D-09.
      3 vectors produced by pass 87 Test12= 1.32D-13 1.00D-09 XBig12= 7.65D-15 2.38D-09.
      3 vectors produced by pass 88 Test12= 1.32D-13 1.00D-09 XBig12= 8.38D-15 2.91D-09.
      3 vectors produced by pass 89 Test12= 1.32D-13 1.00D-09 XBig12= 9.73D-15 2.90D-09.
      3 vectors produced by pass 90 Test12= 1.32D-13 1.00D-09 XBig12= 1.26D-14 3.29D-09.
      3 vectors produced by pass 91 Test12= 1.32D-13 1.00D-09 XBig12= 6.10D-15 2.21D-09.
      3 vectors produced by pass 92 Test12= 1.32D-13 1.00D-09 XBig12= 1.02D-14 3.22D-09.
      3 vectors produced by pass 93 Test12= 1.32D-13 1.00D-09 XBig12= 1.81D-14 3.99D-09.
      3 vectors produced by pass 94 Test12= 1.32D-13 1.00D-09 XBig12= 4.66D-15 2.10D-09.
      3 vectors produced by pass 95 Test12= 1.32D-13 1.00D-09 XBig12= 4.49D-15 2.17D-09.
      3 vectors produced by pass 96 Test12= 1.32D-13 1.00D-09 XBig12= 1.77D-14 4.18D-09.
      3 vectors produced by pass 97 Test12= 1.32D-13 1.00D-09 XBig12= 1.16D-14 2.86D-09.
      3 vectors produced by pass 98 Test12= 1.32D-13 1.00D-09 XBig12= 1.12D-14 2.80D-09.
      3 vectors produced by pass 99 Test12= 1.32D-13 1.00D-09 XBig12= 7.40D-15 2.56D-09.
      3 vectors produced by pass100 Test12= 1.32D-13 1.00D-09 XBig12= 1.20D-14 3.06D-09.
      3 vectors produced by pass101 Test12= 1.32D-13 1.00D-09 XBig12= 1.02D-14 2.99D-09.
      3 vectors produced by pass102 Test12= 1.32D-13 1.00D-09 XBig12= 1.38D-14 3.13D-09.
      3 vectors produced by pass103 Test12= 1.32D-13 1.00D-09 XBig12= 1.20D-14 3.04D-09.
      3 vectors produced by pass104 Test12= 1.32D-13 1.00D-09 XBig12= 1.78D-14 3.53D-09.
      3 vectors produced by pass105 Test12= 1.32D-13 1.00D-09 XBig12= 2.38D-14 4.20D-09.
      3 vectors produced by pass106 Test12= 1.32D-13 1.00D-09 XBig12= 1.25D-14 3.01D-09.
      3 vectors produced by pass107 Test12= 1.32D-13 1.00D-09 XBig12= 6.29D-15 2.19D-09.
      3 vectors produced by pass108 Test12= 1.32D-13 1.00D-09 XBig12= 9.30D-15 3.22D-09.
      3 vectors produced by pass109 Test12= 1.32D-13 1.00D-09 XBig12= 1.38D-14 3.10D-09.
      3 vectors produced by pass110 Test12= 1.32D-13 1.00D-09 XBig12= 7.79D-15 2.31D-09.
      3 vectors produced by pass111 Test12= 1.32D-13 1.00D-09 XBig12= 9.75D-15 2.76D-09.
      3 vectors produced by pass112 Test12= 1.32D-13 1.00D-09 XBig12= 4.42D-15 1.78D-09.
      3 vectors produced by pass113 Test12= 1.32D-13 1.00D-09 XBig12= 1.38D-14 3.99D-09.
      3 vectors produced by pass114 Test12= 1.32D-13 1.00D-09 XBig12= 1.09D-14 3.13D-09.
      3 vectors produced by pass115 Test12= 1.32D-13 1.00D-09 XBig12= 1.15D-14 3.60D-09.
      3 vectors produced by pass116 Test12= 1.32D-13 1.00D-09 XBig12= 1.39D-14 4.13D-09.
      3 vectors produced by pass117 Test12= 1.32D-13 1.00D-09 XBig12= 1.53D-14 3.11D-09.
      3 vectors produced by pass118 Test12= 1.32D-13 1.00D-09 XBig12= 5.11D-15 2.61D-09.
      3 vectors produced by pass119 Test12= 1.32D-13 1.00D-09 XBig12= 1.59D-14 4.20D-09.
      3 vectors produced by pass120 Test12= 1.32D-13 1.00D-09 XBig12= 1.48D-14 3.49D-09.
      3 vectors produced by pass121 Test12= 1.32D-13 1.00D-09 XBig12= 7.94D-15 2.70D-09.
      3 vectors produced by pass122 Test12= 1.32D-13 1.00D-09 XBig12= 9.42D-15 2.64D-09.
      3 vectors produced by pass123 Test12= 1.32D-13 1.00D-09 XBig12= 7.36D-15 2.61D-09.
      3 vectors produced by pass124 Test12= 1.32D-13 1.00D-09 XBig12= 1.10D-14 2.89D-09.
      3 vectors produced by pass125 Test12= 1.32D-13 1.00D-09 XBig12= 1.67D-14 4.00D-09.
      3 vectors produced by pass126 Test12= 1.32D-13 1.00D-09 XBig12= 1.65D-14 3.85D-09.
      3 vectors produced by pass127 Test12= 1.32D-13 1.00D-09 XBig12= 1.90D-14 3.72D-09.
      3 vectors produced by pass128 Test12= 1.32D-13 1.00D-09 XBig12= 1.47D-14 3.40D-09.
      3 vectors produced by pass129 Test12= 1.32D-13 1.00D-09 XBig12= 8.89D-15 2.70D-09.
      2 vectors produced by pass130 Test12= 1.32D-13 1.00D-09 XBig12= 6.33D-15 1.98D-09.
 InvSVY:  IOpt=1 It=  1 EMax= 1.22D-15
 Solved reduced A of dimension  2613 with   153 vectors.
 End of Minotr F.D. properties file   721 does not exist.
 End of Minotr F.D. properties file   722 does not exist.
 End of Minotr F.D. properties file   788 does not exist.

 **********************************************************************

            Population analysis using the SCF density.

 **********************************************************************

 Orbital symmetries:
 Alpha Orbitals:
       Occupied  (A) (A) (A) (A) (A) (A) (A) (A) (A) (A) (A) (A)
                 (A) (A) (A) (A) (A) (A) (A) (A) (A) (A) (A) (A)
                 (A) (A) (A) (A) (A) (A) (A) (A) (A) (A) (A) (A)
                 (A) (A) (A) (A) (A) (A) (A) (A) (A) (A) (A) (A)
                 (A) (A) (A) (A) (A) (A) (A) (A) (A) (A) (A) (A)
                 (A) (A) (A) (A) (A) (A) (A) (A) (A) (A) (A) (A)
                 (A) (A) (A) (A) (A) (A) (A) (A) (A) (A) (A) (A)
                 (A) (A) (A) (A) (A) (A) (A) (A) (A) (A) (A) (A)
                 (A) (A) (A) (A) (A) (A) (A) (A) (A) (A) (A) (A)
                 (A)
       Virtual   (A) (A) (A) (A) (A) (A) (A) (A) (A) (A) (A) (A)
                 (A) (A) (A) (A) (A) (A) (A) (A) (A) (A) (A) (A)
                 (A) (A) (A) (A) (A) (A) (A) (A) (A) (A) (A) (A)
                 (A) (A) (A) (A) (A) (A) (A) (A) (A) (A) (A) (A)
                 (A) (A) (A) (A) (A) (A) (A) (A) (A) (A) (A) (A)
                 (A) (A) (A) (A) (A) (A) (A) (A) (A) (A) (A) (A)
                 (A) (A) (A) (A) (A) (A) (A) (A) (A) (A) (A) (A)
                 (A) (A) (A) (A) (A) (A) (A) (A) (A) (A) (A) (A)
                 (A) (A) (A) (A) (A) (A) (A) (A) (A) (A) (A) (A)
                 (A) (A) (A) (A) (A) (A) (A) (A) (A) (A) (A) (A)
                 (A) (A) (A) (A) (A) (A) (A) (A) (A) (A) (A) (A)
                 (A) (A) (A) (A) (A) (A) (A) (A) (A) (A) (A) (A)
                 (A) (A) (A) (A) (A) (A) (A) (A) (A) (A) (A) (A)
                 (A) (A) (A) (A) (A) (A) (A) (A) (A) (A) (A) (A)
                 (A) (A) (A) (A) (A) (A) (A) (A) (A) (A) (A) (A)
                 (A) (A) (A) (A) (A) (A) (A) (A) (A) (A) (A) (A)
                 (A) (A) (A) (A) (A) (A) (A) (A) (A) (A) (A) (A)
                 (A) (A) (A) (A) (A) (A) (A) (A) (A) (A) (A) (A)
                 (A) (A) (A) (A) (A) (A) (A) (A) (A) (A) (A) (A)
                 (A) (A) (A) (A) (A) (A) (A) (A) (A) (A) (A) (A)
                 (A) (A) (A) (A) (A) (A) (A) (A) (A) (A) (A) (A)
                 (A) (A) (A) (A) (A) (A) (A) (A) (A) (A) (A) (A)
                 (A) (A) (A) (A) (A) (A) (A) (A) (A) (A) (A) (A)
                 (A) (A) (A) (A) (A) (A) (A) (A) (A) (A) (A) (A)
                 (A) (A) (A) (A) (A) (A) (A) (A) (A) (A) (A) (A)
                 (A) (A) (A) (A) (A) (A) (A) (A) (A) (A) (A) (A)
                 (A) (A) (A) (A) (A) (A) (A) (A) (A) (A) (A) (A)
                 (A) (A) (A) (A) (A) (A) (A) (A) (A) (A) (A) (A)
                 (A) (A) (A) (A) (A) (A) (A) (A) (A) (A) (A) (A)
                 (A) (A) (A) (A) (A) (A) (A) (A) (A) (A) (A) (A)
                 (A) (A) (A) (A) (A) (A) (A) (A) (A) (A) (A) (A)
                 (A) (A) (A) (A) (A) (A) (A) (A) (A) (A) (A) (A)
                 (A) (A) (A) (A) (A) (A) (A) (A) (A) (A) (A) (A)
                 (A) (A) (A) (A) (A) (A) (A) (A) (A) (A) (A) (A)
                 (A) (A) (A) (A) (A) (A) (A) (A) (A) (A) (A) (A)
                 (A) (A) (A) (A) (A) (A) (A) (A) (A) (A) (A) (A)
                 (A) (A) (A) (A) (A) (A) (A) (A) (A) (A) (A) (A)
                 (A) (A) (A) (A) (A) (A) (A) (A) (A) (A) (A) (A)
                 (A) (A) (A) (A) (A) (A) (A) (A) (A) (A) (A) (A)
                 (A) (A) (A) (A) (A) (A) (A) (A) (A) (A) (A) (A)
                 (A) (A) (A) (A) (A) (A) (A) (A) (A) (A) (A) (A)
                 (A) (A) (A) (A) (A) (A) (A) (A) (A) (A) (A) (A)
                 (A) (A) (A) (A) (A) (A) (A) (A) (A) (A) (A) (A)
                 (A) (A) (A) (A) (A) (A) (A) (A) (A) (A) (A) (A)
                 (A) (A) (A) (A) (A) (A) (A) (A) (A) (A) (A) (A)
                 (A) (A) (A) (A) (A) (A) (A) (A) (A) (A) (A) (A)
                 (A) (A) (A) (A) (A) (A) (A) (A) (A) (A) (A) (A)
                 (A) (A) (A) (A) (A) (A) (A) (A) (A) (A) (A) (A)
                 (A) (A) (A) (A) (A) (A) (A) (A) (A) (A) (A) (A)
                 (A) (A) (A) (A) (A) (A) (A) (A) (A) (A) (A) (A)
                 (A) (A) (A) (A) (A) (A)
 Beta  Orbitals:
       Occupied  (A) (A) (A) (A) (A) (A) (A) (A) (A) (A) (A) (A)
                 (A) (A) (A) (A) (A) (A) (A) (A) (A) (A) (A) (A)
                 (A) (A) (A) (A) (A) (A) (A) (A) (A) (A) (A) (A)
                 (A) (A) (A) (A) (A) (A) (A) (A) (A) (A) (A) (A)
                 (A) (A) (A) (A) (A) (A) (A) (A) (A) (A) (A) (A)
                 (A) (A) (A) (A) (A) (A) (A) (A) (A) (A) (A) (A)
                 (A) (A) (A) (A) (A) (A) (A) (A) (A) (A) (A) (A)
                 (A) (A) (A) (A) (A) (A) (A) (A) (A) (A) (A) (A)
                 (A) (A) (A) (A) (A) (A) (A) (A) (A) (A) (A) (A)
       Virtual   (A) (A) (A) (A) (A) (A) (A) (A) (A) (A) (A) (A)
                 (A) (A) (A) (A) (A) (A) (A) (A) (A) (A) (A) (A)
                 (A) (A) (A) (A) (A) (A) (A) (A) (A) (A) (A) (A)
                 (A) (A) (A) (A) (A) (A) (A) (A) (A) (A) (A) (A)
                 (A) (A) (A) (A) (A) (A) (A) (A) (A) (A) (A) (A)
                 (A) (A) (A) (A) (A) (A) (A) (A) (A) (A) (A) (A)
                 (A) (A) (A) (A) (A) (A) (A) (A) (A) (A) (A) (A)
                 (A) (A) (A) (A) (A) (A) (A) (A) (A) (A) (A) (A)
                 (A) (A) (A) (A) (A) (A) (A) (A) (A) (A) (A) (A)
                 (A) (A) (A) (A) (A) (A) (A) (A) (A) (A) (A) (A)
                 (A) (A) (A) (A) (A) (A) (A) (A) (A) (A) (A) (A)
                 (A) (A) (A) (A) (A) (A) (A) (A) (A) (A) (A) (A)
                 (A) (A) (A) (A) (A) (A) (A) (A) (A) (A) (A) (A)
                 (A) (A) (A) (A) (A) (A) (A) (A) (A) (A) (A) (A)
                 (A) (A) (A) (A) (A) (A) (A) (A) (A) (A) (A) (A)
                 (A) (A) (A) (A) (A) (A) (A) (A) (A) (A) (A) (A)
                 (A) (A) (A) (A) (A) (A) (A) (A) (A) (A) (A) (A)
                 (A) (A) (A) (A) (A) (A) (A) (A) (A) (A) (A) (A)
                 (A) (A) (A) (A) (A) (A) (A) (A) (A) (A) (A) (A)
                 (A) (A) (A) (A) (A) (A) (A) (A) (A) (A) (A) (A)
                 (A) (A) (A) (A) (A) (A) (A) (A) (A) (A) (A) (A)
                 (A) (A) (A) (A) (A) (A) (A) (A) (A) (A) (A) (A)
                 (A) (A) (A) (A) (A) (A) (A) (A) (A) (A) (A) (A)
                 (A) (A) (A) (A) (A) (A) (A) (A) (A) (A) (A) (A)
                 (A) (A) (A) (A) (A) (A) (A) (A) (A) (A) (A) (A)
                 (A) (A) (A) (A) (A) (A) (A) (A) (A) (A) (A) (A)
                 (A) (A) (A) (A) (A) (A) (A) (A) (A) (A) (A) (A)
                 (A) (A) (A) (A) (A) (A) (A) (A) (A) (A) (A) (A)
                 (A) (A) (A) (A) (A) (A) (A) (A) (A) (A) (A) (A)
                 (A) (A) (A) (A) (A) (A) (A) (A) (A) (A) (A) (A)
                 (A) (A) (A) (A) (A) (A) (A) (A) (A) (A) (A) (A)
                 (A) (A) (A) (A) (A) (A) (A) (A) (A) (A) (A) (A)
                 (A) (A) (A) (A) (A) (A) (A) (A) (A) (A) (A) (A)
                 (A) (A) (A) (A) (A) (A) (A) (A) (A) (A) (A) (A)
                 (A) (A) (A) (A) (A) (A) (A) (A) (A) (A) (A) (A)
                 (A) (A) (A) (A) (A) (A) (A) (A) (A) (A) (A) (A)
                 (A) (A) (A) (A) (A) (A) (A) (A) (A) (A) (A) (A)
                 (A) (A) (A) (A) (A) (A) (A) (A) (A) (A) (A) (A)
                 (A) (A) (A) (A) (A) (A) (A) (A) (A) (A) (A) (A)
[...]
 63,0.00003933,-0.00002400,0.00003677,-0.00000429,0.00006490,-0.0000351
 7,0.00001117,-0.00003234,0.00000747,-0.00000010,-0.00000379,-0.0000122
 3,-0.00003856,0.00002410,0.00000103,0.00001162,-0.00000982,0.00005411,
 0.00002206,0.00001922,-0.00000204,-0.00000305,0.00000011,-0.00006123,-
 0.00002775,-0.00001636,0.00000633,0.00000590,-0.00000424,-0.00001702,0
 .00001143,-0.00002149,0.00001108,-0.00000770,-0.00000087,-0.00000072,0
 .00000174,0.00000131,-0.00000135,0.00000136,-0.00000117,-0.00000048,-0
 .00000108,0.00000110,-0.12666218,-0.16990539,-0.05827791,0.00044996,0.
 00007284,0.00052597,0.13465454,0.18242834,0.00011046,-0.00093663,-0.00
 029154,0.00029857,0.00031050,0.00124667,0.00045940,0.00054163,0.000025
 45,-0.00003394,0.00006868,0.00013059,-0.00191817,0.00051220,-0.0016283
 0,-0.00061016,0.00029627,0.00051597,-0.00003881,0.00022679,-0.00012451
 ,0.00001336,-0.00002288,0.00002404,-0.00006968,-0.00001750,0.00000057,
 -0.00001995,0.00000809,-0.00001550,0.00001379,0.00001034,0.00000509,0.
 00001048,-0.00001606,-0.00000111,-0.00000019,0.00000018,-0.00000002,0.
 00003897,0.00001136,-0.00001221,-0.00000624,-0.00000234,0.00000418,-0.
 00004800,-0.00000522,0.00002189,0.00000626,0.00000412,0.00000062,-0.00
 004242,0.00003870,0.00001637,0.00002392,-0.00001104,0.00001494,-0.0000
 0062,0.00000137,-0.00000343,-0.00000282,0.00000245,-0.00000111,-0.0000
 0270,-0.00000088,-0.00000081,0.00096255,0.00080191,-0.00043194,0.00001
 270,-0.00011497,0.00031456,-0.00109639,0.00278155,-0.00342015,-0.00124
 087,-0.00009148,-0.00013210,-0.02344242,-0.01961292,-0.01324298,0.0017
 1308,-0.00087393,0.00438197,-0.00008554,-0.00025588,0.00011512,0.00001
 481,0.00004614,-0.00005056,0.00006050,0.00002112,0.00001288,-0.0000499
 4,0.00000020,-0.00004270,-0.00000014,-0.00000932,0.00000420,-0.0000124
 2,-0.00008671,0.00007886,0.00000571,-0.00000204,0.00003847,0.00007484,
 0.00002996,0.00001852,-0.00000617,-0.00000292,0.00000112,-0.00009929,-
 0.00004745,-0.00002079,0.00000516,0.00001150,-0.00000522,-0.00002299,0
 .00002181,-0.00002465,0.00001844,-0.00001227,-0.00000045,-0.00000062,0
 .00000212,0.00000123,-0.00000207,0.00000220,-0.00000227,-0.00000061,-0
 .00000126,0.00000237,-0.04477469,-0.05364009,-0.06706168,0.01387612,0.
 01633249,0.00838745,0.05590898,0.05367907,0.07114853,-0.00066413,0.000
 41588,0.00023234,0.00006703,-0.00000137,-0.00000994,0.00025467,-0.0003
 1061,-0.00025928,-0.00048390,0.00013657,-0.00017973,-0.00038272,0.0000
 9023,0.00009765,0.00024836,0.00018532,-0.00008879,-0.00196201,-0.00212
 026,0.00282471,0.00041130,-0.00104534,-0.00055284,0.02172400,-0.003190
 59,-0.00328869,0.00027900,-0.00045957,-0.00017293,-0.00025289,-0.00023
 191,-0.00007870,-0.00217121,0.00359046,0.00090711,-0.00000664,0.000000
 35,-0.00001246,0.00116213,0.00055867,-0.00023985,-0.00002786,-0.000033
 42,-0.00000399,-0.00024574,-0.00000916,0.00023917,0.00011840,0.0000169
 3,-0.00007221,-0.00291394,-0.00320781,0.00176208,0.00094693,-0.0000947
 6,-0.00038703,0.00026572,-0.00002209,0.00059313,-0.00000227,0.00005997
 ,0.00008237,-0.00013612,-0.00007349,0.00022755,0.00000712,0.00001098,-
 0.00000595,-0.00000463,-0.00000899,-0.00000525,0.00000150,0.00001690,0
 .00003959,0.00001842,-0.00001268,0.00000227,-0.00005635,0.00001022,-0.
 00013287,-0.00000123,0.00001050,0.00007096,0.00000413,-0.00001119,-0.0
 0000047,-0.00000214,0.00001604,0.00000295,-0.00000599,0.00001594,0.000
 00706,-0.00000581,0.00000644,0.00000094,0.00000362,-0.00000604,-0.0000
 0597,0.00000604,-0.00000237,0.00001464,0.00000474,-0.00000930,-0.00000
 451,0.00002392,0.00000665,0.00000093,0.00000061,-0.00000419,-0.0000023
 1,-0.00002496,-0.00000800,-0.00000122,0.00000828,0.00000049,-0.0000034
 9,-0.00002004,0.00001127,-0.00000469,0.00001820,-0.00001284,-0.0000031
 7,-0.00000044,0.00000330,0.00000124,-0.00000034,0.00000110,-0.00000043
 ,-0.00000248,-0.00000156,0.00000202,0.00002894,-0.00009781,0.00003016,
 0.00000305,0.00000801,-0.00000390,0.00000563,0.00001252,-0.00000332,0.
 13538518,-0.00143798,-0.00042355,0.00182008,0.00025744,0.00005380,-0.0
 0024390,0.00110089,-0.00056974,-0.00073835,0.00130815,0.00007704,-0.00
 022517,-0.00172518,0.00048184,0.00073902,0.00078582,0.00061309,-0.0005
 2889,-0.00314700,0.00023781,0.00210994,-0.00142614,-0.00185590,-0.0014
 3738,0.00651115,-0.03387240,0.03812500,0.00081674,-0.00159528,-0.00017
 171,-0.00025323,-0.00051846,-0.00015261,0.00460059,-0.00928748,-0.0011
 6268,0.00000645,-0.00000155,0.00001272,0.00010542,0.00250324,-0.001679
 46,-0.00008172,-0.00005020,0.00011487,-0.00123823,-0.00079734,0.000434
 29,0.00010407,0.00009661,0.00005295,-0.00042163,0.00520398,0.00132557,
 0.00063811,-0.00050318,0.00082868,-0.00064185,-0.00013385,-0.00064642,
 -0.00023925,0.00011933,-0.00003659,0.00002839,0.00005405,-0.00025854,-
 0.00010405,-0.00010338,0.00001894,-0.00003142,0.00000323,0.00000852,0.
 00014354,0.00009194,-0.00000165,-0.00000213,0.00001284,0.00000614,-0.0
 0025852,-0.00007512,-0.00009781,0.00016296,0.00002064,-0.00002724,0.00
 005849,0.00002338,0.00002657,-0.00001414,-0.00003285,0.00002096,-0.000
 01032,0.00000803,-0.00002729,0.00001769,0.00000240,0.00002527,-0.00000
 451,-0.00000405,-0.00000484,0.00000700,0.00002940,-0.00002704,-0.00000
 540,0.00000536,-0.00000046,-0.00004789,-0.00003855,-0.00000912,0.00000
 926,0.00000465,-0.00000190,0.00006931,0.00004149,0.00001376,-0.0000037
 6,-0.00001204,0.00000562,0.00002074,-0.00000588,0.00000833,-0.00001499
 ,0.00000633,0.00000228,0.00000056,-0.00000092,0.00000163,-0.00000106,-
 0.00000242,-0.00000047,0.00000177,0.00000320,-0.00000288,0.00000532,-0
 .00012466,0.00011233,0.00000912,0.00002466,-0.00001400,0.00001735,-0.0
 0000860,0.00001811,-0.09140422,0.30617162,0.00060794,-0.00000524,-0.00
 028446,-0.00017161,-0.00008678,0.00005534,0.00029892,0.00147512,0.0002
 7207,-0.00061846,-0.00054635,0.00002146,0.00063326,-0.00058744,-0.0001
 7591,-0.00023739,-0.00024501,0.00030978,0.00399503,0.00194343,-0.00169
 511,-0.00101202,0.00100425,0.00104255,-0.01070824,0.02331280,0.0012475
 9,-0.00006217,0.00023058,-0.00001931,0.00027073,0.00038263,-0.00009090
 ,-0.00051170,-0.00041157,0.00054852,-0.00001798,-0.00000162,-0.0000410
 1,-0.00056234,-0.00020506,0.00015950,0.00005479,0.00000256,-0.00003712
 ,0.00027475,-0.00000151,-0.00007843,-0.00008224,-0.00001854,-0.0000558
 6,0.00137496,-0.00024277,-0.00076356,-0.00014098,0.00008186,-0.0005211
 8,0.00029701,0.00000266,0.00038507,0.00008267,-0.00002949,0.00005762,-
 0.00001618,-0.00008154,0.00010856,0.00006722,0.00006685,-0.00002257,0.
 00000729,-0.00001568,-0.00000969,-0.00007799,-0.00001949,0.00006236,0.
 00002930,-0.00002520,0.00000151,0.00005180,0.00008522,-0.00022133,-0.0
 0009874,-0.00003251,0.00016169,-0.00002715,-0.00002107,-0.00000870,0.0
 0000546,0.00003797,-0.00001134,0.00000100,0.00001884,0.00001685,-0.000
 01332,0.00000157,-0.00000988,0.00000615,-0.00000426,-0.00000370,0.0000
 0417,-0.00001364,0.00002744,0.00001098,-0.00001651,-0.00000548,0.00004
 624,0.00002328,0.00000552,-0.00000506,-0.00000780,-0.00000223,-0.00006
 217,-0.00002849,-0.00000645,0.00001110,0.00000607,-0.00000733,-0.00003
 326,0.00001447,-0.00000205,0.00003040,-0.00001949,-0.00000591,-0.00000
 035,0.00000554,0.00000039,0.00000058,0.00000259,-0.00000050,-0.0000051
 5,-0.00000422,0.00000386,0.00016309,-0.00000941,-0.00010723,0.00001033
 ,-0.00005290,-0.00000018,-0.00002015,0.00001074,-0.00001541,0.17306860
 ,-0.25543528,0.36092863,-0.00210367,-0.00019083,0.00050588,0.00014500,
 0.00000332,-0.00019861,0.00151565,0.00016249,0.00154573,-0.00105144,0.
 00120775,-0.00078857,-0.00011747,0.00061392,0.00038479,0.00025941,0.00
 013981,-0.00003774,-0.00495278,0.00044389,-0.00059655,0.00024718,-0.00
 229783,0.00155237,-0.01276901,-0.02444439,-0.02703517,0.00080497,-0.00
 124897,-0.00091146,-0.00007703,-0.00047560,0.00039285,0.00306960,-0.00
 265231,-0.00074009,-0.00001058,-0.00000114,-0.00001973,0.00144024,0.00
 133795,0.00116441,-0.00014536,-0.00002961,-0.00018775,-0.00043624,-0.0
 0040471,0.00026932,0.00002457,0.00003734,-0.00014760,-0.00165869,0.001
 31033,-0.00021413,0.00052127,0.00027542,-0.00022721,0.00008320,0.00004
 247,0.00018794,-0.00012400,0.00010189,-0.00009189,0.00005259,-0.000081
 66,0.00017284,0.00006344,0.00006449,-0.00002111,0.00000560,-0.00002041
 ,-0.00001853,-0.00006729,0.00001182,0.00007348,0.00002990,-0.00003131,
 -0.00000204,-0.00000876,0.00001944,-0.00013438,-0.00004501,0.00004591,
 0.00010374,-0.00002956,-0.00001097,0.00000158,0.00000773,0.00003189,-0
 .00001407,0.00000392,0.00001115,0.00001918,-0.00002580,0.00002076,-0.0
 0000634,0.00000963,-0.00001068,-0.00001126,0.00000248,-0.00002075,0.00
 005267,0.00001217,-0.00001926,-0.00000733,0.00007491,0.00002368,0.0000
 0275,-0.00000064,-0.00000970,-0.00000458,-0.00008092,-0.00002863,-0.00
 000662,0.00001901,0.00000169,-0.00001050,-0.00005489,0.00002969,-0.000
 02387,0.00004545,-0.00003217,-0.00000457,-0.00000132,0.00000767,0.0000
 0295,-0.00000181,0.00000326,-0.00000260,-0.00000573,-0.00000218,0.0000
 0420,-0.00018214,-0.00005718,-0.00008630,-0.00002835,0.00002395,-0.000
 00301,0.00000737,-0.00001322,-0.00001619,-0.02203467,0.02101811,-0.067
 47241,0.33652477,-0.00144252,-0.00046664,-0.00028752,0.00013846,-0.000
 01109,-0.00016391,0.00173643,-0.00077366,-0.00065506,0.00021649,0.0001
 4427,-0.00052413,-0.00169938,0.00019373,0.00073364,0.00079273,0.000586
 29,-0.00047181,-0.00151160,0.00038930,-0.00077234,0.00033849,-0.000335
 50,0.00113510,-0.03800292,-0.00635010,-0.02240169,-0.00042541,-0.00100
 700,-0.00021015,0.00000895,-0.00029467,0.00006391,0.00390225,-0.008602
 55,-0.00425558,0.00000170,-0.00000138,0.00000432,0.00071106,0.00104647
 ,0.00172110,-0.00012087,-0.00005428,-0.00004199,-0.00111876,-0.0009546
 2,0.00053745,0.00000673,0.00009852,-0.00005230,-0.00157792,0.00327680,
 0.00033571,0.00113474,0.00005564,0.00049104,-0.00007858,-0.00001195,-0
 .00014784,-0.00024564,0.00013969,-0.00006587,-0.00000563,-0.00006451,-
 0.00000842,-0.00008047,-0.00006101,0.00000887,-0.00003008,-0.00000790,
 0.00000188,0.00012230,0.00009143,0.00004550,0.00002161,-0.00000478,0.0
 0001028,-0.00027682,-0.00002396,-0.00028989,0.00012968,-0.00001008,0.0
 0008561,0.00005241,0.00001285,0.00002382,-0.00001256,-0.00001413,0.000
 01341,-0.00001221,0.00002253,-0.00001762,0.00000931,0.00000688,0.00002
 408,-0.00000022,-0.00000861,-0.00000717,0.00000903,0.00002206,-0.00001
 495,0.00000077,-0.00000767,-0.00000441,-0.00001880,-0.00002405,-0.0000
 0897,0.00000604,-0.00000083,-0.00000337,0.00003474,0.00002694,0.000012
 68,0.00000354,-0.00000933,-0.00000009,-0.00000013,0.00000359,0.0000113
 9,0.00000562,-0.00000729,-0.00000187,0.00000054,0.00000245,0.00000174,
 -0.00000038,-0.00000076,-0.00000003,-0.00000170,0.00000086,-0.00000044
 ,0.00012996,-0.00019145,0.00010992,0.00002326,-0.00000015,-0.00001645,
 0.00000928,0.00000750,0.00001532,0.03665454,0.04006152,0.03210359,0.10
 428039,0.13326712,0.00023164,-0.00060895,-0.00028591,0.00004558,-0.000
 00375,-0.00002056,0.00047112,0.00002920,0.00002996,-0.00038549,0.00029
 278,-0.00097103,-0.00031451,0.00002935,-0.00007529,0.00012391,0.000021
 66,0.00004030,0.00096403,0.00159601,0.00031322,-0.00009399,-0.00011607
 ,0.00025980,-0.02318812,-0.00882614,0.00443918,0.00003783,-0.00012796,
 -0.00006454,0.00002042,-0.00002430,-0.00015006,0.00244593,-0.00455549,
 -0.00103145,-0.00000763,-0.00000065,-0.00002152,-0.00076691,0.00092053
 ,0.00055425,0.00000795,-0.00002847,0.00000390,-0.00031975,-0.00064575,
 0.00018841,-0.00010581,0.00003184,-0.00004049,0.00042410,0.00063693,0.
 00107962,0.00032675,0.00042802,-0.00085821,0.00033356,0.00004374,0.000
 48525,-0.00003910,0.00002859,0.00001071,0.00011220,-0.00012913,0.00030
 703,0.00002920,0.00002136,-0.00001898,-0.00000487,-0.00000913,-0.00000
 293,-0.00003160,0.00002366,0.00005174,0.00002714,-0.00001913,0.0000035
 9,-0.00002018,0.00003454,-0.00021169,-0.00002663,-0.00002528,0.0001352
 3,-0.00000832,-0.00000999,0.00000594,0.00000425,0.00001643,-0.00001240
 ,0.,0.00002134,0.00000542,-0.00001428,0.00000725,0.00000330,0.00000511
 ,-0.00000611,-0.00000308,-0.00000252,-0.00000041,0.00001157,0.00000671
 ,-0.00001424,-0.00000508,0.00003466,0.00000415,-0.00000265,-0.00000227
 ,-0.00000528,-0.00000241,-0.00003517,-0.00001042,0.00000317,0.00001070
 ,0.00000038,-0.00000702,-0.00002386,0.00000814,0.00000528,0.00002303,-
 0.00001520,-0.00000386,0.00000032,0.00000427,0.00000053,0.00000066,0.0
 0000133,0.,-0.00000429,-0.00000201,0.00000214,0.00004807,-0.00007343,0
 .00004428,-0.00000227,-0.00000326,-0.00000029,-0.00000864,0.00001447,-
 0.00000375,-0.07154021,0.01765192,-0.07285902,0.30196307,0.06412503,0.
 34143494,0.00139317,0.00055511,-0.00158269,-0.00026769,-0.00011946,0.0
 0020732,-0.00267219,0.00062941,0.00023739,-0.00104921,0.00127281,0.003
 69846,0.00017484,-0.00040002,-0.00016392,-0.00029492,-0.00019753,-0.00
 004205,0.01886892,0.00829103,-0.00636599,-0.00124617,0.00642790,0.0025
 6952,-0.11228465,-0.01199929,0.02559153,-0.00166992,0.00164229,0.00060
 822,0.00087669,0.00139297,-0.00008825,-0.01678347,-0.04113838,0.001801
 65,0.00001194,-0.00000009,0.00001650,-0.00469880,0.00159037,0.00465478
 ,0.00013700,0.00001663,-0.00001821,0.00018156,-0.00161176,-0.00035676,
 -0.00057294,0.00001293,0.00024304,0.00396649,-0.00043285,-0.00380596,-
 0.00264770,0.00065146,0.00037506,-0.00026274,-0.00013574,-0.00036985,0
 .00009848,-0.00018300,0.00002748,0.00039518,0.00002230,-0.00018945,-0.
 00008451,-0.00006549,0.00003077,-0.00000477,0.00002688,0.00001966,0.00
 008946,-0.00002927,-0.00010771,-0.00004424,0.00004020,0.00000344,0.000
 01684,-0.00001235,0.00021915,0.00007023,-0.00006868,-0.00015805,0.0000
 2791,0.00003501,0.00000189,-0.00001108,-0.00005830,0.00000857,0.000003
 33,-0.00003668,-0.00002664,0.00003584,-0.00001862,0.00001192,-0.000012
 19,0.00001478,0.00001693,-0.00000480,0.00001838,-0.00006338,-0.0000167
 5,0.00002597,0.00001208,-0.00009716,-0.00002307,-0.00001054,0.00000051
 ,0.00001245,0.00000656,0.00010449,0.00003727,0.00001027,-0.00002722,-0
 .00000345,0.00001190,0.00007025,-0.00003583,0.00002553,-0.00006004,0.0
 0004115,0.00000837,0.00000136,-0.00001093,-0.00000438,0.00000219,-0.00
 000424,0.00000351,0.00000844,0.00000426,-0.00000628,0.00015713,0.00005
 902,0.00007510,0.00001916,-0.00002105,-0.00000049,-0.00000249,-0.00000
 716,0.00001920,-0.12958837,0.06471015,-0.09944670,-0.29895688,-0.10381
 841,-0.21075155,0.54664945,0.00161072,0.00193629,-0.00047034,-0.000781
 71,-0.00004157,0.00061116,-0.00173933,0.00171115,-0.00031961,0.0001262
 6,-0.00049307,-0.00006858,0.00325780,-0.00090307,-0.00164033,-0.001587
 12,-0.00113442,0.00104529,-0.00925556,-0.03257766,0.00373965,0.0053193
 5,0.00116627,-0.00377260,-0.01241348,-0.13180618,-0.00535300,-0.000036
 09,0.00237861,0.00048362,-0.00072275,0.00004930,0.00018360,-0.02495327
 ,0.00568880,0.00801170,-0.00000683,-0.00000100,-0.00001411,-0.00019907
 ,-0.00077378,-0.00012907,0.00012930,0.00006937,0.00009424,0.00276968,0
 .00165182,-0.00119805,-0.00006985,-0.00018781,-0.00001010,0.00520243,-
 0.01040331,-0.00184314,-0.00207738,0.00089142,-0.00211017,0.00064682,0
 .00012539,0.00097548,0.00055390,-0.00028522,0.00013357,0.00014060,-0.0
 0003486,0.00040301,0.00017340,0.00016106,-0.00002682,0.00006191,0.0000
 0332,-0.00001127,-0.00025628,-0.00018688,-0.00004859,-0.00002223,-0.00
 000729,-0.00001708,0.00054976,0.00008668,0.00038073,-0.00031874,0.0000
 0461,-0.00006264,-0.00010805,-0.00003572,-0.00004654,0.00002461,0.0000
 4387,-0.00003527,0.00002107,-0.00003282,0.00004417,-0.00002175,-0.0000
 0320,-0.00004627,0.00000449,0.00001192,0.00000973,-0.00000919,-0.00004
 949,0.00004493,0.00000557,0.00000287,0.00000416,0.00005753,0.00005581,
 0.00001702,-0.00001345,-0.00000365,0.00000412,-0.00010024,-0.00006297,
 -0.00002432,0.00000007,0.00001814,-0.00000616,-0.00002286,0.00000501,-
 0.00002273,0.00001128,-0.00000217,-0.00000029,-0.00000092,-0.00000001,
 -0.00000264,0.00000100,0.00000332,-0.00000050,-0.00000054,-0.00000410,
 0.00000306,-0.00011783,0.00035577,-0.00014625,-0.00004023,-0.00002704,
 0.00002870,-0.00004711,-0.00001526,-0.00003239,0.06054031,-0.30593410,
 0.19735625,-0.09918694,-0.16015650,-0.07073239,0.07290092,0.62874235,-
 0.00120089,0.00115439,-0.00303699,-0.00001140,0.00010076,0.00002073,0.
 00021380,-0.00235976,-0.00163254,0.00454633,-0.00223644,-0.00080443,-0
 .00027943,0.00047119,0.00029188,0.00001779,0.00017990,-0.00043630,-0.0
 1231291,-0.00782109,0.00195160,0.00442407,-0.00234524,0.00355761,0.026
 41079,-0.00813927,-0.07506249,-0.00027936,-0.00007686,-0.00137687,-0.0
 0007190,-0.00073852,0.00120468,0.00699833,0.01620722,0.00216346,0.0000
 1128,-0.00000192,0.00002838,0.00538159,-0.00210864,0.00448491,-0.00027
 694,0.00006541,-0.00033207,0.00031774,0.00125449,0.00012426,0.00017802
 ,0.00002052,-0.00016667,-0.00204840,0.00326287,-0.00635097,-0.00109233
 ,-0.00012101,0.00178947,-0.00098356,-0.00001251,-0.00085971,-0.0002081
 3,0.00005790,-0.00020027,-0.00020651,0.00026162,-0.00051470,-0.0001061
 1,-0.00009312,0.00003996,-0.00000259,0.00002722,0.00001387,0.00011635,
 -0.00000321,-0.00011855,-0.00005693,0.00004357,-0.00000317,-0.00001349
 ,-0.00011454,0.00040950,0.00011920,0.00005164,-0.00028512,0.00003808,0
 .00004202,0.00000518,-0.00001591,-0.00006015,0.00002337,0.00000040,-0.
 00004545,-0.00002232,0.00003148,-0.00000931,0.00000791,-0.00001130,0.0
 0001100,0.00000835,-0.00000403,0.00001153,-0.00004573,-0.00001777,0.00
 003003,0.00001079,-0.00009037,-0.00002697,-0.00000813,0.00000768,0.000
 01364,0.00000434,0.00010557,0.00004471,0.00000817,-0.00002435,-0.00000
 899,0.00001234,0.00006009,-0.00002320,0.00000360,-0.00005330,0.0000330
 6,0.00001099,0.00000021,-0.00000951,-0.00000167,-0.00000096,-0.0000039
 5,0.00000037,0.00000914,0.00000694,-0.00000670,-0.00019894,0.00008855,
 0.00013632,0.00000078,0.00006299,0.00001250,0.00003689,-0.00001726,0.0
 0002149,-0.10314326,0.19944819,-0.28835447,-0.20935756,-0.07119154,-0.
 27276655,0.28304302,-0.12538293,0.63604040\\-0.00001919,-0.00001505,0.
 00001551,-0.00001905,-0.00001343,0.00000474,0.00002097,0.00001216,-0.0
 0002141,-0.00000002,-0.00000227,-0.00000299,-0.00006088,-0.00005952,0.
 00006955,0.00004342,0.00004820,-0.00005456,0.00000730,0.00000212,-0.00
 000026,-0.00000665,0.00000047,0.00000915,0.00004979,-0.00003469,0.0000
 3007,-0.00000348,0.00001629,-0.00000824,0.00001092,-0.00000084,-0.0000
 0362,-0.00004834,0.00000339,-0.00004195,0.00000573,0.00000559,-0.00000
 706,0.00005457,0.00002880,-0.00000712,-0.00000011,-0.00000224,0.000012
 18,-0.00001330,-0.00000733,0.00000224,-0.00002813,-0.00001443,0.000015
 28,-0.00007722,0.00001335,-0.00007261,-0.00000767,0.00002556,-0.000005
 08,0.00004579,-0.00007079,0.00009962,-0.00000196,-0.00000056,-0.000013
 00,-0.00000499,0.00000630,0.00000644,-0.00000297,0.00001947,-0.0000048
 3,0.00001079,-0.00001613,-0.00001899,-0.00002083,-0.00001304,0.0000158
 0,0.00001187,0.00000771,0.00000884,0.00008821,0.00009635,-0.00003532,-
 0.00001900,-0.00006631,0.00003752,0.00000798,-0.00001253,0.00001194,-0
 .00000968,-0.00000352,-0.00000080,-0.00003260,-0.00000903,0.00001394,0
 .00001523,0.00000564,0.00000204,0.00000896,-0.00000400,0.00000351,0.00
 000820,0.00000914,-0.00004036,-0.00001274,-0.00001053,-0.00000698,-0.0
 0006251,-0.00004136,0.00002034,0.00000366,0.00003490,-0.00001820,0.000
 02991,-0.00000803,0.00002302,0.00003038,0.00002229,-0.00000197,-0.0000
 1448,-0.00000441,-0.00001008,0.00002575,-0.00001671,0.00001667,-0.0000
 0981,0.00000322,0.00000350,-0.00000072,0.00000377,0.00000501,-0.000004
 27,0.00000764,0.00000324,-0.00000581,-0.00000153,-0.00000312,0.0000068
 5,-0.00001181,0.00000902,-0.00002649,0.00000073,-0.00000671,-0.0000345
 2,0.00019677,-0.00015463,0.00005837,0.00004313,0.00003635,0.00000279,-
 0.00017293,0.00006437\\\@


 WHEN ALL ELSE FAILS, LOOK AT THE SCHRODINGER EQUATION.
     -- RUSSELL T. PACK, APRIL 1978
 Job cpu time:       0 days 20 hours 12 minutes 30.3 seconds.
 Elapsed time:       0 days 20 hours 14 minutes 52.3 seconds.
 File lengths (MBytes):  RWF=   9567 Int=      0 D2E=      0 Chk=     89 Scr=      1
 Normal termination of Gaussian 16 at Fri Nov 15 10:31:53 2024.
