
                                 *****************
                                 * O   R   C   A *
                                 *****************

                                            #,                                       
                                            ###                                      
                                            ####                                     
                                            #####                                    
                                            ######                                   
                                           ########,                                 
                                     ,,################,,,,,                         
                               ,,#################################,,                 
                          ,,##########################################,,             
                       ,#########################################, ''#####,          
                    ,#############################################,,   '####,        
                  ,##################################################,,,,####,       
                ,###########''''           ''''###############################       
              ,#####''   ,,,,##########,,,,          '''####'''          '####       
            ,##' ,,,,###########################,,,                        '##       
           ' ,,###''''                  '''############,,,                           
         ,,##''                                '''############,,,,        ,,,,,,###''
      ,#''                                            '''#######################'''  
     '                                                          ''''####''''         
             ,#######,   #######,   ,#######,      ##                                
            ,#'     '#,  ##    ##  ,#'     '#,    #''#        ######   ,####,        
            ##       ##  ##   ,#'  ##            #'  '#       #        #'  '#        
            ##       ##  #######   ##           ,######,      #####,   #    #        
            '#,     ,#'  ##    ##  '#,     ,#' ,#      #,         ##   #,  ,#        
             '#######'   ##     ##  '#######'  #'      '#     #####' # '####'        



                  #######################################################
                  #                        -***-                        #
                  #          Department of theory and spectroscopy      #
                  #    Directorship and core code : Frank Neese         #
                  #        Max Planck Institute fuer Kohlenforschung    #
                  #                Kaiser Wilhelm Platz 1               #
                  #                 D-45470 Muelheim/Ruhr               #
                  #                      Germany                        #
                  #                                                     #
                  #                  All rights reserved                #
                  #                        -***-                        #
                  #######################################################


                         Program Version 5.0.4 -  RELEASE  -


 With contributions from (in alphabetic order):
   Daniel Aravena         : Magnetic Suceptibility
   Michael Atanasov       : Ab Initio Ligand Field Theory (pilot matlab implementation)
   Alexander A. Auer      : GIAO ZORA, VPT2 properties, NMR spectrum
   Ute Becker             : Parallelization
   Giovanni Bistoni       : ED, misc. LED, open-shell LED, HFLD
   Martin Brehm           : Molecular dynamics
   Dmytro Bykov           : SCF Hessian
   Vijay G. Chilkuri      : MRCI spin determinant printing, contributions to CSF-ICE
   Dipayan Datta          : RHF DLPNO-CCSD density
   Achintya Kumar Dutta   : EOM-CC, STEOM-CC
   Dmitry Ganyushin       : Spin-Orbit,Spin-Spin,Magnetic field MRCI
   Miquel Garcia          : C-PCM and meta-GGA Hessian, CC/C-PCM, Gaussian charge scheme
   Yang Guo               : DLPNO-NEVPT2, F12-NEVPT2, CIM, IAO-localization
   Andreas Hansen         : Spin unrestricted coupled pair/coupled cluster methods
   Benjamin Helmich-Paris : MC-RPA, TRAH-SCF, COSX integrals
   Lee Huntington         : MR-EOM, pCC
   Robert Izsak           : Overlap fitted RIJCOSX, COSX-SCS-MP3, EOM
   Marcus Kettner         : VPT2
   Christian Kollmar      : KDIIS, OOCD, Brueckner-CCSD(T), CCSD density, CASPT2, CASPT2-K
   Simone Kossmann        : Meta GGA functionals, TD-DFT gradient, OOMP2, MP2 Hessian
   Martin Krupicka        : Initial AUTO-CI
   Lucas Lang             : DCDCAS
   Marvin Lechner         : AUTO-CI (C++ implementation), FIC-MRCC
   Dagmar Lenk            : GEPOL surface, SMD
   Dimitrios Liakos       : Extrapolation schemes; Compound Job, initial MDCI parallelization
   Dimitrios Manganas     : Further ROCIS development; embedding schemes
   Dimitrios Pantazis     : SARC Basis sets
   Anastasios Papadopoulos: AUTO-CI, single reference methods and gradients
   Taras Petrenko         : DFT Hessian,TD-DFT gradient, ASA, ECA, R-Raman, ABS, FL, XAS/XES, NRVS
   Peter Pinski           : DLPNO-MP2, DLPNO-MP2 Gradient
   Christoph Reimann      : Effective Core Potentials
   Marius Retegan         : Local ZFS, SOC
   Christoph Riplinger    : Optimizer, TS searches, QM/MM, DLPNO-CCSD(T), (RO)-DLPNO pert. Triples
   Tobias Risthaus        : Range-separated hybrids, TD-DFT gradient, RPA, STAB
   Michael Roemelt        : Original ROCIS implementation
   Masaaki Saitow         : Open-shell DLPNO-CCSD energy and density
   Barbara Sandhoefer     : DKH picture change effects
   Avijit Sen             : IP-ROCIS
   Kantharuban Sivalingam : CASSCF convergence, NEVPT2, FIC-MRCI
   Bernardo de Souza      : ESD, SOC TD-DFT
   Georgi Stoychev        : AutoAux, RI-MP2 NMR, DLPNO-MP2 response
   Willem Van den Heuvel  : Paramagnetic NMR
   Boris Wezisla          : Elementary symmetry handling
   Frank Wennmohs         : Technical directorship


 We gratefully acknowledge several colleagues who have allowed us to
 interface, adapt or use parts of their codes:
   Stefan Grimme, W. Hujo, H. Kruse, P. Pracht,  : VdW corrections, initial TS optimization,
                  C. Bannwarth, S. Ehlert          DFT functionals, gCP, sTDA/sTD-DF
   Ed Valeev, F. Pavosevic, A. Kumar             : LibInt (2-el integral package), F12 methods
   Garnet Chan, S. Sharma, J. Yang, R. Olivares  : DMRG
   Ulf Ekstrom                                   : XCFun DFT Library
   Mihaly Kallay                                 : mrcc  (arbitrary order and MRCC methods)
   Jiri Pittner, Ondrej Demel                    : Mk-CCSD
   Frank Weinhold                                : gennbo (NPA and NBO analysis)
   Christopher J. Cramer and Donald G. Truhlar   : smd solvation model
   Lars Goerigk                                  : TD-DFT with DH, B97 family of functionals
   V. Asgeirsson, H. Jonsson                     : NEB implementation
   FAccTs GmbH                                   : IRC, NEB, NEB-TS, DLPNO-Multilevel, CI-OPT
                                                   MM, QMMM, 2- and 3-layer-ONIOM, Crystal-QMMM,
                                                   LR-CPCM, SF, NACMEs, symmetry and pop. for TD-DFT,
                                                   nearIR, NL-DFT gradient (VV10), updates on ESD,
                                                   ML-optimized integration grids
   S Lehtola, MJT Oliveira, MAL Marques          : LibXC Library
   Liviu Ungur et al                             : ANISO software


 Your calculation uses the libint2 library for the computation of 2-el integrals
 For citations please refer to: http://libint.valeyev.net

 Your ORCA version has been built with support for libXC version: 5.1.0
 For citations please refer to: https://tddft.org/programs/libxc/

 This ORCA versions uses:
   CBLAS   interface :  Fast vector & matrix operations
   LAPACKE interface :  Fast linear algebra routines
   SCALAPACK package :  Parallel linear algebra routines
   Shared memory     :  Shared parallel matrices
   BLAS/LAPACK       :  OpenBLAS 0.3.15  USE64BITINT DYNAMIC_ARCH NO_AFFINITY Zen SINGLE_THREADED
        Core in use  :  Zen
   Copyright (c) 2011-2014, The OpenBLAS Project


Your calculation utilizes the DFT-NL dispersion correction.
Cite in your paper:
Vydrov, O. A.; Van Voorhis, T. J. Chem. Phys. 2010, 133, 244103
Hujo, W.; Grimme, S. J. Chem. Theory Comput. 2011, 7, 3866 
   

================================================================================

----- Orbital basis set information -----
Your calculation utilizes the basis: 6-311+G(d)
   H, Li - Ne  : R. Krishnan, J. S. Binkley, R. Seeger and J. A. Pople, J. Chem. Phys. 72, 650 (1980).
   Na - Ar     : A. D. McLean and G. S. Chandler J. Chem. Phys. 72, 5639, (1980).
   K  - Ca     : J.-P. Blaudeau, M. P. McGrath, L. A. Curtiss and L. Radom, J. Chem. Phys. 107, 5016 (1997).
   Ga - Kr     : L. A. Curtiss, M. P. McGrath, J.-P. Blandeau, N. E. Davis, R. C. Binning and L. Radom, J. Chem. Phys. 103, 6104 (1995).
   Pol./Diff.
   H, Li - Cl  : T. Clark, J. Chandrasekhar and P. v. R. Schleyer, J. Comp. Chem. 4, 294 (1983).
   H - Ne      : M. J. Frisch, J. A. Pople and J. S. Binkley, J. Chem. Phys. 80, 3265 (1984).

----- AuxJ basis set information -----
Your calculation utilizes the auxiliary basis: def2/J
   F. Weigend, Phys. Chem. Chem. Phys. 8, 1057 (2006).

================================================================================
                                        WARNINGS
                       Please study these warnings very carefully!
================================================================================

Using LibXC functional ID 531 : wB97M-V exchange-correlation functional
[ 1]  N. Mardirossian and M. Head-Gordon, J. Chem. Phys. 144, 214110 (2016)
Using LibXC functional ID 531 : wB97M-V exchange-correlation functional
[ 1]  N. Mardirossian and M. Head-Gordon, J. Chem. Phys. 144, 214110 (2016)

WARNING: B97M-V or wB97M-V functional requested.
  ===> : libXC variant has now been activated.
         Any manually given DFX/HFX/RangeSep scaling parameters are IGNORED!

Your calculation utilizes LibXC
 by S Lehtola, C Steigemann, MJT Oliveira & MAL Marques
Please cite in your paper:
 S Lehtola, C Steigemann, MJT Oliveira & MAL Marques, SoftwareX, 7, (2018), 1.
   


WARNING: your system is open-shell and RHF/RKS was chosen
  ===> : WILL SWITCH to UHF/UKS


WARNING: Geometry Optimization
  ===> : Switching off AutoStart
         For restart on a previous wavefunction, please use MOREAD

WARNING: Analytic gradients for DFT-NL dispersion can only be done using the self-consistent method,
  ===>   Switching to SCNL

WARNING: Self-consistent DFT-NL dispersion not compatible with AutoTRAH.
  ===>   Switching AutoTRAH off


INFO   : the flag for use of the SHARK integral package has been found!

================================================================================
                                       INPUT FILE
================================================================================
NAME = CURCUMIN-OPT-FREQ-TS2-WB97M-V-6-311+G-D-298.inp
|  1> ! OptTS NumFreq wb97M-V 6-311+G(d) CPCM RIJDX
|  2> %maxcore 2000
|  3> %cpcm
|  4> epsilon 7 # Dielectric constant
|  5> refrac 1.85341 # Refractive index
|  6> end
|  7> 
|  8> * xyz 0 2
|  9> C         -2.53029        0.30007       -0.18442
| 10> H         -2.02287        0.58664       -1.10152
| 11> C         -1.94279        0.58427        1.00090
| 12> H         -2.41363        0.31521        1.94136
| 13> C         -0.65529        1.25754        1.17145
| 14> O         -0.17874        1.44613        2.28310
| 15> C         -3.80823       -0.35518       -0.39391
| 16> C         -4.26130       -0.54905       -1.71071
| 17> C         -4.62356       -0.81666        0.66064
| 18> C         -5.47747       -1.16528       -1.96584
| 19> H         -3.65470       -0.20446       -2.54180
| 20> C         -5.83846       -1.43168        0.42240
| 21> H         -4.32528       -0.69159        1.69516
| 22> C         -6.28006       -1.60554       -0.91100
| 23> H         -5.81953       -1.29721       -2.98877
| 24> O         -7.48721       -2.18766       -1.09799
| 25> H         -7.68408       -2.24325       -2.04425
| 26> O         -6.62287       -1.79866        1.48091
| 27> C         -6.78493       -3.21257        1.68140
| 28> H         -5.81284       -3.69404        1.82869
| 29> H         -7.38203       -3.32086        2.58616
| 30> H         -7.30630       -3.67905        0.84380
| 31> C          2.75623        0.25586       -0.11040
| 32> H          1.84219       -0.27506       -0.36522
| 33> C          2.68181        1.57122        0.18844
| 34> H          3.56834        2.14029        0.45384
| 35> C          1.45761        2.37684        0.22950
| 36> O          1.49963        3.56829        0.49296
| 37> C          3.95155       -0.57452       -0.13198
| 38> C          3.83099       -1.92915       -0.48228
| 39> C          5.23667       -0.08744        0.18094
| 40> C          4.93970       -2.76496       -0.50902
| 41> H          2.85501       -2.33417       -0.72909
| 42> C          6.35068       -0.90755        0.15863
| 43> H          5.39059        0.94752        0.46353
| 44> C          6.20404       -2.27081       -0.18553
| 45> H          4.82763       -3.81437       -0.76879
| 46> O          7.31651       -3.04542       -0.16801
| 47> H          7.08777       -3.95347       -0.41243
| 48> O          7.56352       -0.39836        0.53727
| 49> C          8.54526       -0.28209       -0.50517
| 50> H          8.17457        0.35563       -1.31426
| 51> H          9.41610        0.18607       -0.04742
| 52> H          8.82497       -1.25921       -0.90286
| 53> C          0.12041        1.70452       -0.04999
| 54> H          0.13688        0.97134       -0.85706
| 55> H         -0.57232        2.62448       -0.56302
| 56> O         -1.27184        3.55086       -1.16510
| 57> O         -2.65472        5.01212       -0.54160
| 58> N         -1.95432        4.12489       -0.15327
| 59> *
| 60> 
| 61>                          ****END OF INPUT****
================================================================================

                       *****************************
                       * Geometry Optimization Run *
                       *****************************

Geometry optimization settings:
Update method            Update   .... Bofill
Choice of coordinates    CoordSys .... Z-matrix Internals
Initial Hessian          InHess   .... Almoef's Model

Convergence Tolerances:
Energy Change            TolE     ....  5.0000e-06 Eh
Max. Gradient            TolMAXG  ....  3.0000e-04 Eh/bohr
RMS Gradient             TolRMSG  ....  1.0000e-04 Eh/bohr
Max. Displacement        TolMAXD  ....  4.0000e-03 bohr
RMS Displacement         TolRMSD  ....  2.0000e-03 bohr
Strict Convergence                ....  False
------------------------------------------------------------------------------
                        ORCA OPTIMIZATION COORDINATE SETUP
------------------------------------------------------------------------------

The optimization will be done in new redundant internal coordinates
Making redundant internal coordinates   ...  (new redundants) done
Following TS mode number                ...     0
Evaluating the initial hessian          ...  (Almloef) done
Evaluating the coordinates              ...  done
Calculating the B-matrix                .... done
Calculating the G-matrix                .... done
Diagonalizing the G-matrix              .... done
Small eigenvalue found = 6.096e-04
Small eigenvalue found = 1.282e-03
Small eigenvalue found = 4.671e-03
Small eigenvalue found = 6.484e-03
Small eigenvalue found = 7.755e-03
Small eigenvalue found = 8.274e-03
Small eigenvalue found = 1.455e-02
Small eigenvalue found = 1.635e-02
Small eigenvalue found = 2.595e-02
Small eigenvalue found = 2.687e-02
Small eigenvalue found = 2.960e-02
The first mode is                       ....   89
The number of degrees of freedom        ....  144

    -----------------------------------------------------------------
                    Redundant Internal Coordinates


    -----------------------------------------------------------------
         Definition                    Initial Value    Approx d2E/dq
    -----------------------------------------------------------------
      1. B(H   1,C   0)                  1.0866         0.364644   
      2. B(C   2,C   0)                  1.3531         0.715472   
      3. B(H   3,C   2)                  1.0856         0.365955   
      4. B(C   4,C   2)                  1.4629         0.478028   
      5. B(O   5,C   4)                  1.2241         1.029322   
      6. B(C   6,C   0)                  1.4513         0.498752   
      7. B(C   7,C   6)                  1.4060         0.589143   
      8. B(C   8,C   6)                  1.4106         0.579251   
      9. B(C   9,C   7)                  1.3870         0.631611   
     10. B(H  10,C   7)                  1.0851         0.366657   
     11. B(C  11,C   8)                  1.3824         0.642520   
     12. B(H  12,C   8)                  1.0839         0.368257   
     13. B(C  13,C  11)                  1.4153         0.569255   
     14. B(C  13,C   9)                  1.3967         0.609689   
     15. B(H  14,C   9)                  1.0866         0.364566   
     16. B(O  15,C  13)                  1.3532         0.640697   
     17. B(H  16,O  15)                  0.9681         0.504675   
     18. B(O  17,C  11)                  1.3676         0.607523   
     19. B(C  18,O  17)                  1.4372         0.470478   
     20. B(H  19,C  18)                  1.0947         0.353877   
     21. B(H  20,C  18)                  1.0894         0.360862   
     22. B(H  21,C  18)                  1.0913         0.358343   
     23. B(H  23,C  22)                  1.0873         0.363654   
     24. B(C  24,C  22)                  1.3509         0.721224   
     25. B(H  25,C  24)                  1.0864         0.364926   
     26. B(C  26,C  24)                  1.4661         0.472461   
     27. B(O  27,C  26)                  1.2210         1.041302   
     28. B(C  28,C  22)                  1.4556         0.490987   
     29. B(C  29,C  28)                  1.4044         0.592659   
     30. B(C  30,C  28)                  1.4095         0.581597   
     31. B(C  31,C  29)                  1.3887         0.627751   
     32. B(H  32,C  29)                  1.0851         0.366609   
     33. B(C  33,C  30)                  1.3835         0.639875   
     34. B(H  34,C  30)                  1.0838         0.368353   
     35. B(C  35,C  33)                  1.4137         0.572789   
     36. B(C  35,C  31)                  1.3955         0.612327   
     37. B(H  36,C  31)                  1.0869         0.364255   
     38. B(O  37,C  35)                  1.3557         0.634749   
     39. B(H  38,O  37)                  0.9678         0.505287   
     40. B(O  39,C  33)                  1.3688         0.604913   
     41. B(C  40,O  39)                  1.4367         0.471434   
     42. B(H  41,C  40)                  1.0949         0.353724   
     43. B(H  42,C  40)                  1.0895         0.360725   
     44. B(H  43,C  40)                  1.0914         0.358250   
     45. B(C  44,C  26)                  1.5226         0.383906   
     46. B(C  44,C   4)                  1.5144         0.395604   
     47. B(H  45,C  44)                  1.0905         0.359442   
     48. B(H  46,C  44)                  1.2607         0.192335   
     49. B(O  47,H  46)                  1.3077         0.144970   
     50. B(N  49,O  48)                  1.1952         1.025133   
     51. B(N  49,O  47)                  1.3487         0.583238   
     52. A(H   1,C   0,C   6)          114.1067         0.340940   
     53. A(H   1,C   0,C   2)          118.7642         0.362379   
     54. A(C   2,C   0,C   6)          127.1269         0.428305   
     55. A(C   0,C   2,H   3)          121.2321         0.362601   
     56. A(C   0,C   2,C   4)          125.5155         0.425061   
     57. A(H   3,C   2,C   4)          113.2523         0.338734   
     58. A(C   2,C   4,O   5)          121.2927         0.450894   
     59. A(C   2,C   4,C  44)          119.5125         0.382883   
     60. A(O   5,C   4,C  44)          119.1812         0.435720   
     61. A(C   0,C   6,C   7)          118.7627         0.413708   
     62. A(C   7,C   6,C   8)          117.9561         0.424893   
     63. A(C   0,C   6,C   8)          123.2806         0.412466   
     64. A(C   9,C   7,H  10)          119.3649         0.355104   
     65. A(C   6,C   7,H  10)          119.5642         0.350945   
     66. A(C   6,C   7,C   9)          121.0691         0.431537   
     67. A(C   6,C   8,H  12)          121.1123         0.350200   
     68. A(C   6,C   8,C  11)          121.6468         0.431552   
     69. A(C  11,C   8,H  12)          117.2371         0.356401   
     70. A(C  13,C   9,H  14)          119.4597         0.352644   
     71. A(C   7,C   9,H  14)          120.2051         0.354760   
     72. A(C   7,C   9,C  13)          120.3300         0.434205   
     73. A(C  13,C  11,O  17)          121.1478         0.423135   
     74. A(C   8,C  11,O  17)          119.3444         0.432418   
     75. A(C   8,C  11,C  13)          119.4208         0.430205   
     76. A(C  11,C  13,O  15)          117.4759         0.427180   
     77. A(C   9,C  13,O  15)          122.9483         0.432473   
     78. A(C   9,C  13,C  11)          119.5718         0.426179   
     79. A(C  13,O  15,H  16)          109.9488         0.370308   
     80. A(C  11,O  17,C  18)          115.8885         0.406395   
     81. A(O  17,C  18,H  21)          111.5500         0.334617   
     82. A(H  19,C  18,H  20)          109.3432         0.290141   
     83. A(O  17,C  18,H  20)          105.9884         0.335006   
     84. A(O  17,C  18,H  19)          110.5675         0.333920   
     85. A(H  20,C  18,H  21)          109.4556         0.290713   
     86. A(H  19,C  18,H  21)          109.8455         0.289822   
     87. A(C  24,C  22,C  28)          127.1545         0.427715   
     88. A(H  23,C  22,C  28)          114.0974         0.339892   
     89. A(H  23,C  22,C  24)          118.7479         0.362706   
     90. A(H  25,C  24,C  26)          112.7508         0.337914   
     91. A(C  22,C  24,C  26)          125.9610         0.424779   
     92. A(C  22,C  24,H  25)          121.2731         0.362923   
     93. A(C  24,C  26,O  27)          120.8996         0.450883   
     94. A(O  27,C  26,C  44)          120.0485         0.434275   
     95. A(C  24,C  26,C  44)          119.0497         0.380120   
     96. A(C  29,C  28,C  30)          117.8381         0.425654   
     97. A(C  22,C  28,C  30)          123.2498         0.411615   
     98. A(C  22,C  28,C  29)          118.9121         0.412993   
     99. A(C  31,C  29,H  32)          119.2780         0.354727   
    100. A(C  28,C  29,H  32)          119.6020         0.351290   
    101. A(C  28,C  29,C  31)          121.1182         0.431523   
    102. A(C  33,C  30,H  34)          117.1228         0.356167   
    103. A(C  28,C  30,H  34)          121.1549         0.350455   
    104. A(C  28,C  30,C  33)          121.7171         0.431546   
    105. A(C  35,C  31,H  36)          119.3882         0.352850   
    106. A(C  29,C  31,H  36)          120.2246         0.354340   
    107. A(C  29,C  31,C  35)          120.3815         0.434064   
    108. A(C  35,C  33,O  39)          121.1976         0.423277   
    109. A(C  30,C  33,O  39)          119.2413         0.431763   
    110. A(C  30,C  33,C  35)          119.4750         0.430365   
    111. A(C  33,C  35,O  37)          117.5639         0.426940   
    112. A(C  31,C  35,O  37)          122.9658         0.432084   
    113. A(C  31,C  35,C  33)          119.4655         0.426981   
    114. A(C  35,O  37,H  38)          109.8093         0.369791   
    115. A(C  33,O  39,C  40)          115.7773         0.406231   
    116. A(H  41,C  40,H  42)          109.3179         0.290104   
    117. A(O  39,C  40,H  42)          106.0283         0.335098   
    118. A(O  39,C  40,H  41)          110.6087         0.334009   
    119. A(H  42,C  40,H  43)          109.4476         0.290683   
    120. A(H  41,C  40,H  43)          109.8142         0.289791   
    121. A(O  39,C  40,H  43)          111.5351         0.334715   
    122. A(H  45,C  44,H  46)          101.4048         0.264057   
    123. A(C  26,C  44,H  46)          103.5949         0.294443   
    124. A(C   4,C  44,H  46)          105.1972         0.295844   
    125. A(C  26,C  44,H  45)          114.8012         0.325678   
    126. A(C   4,C  44,H  45)          113.9673         0.327292   
    127. A(C   4,C  44,C  26)          115.6027         0.368654   
    128. L(C  44,H  46,O  47,C  26, 2) 174.9615         0.229875   
    129. L(C  44,H  46,O  47,C  26, 1) 180.2951         0.229875   
    130. A(H  46,O  47,N  49)          103.1077         0.294906   
    131. A(O  47,N  49,O  48)          111.6365         0.457830   
    132. D(H   3,C   2,C   0,C   6)      0.6432         0.036189   
    133. D(C   4,C   2,C   0,C   6)   -179.4660         0.036189   
    134. D(H   3,C   2,C   0,H   1)   -179.9315         0.036189   
    135. D(C   4,C   2,C   0,H   1)     -0.0408         0.036189   
    136. D(C  44,C   4,C   2,H   3)   -179.5699         0.015558   
    137. D(O   5,C   4,C   2,H   3)      1.7803         0.015558   
    138. D(O   5,C   4,C   2,C   0)   -178.1180         0.015558   
    139. D(C  44,C   4,C   2,C   0)      0.5317         0.015558   
    140. D(C   8,C   6,C   0,H   1)    179.4791         0.016943   
    141. D(C   8,C   6,C   0,C   2)     -1.0729         0.016943   
    142. D(C   7,C   6,C   0,C   2)    179.2149         0.016943   
    143. D(C   7,C   6,C   0,H   1)     -0.2332         0.016943   
    144. D(H  10,C   7,C   6,C   0)     -0.2574         0.023882   
    145. D(C   9,C   7,C   6,C   8)      0.5131         0.023882   
    146. D(C   9,C   7,C   6,C   0)   -179.7593         0.023882   
    147. D(H  10,C   7,C   6,C   8)   -179.9851         0.023882   
    148. D(H  12,C   8,C   6,C   7)   -179.8389         0.023049   
    149. D(H  12,C   8,C   6,C   0)      0.4467         0.023049   
    150. D(C  11,C   8,C   6,C   0)    179.7202         0.023049   
    151. D(C  11,C   8,C   6,C   7)     -0.5654         0.023049   
    152. D(C  13,C   9,C   7,H  10)   -179.4119         0.027669   
    153. D(H  14,C   9,C   7,C   6)    179.2620         0.027669   
    154. D(H  14,C   9,C   7,H  10)     -0.2408         0.027669   
    155. D(C  13,C   9,C   7,C   6)      0.0910         0.027669   
    156. D(O  17,C  11,C   8,H  12)      2.6668         0.028698   
    157. D(O  17,C  11,C   8,C   6)   -176.6336         0.028698   
    158. D(C  13,C  11,C   8,H  12)    179.3146         0.028698   
    159. D(C  13,C  11,C   8,C   6)      0.0141         0.028698   
    160. D(O  15,C  13,C   9,C   7)    178.5921         0.025671   
    161. D(C  11,C  13,C   9,H  14)   -179.8326         0.025671   
    162. D(C  11,C  13,C   9,C   7)     -0.6554         0.025671   
    163. D(O  15,C  13,C  11,O  17)     -2.1011         0.022227   
    164. D(O  15,C  13,C  11,C   8)   -178.6866         0.022227   
    165. D(C   9,C  13,C  11,O  17)    177.1872         0.022227   
    166. D(C   9,C  13,C  11,C   8)      0.6016         0.022227   
    167. D(O  15,C  13,C   9,H  14)     -0.5851         0.025671   
    168. D(H  16,O  15,C  13,C  11)    179.3749         0.030267   
    169. D(H  16,O  15,C  13,C   9)      0.1126         0.030267   
    170. D(C  18,O  17,C  11,C  13)     71.0175         0.027001   
    171. D(C  18,O  17,C  11,C   8)   -112.3944         0.027001   
    172. D(H  21,C  18,O  17,C  11)    -64.0847         0.017448   
    173. D(H  20,C  18,O  17,C  11)    176.8587         0.017448   
    174. D(H  19,C  18,O  17,C  11)     58.4652         0.017448   
    175. D(C  26,C  24,C  22,C  28)   -178.6266         0.036826   
    176. D(C  26,C  24,C  22,H  23)      1.1904         0.036826   
    177. D(H  25,C  24,C  22,C  28)     -0.1453         0.036826   
    178. D(H  25,C  24,C  22,H  23)    179.6718         0.036826   
    179. D(C  44,C  26,C  24,H  25)   -176.9725         0.015199   
    180. D(C  44,C  26,C  24,C  22)      1.6200         0.015199   
    181. D(O  27,C  26,C  24,H  25)      2.4870         0.015199   
    182. D(O  27,C  26,C  24,C  22)   -178.9205         0.015199   
    183. D(C  30,C  28,C  22,C  24)      0.5281         0.016415   
    184. D(C  30,C  28,C  22,H  23)   -179.2962         0.016415   
    185. D(C  29,C  28,C  22,C  24)   -179.3780         0.016415   
    186. D(C  29,C  28,C  22,H  23)      0.7977         0.016415   
    187. D(H  32,C  29,C  28,C  30)   -179.9676         0.024183   
    188. D(H  32,C  29,C  28,C  22)     -0.0564         0.024183   
    189. D(C  31,C  29,C  28,C  30)      0.5218         0.024183   
    190. D(C  31,C  29,C  28,C  22)   -179.5670         0.024183   
    191. D(H  34,C  30,C  28,C  29)   -179.6647         0.023245   
    192. D(H  34,C  30,C  28,C  22)      0.4283         0.023245   
    193. D(C  33,C  30,C  28,C  29)     -0.5169         0.023245   
    194. D(C  33,C  30,C  28,C  22)    179.5760         0.023245   
    195. D(H  36,C  31,C  29,H  32)     -0.3667         0.027311   
    196. D(H  36,C  31,C  29,C  28)    179.1455         0.027311   
    197. D(C  35,C  31,C  29,H  32)   -179.4965         0.027311   
    198. D(C  35,C  31,C  29,C  28)      0.0157         0.027311   
    199. D(O  39,C  33,C  30,H  34)      2.4892         0.028447   
    200. D(O  39,C  33,C  30,C  28)   -176.6914         0.028447   
    201. D(C  35,C  33,C  30,H  34)    179.1558         0.028447   
    202. D(C  35,C  33,C  30,C  28)     -0.0248         0.028447   
    203. D(O  37,C  35,C  33,C  30)   -178.6538         0.022515   
    204. D(C  31,C  35,C  33,O  39)    177.1730         0.022515   
    205. D(C  31,C  35,C  33,C  30)      0.5735         0.022515   
    206. D(O  37,C  35,C  31,H  36)     -0.5242         0.025907   
    207. D(O  37,C  35,C  31,C  29)    178.6128         0.025907   
    208. D(C  33,C  35,C  31,H  36)   -179.7078         0.025907   
    209. D(O  37,C  35,C  33,O  39)     -2.0543         0.022515   
    210. D(C  33,C  35,C  31,C  29)     -0.5708         0.025907   
    211. D(H  38,O  37,C  35,C  33)    179.5064         0.029664   
    212. D(H  38,O  37,C  35,C  31)      0.3083         0.029664   
    213. D(C  40,O  39,C  33,C  35)     70.8264         0.026754   
    214. D(C  40,O  39,C  33,C  30)   -112.5663         0.026754   
    215. D(H  43,C  40,O  39,C  33)    -64.0613         0.017520   
    216. D(H  42,C  40,O  39,C  33)    176.8755         0.017520   
    217. D(H  41,C  40,O  39,C  33)     58.4671         0.017520   
    218. D(H  46,C  44,C  26,O  27)     30.7501         0.010984   
    219. D(H  46,C  44,C  26,C  24)   -149.7857         0.010984   
    220. D(H  45,C  44,C  26,O  27)    140.3749         0.010984   
    221. D(H  45,C  44,C  26,C  24)    -40.1609         0.010984   
    222. D(C   4,C  44,C  26,O  27)    -83.7656         0.010984   
    223. D(C   4,C  44,C  26,C  24)     95.6986         0.010984   
    224. D(H  46,C  44,C   4,O   5)   -114.0397         0.011627   
    225. D(H  46,C  44,C   4,C   2)     67.2818         0.011627   
    226. D(H  45,C  44,C   4,O   5)    135.7786         0.011627   
    227. D(H  45,C  44,C   4,C   2)    -42.8998         0.011627   
    228. D(C  26,C  44,C   4,O   5)     -0.4454         0.011627   
    229. D(C  26,C  44,C   4,C   2)   -179.1238         0.011627   
    230. D(N  49,O  47,C  44,H  45)    147.7220         0.001504   
    231. D(N  49,O  47,C  44,C  26)    -93.5433         0.001504   
    232. D(N  49,O  47,C  44,C   4)     28.9461         0.001504   
    233. D(O  48,N  49,O  47,H  46)    179.8684         0.025732   
    -----------------------------------------------------------------

Number of atoms                         .... 50
Number of degrees of freedom            .... 233

         *************************************************************
         *                GEOMETRY OPTIMIZATION CYCLE   1            *
         *************************************************************
---------------------------------
CARTESIAN COORDINATES (ANGSTROEM)
---------------------------------
  C     -2.530290    0.300070   -0.184420
  H     -2.022870    0.586640   -1.101520
  C     -1.942790    0.584270    1.000900
  H     -2.413630    0.315210    1.941360
  C     -0.655290    1.257540    1.171450
  O     -0.178740    1.446130    2.283100
  C     -3.808230   -0.355180   -0.393910
  C     -4.261300   -0.549050   -1.710710
  C     -4.623560   -0.816660    0.660640
  C     -5.477470   -1.165280   -1.965840
  H     -3.654700   -0.204460   -2.541800
  C     -5.838460   -1.431680    0.422400
  H     -4.325280   -0.691590    1.695160
  C     -6.280060   -1.605540   -0.911000
  H     -5.819530   -1.297210   -2.988770
  O     -7.487210   -2.187660   -1.097990
  H     -7.684080   -2.243250   -2.044250
  O     -6.622870   -1.798660    1.480910
  C     -6.784930   -3.212570    1.681400
  H     -5.812840   -3.694040    1.828690
  H     -7.382030   -3.320860    2.586160
  H     -7.306300   -3.679050    0.843800
  C      2.756230    0.255860   -0.110400
  H      1.842190   -0.275060   -0.365220
  C      2.681810    1.571220    0.188440
  H      3.568340    2.140290    0.453840
  C      1.457610    2.376840    0.229500
  O      1.499630    3.568290    0.492960
  C      3.951550   -0.574520   -0.131980
  C      3.830990   -1.929150   -0.482280
  C      5.236670   -0.087440    0.180940
  C      4.939700   -2.764960   -0.509020
  H      2.855010   -2.334170   -0.729090
  C      6.350680   -0.907550    0.158630
  H      5.390590    0.947520    0.463530
  C      6.204040   -2.270810   -0.185530
  H      4.827630   -3.814370   -0.768790
  O      7.316510   -3.045420   -0.168010
  H      7.087770   -3.953470   -0.412430
  O      7.563520   -0.398360    0.537270
  C      8.545260   -0.282090   -0.505170
  H      8.174570    0.355630   -1.314260
  H      9.416100    0.186070   -0.047420
  H      8.824970   -1.259210   -0.902860
  C      0.120410    1.704520   -0.049990
  H      0.136880    0.971340   -0.857060
  H     -0.572320    2.624480   -0.563020
  O     -1.271840    3.550860   -1.165100
  O     -2.654720    5.012120   -0.541600
  N     -1.954320    4.124890   -0.153270

----------------------------
CARTESIAN COORDINATES (A.U.)
----------------------------
  NO LB      ZA    FRAG     MASS         X           Y           Z
   0 C     6.0000    0    12.011   -4.781555    0.567050   -0.348503
   1 H     1.0000    0     1.008   -3.822670    1.108589   -2.081571
   2 C     6.0000    0    12.011   -3.671341    1.104110    1.891427
   3 H     1.0000    0     1.008   -4.561100    0.595661    3.668639
   4 C     6.0000    0    12.011   -1.238319    2.376406    2.213720
   5 O     8.0000    0    15.999   -0.337770    2.732790    4.314434
   6 C     6.0000    0    12.011   -7.196512   -0.671193   -0.744382
   7 C     6.0000    0    12.011   -8.052690   -1.037554   -3.232773
   8 C     6.0000    0    12.011   -8.737262   -1.543264    1.248429
   9 C     6.0000    0    12.011  -10.350918   -2.202060   -3.714899
  10 H     1.0000    0     1.008   -6.906382   -0.386373   -4.803306
  11 C     6.0000    0    12.011  -11.033090   -2.705483    0.798220
  12 H     1.0000    0     1.008   -8.173595   -1.306916    3.203388
  13 C     6.0000    0    12.011  -11.867594   -3.034031   -1.721541
  14 H     1.0000    0     1.008  -10.997318   -2.451372   -5.647957
  15 O     8.0000    0    15.999  -14.148776   -4.134078   -2.074900
  16 H     1.0000    0     1.008  -14.520807   -4.239128   -3.863073
  17 O     8.0000    0    15.999  -12.515411   -3.398975    2.798514
  18 C     6.0000    0    12.011  -12.821660   -6.070877    3.177386
  19 H     1.0000    0     1.008  -10.984676   -6.980724    3.455723
  20 H     1.0000    0     1.008  -13.950015   -6.275516    4.887134
  21 H     1.0000    0     1.008  -13.806906   -6.952397    1.594551
  22 C     6.0000    0    12.011    5.208520    0.483505   -0.208626
  23 H     1.0000    0     1.008    3.481235   -0.519788   -0.690166
  24 C     6.0000    0    12.011    5.067886    2.969175    0.356100
  25 H     1.0000    0     1.008    6.743185    4.044562    0.857633
  26 C     6.0000    0    12.011    2.754484    4.491577    0.433692
  27 O     8.0000    0    15.999    2.833890    6.743091    0.931559
  28 C     6.0000    0    12.011    7.467347   -1.085685   -0.249406
  29 C     6.0000    0    12.011    7.239522   -3.645565   -0.911377
  30 C     6.0000    0    12.011    9.895872   -0.165238    0.341927
  31 C     6.0000    0    12.011    9.334680   -5.225017   -0.961908
  32 H     1.0000    0     1.008    5.395187   -4.410942   -1.377780
  33 C     6.0000    0    12.011   12.001046   -1.715021    0.299767
  34 H     1.0000    0     1.008   10.186739    1.790553    0.875945
  35 C     6.0000    0    12.011   11.723937   -4.291209   -0.350601
  36 H     1.0000    0     1.008    9.122899   -7.208115   -1.452803
  37 O     8.0000    0    15.999   13.826200   -5.755010   -0.317493
  38 H     1.0000    0     1.008   13.393944   -7.470976   -0.779380
  39 O     8.0000    0    15.999   14.292981   -0.752791    1.015293
  40 C     6.0000    0    12.011   16.148201   -0.533073   -0.954633
  41 H     1.0000    0     1.008   15.447699    0.672043   -2.483591
  42 H     1.0000    0     1.008   17.793850    0.351621   -0.089611
  43 H     1.0000    0     1.008   16.676776   -2.379562   -1.706158
  44 C     6.0000    0    12.011    0.227542    3.221076   -0.094467
  45 H     1.0000    0     1.008    0.258666    1.835567   -1.619609
  46 H     1.0000    0     1.008   -1.081528    4.959548   -1.063954
  47 O     8.0000    0    15.999   -2.403429    6.710153   -2.201720
  48 O     8.0000    0    15.999   -5.016694    9.471534   -1.023476
  49 N     7.0000    0    14.007   -3.693130    7.794912   -0.289638

--------------------------------
INTERNAL COORDINATES (ANGSTROEM)
--------------------------------
 C      0   0   0     0.000000000000     0.00000000     0.00000000
 H      1   0   0     1.086586320225     0.00000000     0.00000000
 C      1   2   0     1.353111005202   118.76423585     0.00000000
 H      3   1   2     1.085609782933   121.23213690   180.06846438
 C      3   1   2     1.462886203845   125.51546555   359.95922653
 O      5   3   1     1.224104494355   121.29273058   181.88200969
 C      1   2   3     1.451333616437   114.10665486   179.49798143
 C      7   1   2     1.405994396077   118.76269118   359.76682511
 C      7   1   2     1.410603594849   123.28056184   179.47906701
 C      8   7   1     1.387047295048   121.06914172   180.24071698
 H      8   7   1     1.085088206645   119.56415133   359.74257055
 C      9   7   1     1.382385585862   121.64680235   179.72016059
 H      9   7   1     1.083902714131   121.11233561     0.44667437
 C     10   8   7     1.396662808734   120.33001936     0.09097946
 H     10   8   7     1.086644538660   120.20514776   179.26202432
 O     14  10   8     1.353159294762   122.94828193   178.59211853
 H     16  14  10     0.968119844131   109.94878609     0.11264266
 O     12   9   7     1.367631817632   119.34437161   183.36636965
 C     18  12   9     1.437219945520   115.88854931   247.60562958
 H     19  18  12     1.094745026524   110.56750386    58.46517880
 H     19  18  12     1.089424523177   105.98844696   176.85872919
 H     19  18  12     1.091331309594   111.54997040   295.91534447
 C      5   3   1     3.779546395442   129.26411037   301.41928674
 H     23   5   3     1.087326262168    56.64078682     5.33516135
 C     23   5   3     1.350931386711    67.49299357   158.98537609
 H     25  23   5     1.086376208226   121.27313814   154.65787672
 C     25  23   5     1.466074741614   125.96095978   336.17652427
 O     27  25  23     1.220954525975   120.89956924   181.07950450
 C     23   5   3     1.455605215434   153.82369063   288.70532998
 C     29  23   5     1.404374323498   118.91205303    63.69332690
 C     29  23   5     1.409503198719   123.24976517   243.59943653
 C     30  29  23     1.388715682852   121.11823241   180.43300333
 H     30  29  23     1.085123650512   119.60199547   359.94362249
 C     31  29  23     1.383508738064   121.71709098   179.57600506
 H     31  29  23     1.083831479567   121.15488606     0.42827964
 C     32  30  29     1.395487598727   120.38149035     0.00000000
 H     32  30  29     1.086876941470   120.22463291   179.14547481
 O     36  32  30     1.355698013350   122.96583297   178.61280020
 H     38  36  32     0.967790228562   109.80934023     0.30828418
 O     34  31  29     1.368803700791   119.24130432   183.30863463
 C     40  34  31     1.436667426407   115.77731013   247.43372069
 H     41  40  34     1.094862777977   110.60870387    58.46713868
 H     41  40  34     1.089527949940   106.02826835   176.87553022
 H     41  40  34     1.091402086584   111.53509362   295.93867270
 C      5   3   1     1.514403276542   119.51249275     0.53173835
 H     45   5   3     1.090498123887   113.96733346   317.10021094
 H     45   5   3     1.260714494007   105.19716811    67.28183494
 O     47  45   5     1.307672918279   176.59751556   218.59761059
 O     48  47  45     2.106273992623   134.94239251   170.20960375
 N     49  48  47     1.195214383197    36.52866887   359.81890068

---------------------------
INTERNAL COORDINATES (A.U.)
---------------------------
 C      0   0   0     0.000000000000     0.00000000     0.00000000
 H      1   0   0     2.053350566090     0.00000000     0.00000000
 C      1   2   0     2.557009228628   118.76423585     0.00000000
 H      3   1   2     2.051505178049   121.23213690   180.06846438
 C      3   1   2     2.764454290359   125.51546555   359.95922653
 O      5   3   1     2.313222253633   121.29273058   181.88200969
 C      1   2   3     2.742623064019   114.10665486   179.49798143
 C      7   1   2     2.656944354414   118.76269118   359.76682511
 C      7   1   2     2.665654477789   123.28056184   179.47906701
 C      8   7   1     2.621139522437   121.06914172   180.24071698
 H      8   7   1     2.050519541707   119.56415133   359.74257055
 C      9   7   1     2.612330168760   121.64680235   179.72016059
 H      9   7   1     2.048279285521   121.11233561     0.44667437
 C     10   8   7     2.639310209940   120.33001936     0.09097946
 H     10   8   7     2.053460582989   120.20514776   179.26202432
 O     14  10   8     2.557100482670   122.94828193   178.59211853
 H     16  14  10     1.829481370222   109.94878609     0.11264266
 O     12   9   7     2.584449587362   119.34437161   183.36636965
 C     18  12   9     2.715952091242   115.88854931   247.60562958
 H     19  18  12     2.068768286604   110.56750386    58.46517880
 H     19  18  12     2.058713992383   105.98844696   176.85872919
 H     19  18  12     2.062317296506   111.54997040   295.91534447
 C      5   3   1     7.142307597835   129.26411037   301.41928674
 H     23   5   3     2.054748853718    56.64078682     5.33516135
 C     23   5   3     2.552890346602    67.49299357   158.98537609
 H     25  23   5     2.052953511955   121.27313814   154.65787672
 C     25  23   5     2.770479753511   125.96095978   336.17652427
 O     27  25  23     2.307269676065   120.89956924   181.07950450
 C     23   5   3     2.750695216279   153.82369063   288.70532998
 C     29  23   5     2.653882860922   118.91205303    63.69332690
 C     29  23   5     2.663575030466   123.24976517   243.59943653
 C     30  29  23     2.624292318472   121.11823241   180.43300333
 H     30  29  23     2.050586520908   119.60199547   359.94362249
 C     31  29  23     2.614452618828   121.71709098   179.57600506
 H     31  29  23     2.048144671704   121.15488606     0.42827964
 C     32  30  29     2.637089384877   120.38149035     0.00000000
 H     32  30  29     2.053899760653   120.22463291   179.14547481
 O     36  32  30     2.561897965532   122.96583297   178.61280020
 H     38  36  32     1.828858487067   109.80934023     0.30828418
 O     34  31  29     2.586664125593   119.24130432   183.30863463
 C     40  34  31     2.714907981435   115.77731013   247.43372069
 H     41  40  34     2.068990804601   110.60870387    58.46713868
 H     41  40  34     2.058909440639   106.02826835   176.87553022
 H     41  40  34     2.062451045634   111.53509362   295.93867270
 C      5   3   1     2.861807448977   119.51249275     0.53173835
 H     45   5   3     2.060742803700   113.96733346   317.10021094
 H     45   5   3     2.382405126739   105.19716811    67.28183494
 O     47  45   5     2.471143688293   176.59751556   218.59761059
 O     48  47  45     3.980281009058   134.94239251   170.20960375
 N     49  48  47     2.258627855565    36.52866887   359.81890068

---------------------
BASIS SET INFORMATION
---------------------
There are 4 groups of distinct atoms

 Group   1 Type C   : 12s6p1d contracted to 5s4p1d pattern {63111/3111/1}
 Group   2 Type H   : 5s contracted to 3s pattern {311}
 Group   3 Type O   : 12s6p1d contracted to 5s4p1d pattern {63111/3111/1}
 Group   4 Type N   : 12s6p1d contracted to 5s4p1d pattern {63111/3111/1}

Atom   0C    basis set group =>   1
Atom   1H    basis set group =>   2
Atom   2C    basis set group =>   1
Atom   3H    basis set group =>   2
Atom   4C    basis set group =>   1
Atom   5O    basis set group =>   3
Atom   6C    basis set group =>   1
Atom   7C    basis set group =>   1
Atom   8C    basis set group =>   1
Atom   9C    basis set group =>   1
Atom  10H    basis set group =>   2
Atom  11C    basis set group =>   1
Atom  12H    basis set group =>   2
Atom  13C    basis set group =>   1
Atom  14H    basis set group =>   2
Atom  15O    basis set group =>   3
Atom  16H    basis set group =>   2
Atom  17O    basis set group =>   3
Atom  18C    basis set group =>   1
Atom  19H    basis set group =>   2
Atom  20H    basis set group =>   2
Atom  21H    basis set group =>   2
Atom  22C    basis set group =>   1
Atom  23H    basis set group =>   2
Atom  24C    basis set group =>   1
Atom  25H    basis set group =>   2
Atom  26C    basis set group =>   1
Atom  27O    basis set group =>   3
Atom  28C    basis set group =>   1
Atom  29C    basis set group =>   1
Atom  30C    basis set group =>   1
Atom  31C    basis set group =>   1
Atom  32H    basis set group =>   2
Atom  33C    basis set group =>   1
Atom  34H    basis set group =>   2
Atom  35C    basis set group =>   1
Atom  36H    basis set group =>   2
Atom  37O    basis set group =>   3
Atom  38H    basis set group =>   2
Atom  39O    basis set group =>   3
Atom  40C    basis set group =>   1
Atom  41H    basis set group =>   2
Atom  42H    basis set group =>   2
Atom  43H    basis set group =>   2
Atom  44C    basis set group =>   1
Atom  45H    basis set group =>   2
Atom  46H    basis set group =>   2
Atom  47O    basis set group =>   3
Atom  48O    basis set group =>   3
Atom  49N    basis set group =>   4
---------------------------------
AUXILIARY/J BASIS SET INFORMATION
---------------------------------
There are 4 groups of distinct atoms

 Group   1 Type C   : 12s5p4d2f1g contracted to 6s4p3d1f1g pattern {711111/2111/211/2/1}
 Group   2 Type H   : 5s2p1d contracted to 3s1p1d pattern {311/2/1}
 Group   3 Type O   : 12s5p4d2f1g contracted to 6s4p3d1f1g pattern {711111/2111/211/2/1}
 Group   4 Type N   : 12s5p4d2f1g contracted to 6s4p3d1f1g pattern {711111/2111/211/2/1}

Atom   0C    basis set group =>   1
Atom   1H    basis set group =>   2
Atom   2C    basis set group =>   1
Atom   3H    basis set group =>   2
Atom   4C    basis set group =>   1
Atom   5O    basis set group =>   3
Atom   6C    basis set group =>   1
Atom   7C    basis set group =>   1
Atom   8C    basis set group =>   1
Atom   9C    basis set group =>   1
Atom  10H    basis set group =>   2
Atom  11C    basis set group =>   1
Atom  12H    basis set group =>   2
Atom  13C    basis set group =>   1
Atom  14H    basis set group =>   2
Atom  15O    basis set group =>   3
Atom  16H    basis set group =>   2
Atom  17O    basis set group =>   3
Atom  18C    basis set group =>   1
Atom  19H    basis set group =>   2
Atom  20H    basis set group =>   2
Atom  21H    basis set group =>   2
Atom  22C    basis set group =>   1
Atom  23H    basis set group =>   2
Atom  24C    basis set group =>   1
Atom  25H    basis set group =>   2
Atom  26C    basis set group =>   1
Atom  27O    basis set group =>   3
Atom  28C    basis set group =>   1
Atom  29C    basis set group =>   1
Atom  30C    basis set group =>   1
Atom  31C    basis set group =>   1
Atom  32H    basis set group =>   2
Atom  33C    basis set group =>   1
Atom  34H    basis set group =>   2
Atom  35C    basis set group =>   1
Atom  36H    basis set group =>   2
Atom  37O    basis set group =>   3
Atom  38H    basis set group =>   2
Atom  39O    basis set group =>   3
Atom  40C    basis set group =>   1
Atom  41H    basis set group =>   2
Atom  42H    basis set group =>   2
Atom  43H    basis set group =>   2
Atom  44C    basis set group =>   1
Atom  45H    basis set group =>   2
Atom  46H    basis set group =>   2
Atom  47O    basis set group =>   3
Atom  48O    basis set group =>   3
Atom  49N    basis set group =>   4
------------------------------------------------------------------------------
                           ORCA GTO INTEGRAL CALCULATION
                           -- RI-GTO INTEGRALS CHOSEN --
------------------------------------------------------------------------------
------------------------------------------------------------------------------
                   ___                                                        
                  /   \      - P O W E R E D   B Y -                         
                 /     \                                                     
                 |  |  |   _    _      __       _____    __    __             
                 |  |  |  | |  | |    /  \     |  _  \  |  |  /  |          
                  \  \/   | |  | |   /    \    | | | |  |  | /  /          
                 / \  \   | |__| |  /  /\  \   | |_| |  |  |/  /          
                |  |  |   |  __  | /  /__\  \  |    /   |      \           
                |  |  |   | |  | | |   __   |  |    \   |  |\   \          
                \     /   | |  | | |  |  |  |  | |\  \  |  | \   \       
                 \___/    |_|  |_| |__|  |__|  |_| \__\ |__|  \__/        
                                                                              
                      - O R C A' S   B I G   F R I E N D -                    
                                      &                                       
                       - I N T E G R A L  F E E D E R -                       
                                                                              
 v1 FN, 2020, v2 2021                                                         
------------------------------------------------------------------------------


Reading SHARK input file CURCUMIN-OPT-FREQ-TS2-WB97M-V-6-311+G-D-298.SHARKINP.tmp ... ok
----------------------
SHARK INTEGRAL PACKAGE
----------------------

Number of atoms                             ...     50
Number of basis functions                   ...    720
Number of shells                            ...    360
Maximum angular momentum                    ...      2
Integral batch strategy                     ... SHARK/LIBINT Hybrid
RI-J (if used) integral strategy            ... SPLIT-RIJ (Revised 2003 algorithm where possible)
Printlevel                                  ...      1
Contraction scheme used                     ... SEGMENTED contraction
Coulomb Range Separation                    ... NOT USED
Exchange Range Separation                   ... Long Range
   Mu parameter                             ...  0.300000
   Scaling (regular/separated)              ...  0.150000  0.850000
Finite Nucleus Model                        ... NOT USED
Auxiliary Coulomb fitting basis             ... AVAILABLE
   # of basis functions in Aux-J            ...   1690
   # of shells in Aux-J                     ...    550
   Maximum angular momentum in Aux-J        ...      4
Auxiliary J/K fitting basis                 ... NOT available
Auxiliary Correlation fitting basis         ... NOT available
Auxiliary 'external' fitting basis          ... NOT available
Integral threshold                          ...     2.500000e-11
Primitive cut-off                           ...     2.500000e-12
Primitive pair pre-selection threshold      ...     2.500000e-12

Calculating pre-screening integrals         ... done (  0.1 sec) Dimension = 360
Organizing shell pair data                  ... done (  0.4 sec)
Shell pair information
Total number of shell pairs                 ...     64980
Shell pairs after pre-screening             ...     38978
Total number of primitive shell pairs       ...    225475
Primitive shell pairs kept                  ...     84911
          la=0 lb=0:  12513 shell pairs
          la=1 lb=0:  16032 shell pairs
          la=1 lb=1:   5104 shell pairs
          la=2 lb=0:   3087 shell pairs
          la=2 lb=1:   2048 shell pairs
          la=2 lb=2:    194 shell pairs

Calculating one electron integrals          ... done (  0.2 sec)
Calculating RI/J V-Matrix + Cholesky decomp.... done (  0.5 sec)
Calculating Nuclear repulsion               ... done (  0.0 sec) ENN=   2589.482521009483 Eh

SHARK setup successfully completed in   2.0 seconds

Maximum memory used throughout the entire GTOINT-calculation: 182.7 MB
-------------------------------------------------------------------------------
                                 ORCA SCF
-------------------------------------------------------------------------------

------------
SCF SETTINGS
------------
Hamiltonian:
 Density Functional     Method          .... DFT(GTOs)
  Functional kind                       .... Exchange-Correlation
  Functional name                       .... wB97M-V exchange-correlation functional
  Functional family                     .... Hybrid MGGA
  Functional refs                              
    [ 0] N. Mardirossian and M. Head-Gordon, J. Chem. Phys. 144, 214110 (2016)
  Fraction of HF Exchange (short range) .... 0.1500
  Fraction of HF Exchange (long range)  .... 1.0000
  Range separation parameter mu         .... 0.3000
  Functional external parameters         .... 0
   Density functional embedding theory  .... OFF
 Long-range corrected/Screened/Range-Separated Hybrid DFT is turned on
   Amount of maximum screened exact exchange              ....  0.850000
   Range separation parameter mu (erf(mu*r12)/r12)        ....  0.300000
   NL short-range parameter             ....  6.000000
   NL long-range parameter              ....  0.010000
 RI-approximation to the Coulomb term is turned on
   Number of AuxJ basis functions       .... 1690
   RIJ-ON(X) (HFX calculated with O(N)) .... on


General Settings:
 Integral files         IntName         .... CURCUMIN-OPT-FREQ-TS2-WB97M-V-6-311+G-D-298
 Hartree-Fock type      HFTyp           .... UHF
 Total Charge           Charge          ....    0
 Multiplicity           Mult            ....    2
 Number of Electrons    NEL             ....  217
 Basis Dimension        Dim             ....  720
 Nuclear Repulsion      ENuc            ....   2589.4825210095 Eh

Convergence Acceleration:
 DIIS                   CNVDIIS         .... on
   Start iteration      DIISMaxIt       ....    12
   Startup error        DIISStart       ....  0.200000
   # of expansion vecs  DIISMaxEq       ....     5
   Bias factor          DIISBfac        ....   1.050
   Max. coefficient     DIISMaxC        ....  10.000
 Trust-Rad. Augm. Hess. CNVTRAH         .... off
 SOSCF                  CNVSOSCF        .... off
 Level Shifting         CNVShift        .... on
   Level shift para.    LevelShift      ....    0.2500
   Turn off err/grad.   ShiftErr        ....    0.0010
 Zerner damping         CNVZerner       .... off
 Static damping         CNVDamp         .... on
   Fraction old density DampFac         ....    0.7000
   Max. Damping (<1)    DampMax         ....    0.9800
   Min. Damping (>=0)   DampMin         ....    0.0000
   Turn off err/grad.   DampErr         ....    0.1000
 Fernandez-Rico         CNVRico         .... off

SCF Procedure:
 Maximum # iterations   MaxIter         ....   125
 SCF integral mode      SCFMode         .... Direct
   Integral package                     .... SHARK and LIBINT hybrid scheme
 Reset frequency        DirectResetFreq ....    20
 Integral Threshold     Thresh          ....  2.500e-11 Eh
 Primitive CutOff       TCut            ....  2.500e-12 Eh

Convergence Tolerance:
 Convergence Check Mode ConvCheckMode   .... Total+1el-Energy
 Convergence forced     ConvForced      .... 0
 Energy Change          TolE            ....  1.000e-08 Eh
 1-El. energy change                    ....  1.000e-05 Eh
 DIIS Error             TolErr          ....  5.000e-07


Diagonalization of the overlap matrix:
Smallest eigenvalue                        ... 1.225e-07
Time for diagonalization                   ...    0.056 sec
Threshold for overlap eigenvalues          ... 1.000e-08
Number of eigenvalues below threshold      ... 0
Time for construction of square roots      ...    0.076 sec
Total time needed                          ...    0.133 sec

Time for model grid setup =    1.599 sec

------------------------------
INITIAL GUESS: MODEL POTENTIAL
------------------------------
Loading Hartree-Fock densities                     ... done
Calculating cut-offs                               ... done
Initializing the effective Hamiltonian             ... done
Setting up the integral package (SHARK)            ... done
Starting the Coulomb interaction                   ... done (   3.0 sec)
Reading the grid                                   ... done
Mapping shells                                     ... done
Starting the XC term evaluation                    ... done (   1.5 sec)
  promolecular density results
     # of electrons  =    216.993414399
     EX              =   -184.981750770
     EC              =     -7.289221489
     EX+EC           =   -192.270972260
Transforming the Hamiltonian                       ... done (   0.0 sec)
Diagonalizing the Hamiltonian                      ... done (   0.1 sec)
Back transforming the eigenvectors                 ... done (   0.0 sec)
Now organizing SCF variables                       ... done
                      ------------------
                      INITIAL GUESS DONE (   6.3 sec)
                      ------------------
-------------------
DFT GRID GENERATION
-------------------

General Integration Accuracy     IntAcc      ... 4.388
Radial Grid Type                 RadialGrid  ... OptM3 with GC (2021)
Angular Grid (max. ang.)         AngularGrid ... 4 (Lebedev-302)
Angular grid pruning method      GridPruning ... 4 (adaptive)
Weight generation scheme         WeightScheme... Becke
Basis function cutoff            BFCut       ... 1.0000e-11
Integration weight cutoff        WCut        ... 1.0000e-14
Angular grids for H and He will be reduced by one unit
Partially contracted basis set               ... off
Rotationally invariant grid construction     ... off

Total number of grid points                  ...   251686
Total number of batches                      ...     3959
Average number of points per batch           ...       63
Average number of grid points per atom       ...     5034

------------------
NL GRID GENERATION
------------------

General Integration Accuracy     IntAcc      ... 4.004
Radial Grid Type                 RadialGrid  ... OptM3 with GC (2021)
Angular Grid (max. ang.)         AngularGrid ... 2 (Lebedev-110)
Angular grid pruning method      GridPruning ... 4 (adaptive)
Weight generation scheme         WeightScheme... Becke
Basis function cutoff            BFCut       ... 1.0000e-10
Integration weight cutoff        WCut        ... 1.0000e-14
Angular grids for H and He will be reduced by one unit
Partially contracted basis set               ... off
Rotationally invariant grid construction     ... off

Total number of grid points                  ...    83756
Total number of batches                      ...     1334
Average number of points per batch           ...       62
Average number of grid points per atom       ...     1675
Time for grid setup =    6.358 sec


--------------------
CPCM SOLVATION MODEL
--------------------
CPCM parameters:
  Epsilon                                         ...       7.0000
  Refrac                                          ...       1.8534
  Rsolv                                           ...       1.3000
  Surface type                                    ... GAUSSIAN VDW
  Epsilon function type                           ...         CPCM
Radii:
 Radius for C  used is    3.8550 Bohr (=   2.0400 Ang.)
 Radius for H  used is    2.4944 Bohr (=   1.3200 Ang.)
 Radius for O  used is    3.4469 Bohr (=   1.8240 Ang.)
 Radius for N  used is    3.5149 Bohr (=   1.8600 Ang.)
Calculating surface                               ...        done! (  0.0s)
GEPOL surface points                              ...         2742
GEPOL Volume                                      ...    3263.7808
GEPOL Surface-area                                ...    1708.3460
Calculating surface distance matrix               ...        done! (  0.0s)
Performing Cholesky decomposition & store         ...        done! (  0.7s)
Overall time for CPCM initialization              ...                 0.8s
--------------
SCF ITERATIONS
--------------
ITER       Energy         Delta-E        Max-DP      RMS-DP      [F,P]     Damp
               ***  Starting incremental Fock matrix formation  ***
  0  -1467.7306977305   0.000000000000 4.60270330  0.02268097  0.1552850 0.7000
  1  -1468.0230789319  -0.292381201334 2.94654935  0.01598075  0.0750011 0.7000
                               ***Turning on DIIS***
  2  -1468.1669801458  -0.14390121392010.72712566  0.04925961  0.0288149 0.0000
  3  -1468.4147789861  -0.247798840302 5.39785807  0.02312632  0.0379151 0.0000
  4  -1468.4474407382  -0.032661752123 3.06714173  0.01234808  0.0078787 0.0000
  5  -1468.4501785939  -0.002737855720 6.31668763  0.02477264  0.0045366 0.0000
  6  -1468.4514458588  -0.001267264854 3.68070816  0.01283116  0.0037503 0.0000
  7  -1468.4525743473  -0.001128488555 2.12990406  0.00757816  0.0037537 0.0000
  8  -1468.4537176460  -0.001143298641 0.44745248  0.00275755  0.0039996 0.0000
  9  -1468.4546726144  -0.000954968469 0.41495086  0.00099842  0.0039428 0.0000
 10  -1468.4549443662  -0.000271751748 0.66285056  0.00228258  0.0035182 0.0000
 11  -1468.4549926700  -0.000048303803 0.60026271  0.00185068  0.0032188 0.0000
 12  -1468.4551582962  -0.000165626197 1.19659767  0.00461803  0.0035237 0.0000
 13  -1468.4556347501  -0.000476453893 2.06619019  0.00602839  0.0032471 0.0000
 14  -1468.4560822462  -0.000447496141 0.51486460  0.00325859  0.0032633 0.0000
 15  -1468.4564542506  -0.000372004430 6.68380990  0.01829734  0.0039608 0.0000
 16  -1468.4578611136  -0.001406862926 2.66468829  0.01120568  0.0045144 0.0000
 17  -1468.4592038766  -0.001342762993 0.67041279  0.00322147  0.0046559 0.0000
 18  -1468.4593675019  -0.000163625365 3.71868459  0.01884396  0.0042722 0.0000
 19  -1468.4579230994   0.001444402488 0.64555469  0.00218164  0.0046662 0.0000
               *** Restarting incremental Fock matrix formation ***
                                   *** Resetting DIIS ***
 20  -1468.4576973673   0.000225732100 6.32631066  0.02513999  0.0042635 0.0000
 21  -1468.4590592785  -0.001361911169 2.52014054  0.01144334  0.0059113 0.0000
 22  -1468.4602814169  -0.001222138361 1.38134821  0.00543284  0.0044483 0.0000
 23  -1468.4614775589  -0.001196141988 0.93489211  0.00347742  0.0044260 0.0000
 24  -1468.4613581756   0.000119383304 0.89201852  0.00380995  0.0044208 0.0000
 25  -1468.4613240918   0.000034083771 1.59677551  0.00613155  0.0048270 0.0000
 26  -1468.4622846772  -0.000960585427 2.18092169  0.00826751  0.0041701 0.0000
 27  -1468.4624208422  -0.000136165003 1.92248386  0.00918489  0.0043085 0.0000
 28  -1468.4633862547  -0.000965412532 7.26133779  0.02739238  0.0048036 0.0000
 29  -1468.4652447879  -0.001858533166 4.28859462  0.01571488  0.0048706 0.0000
 30  -1468.4672236973  -0.001978909422 3.04643863  0.01123579  0.0050583 0.0000
 31  -1468.4690016019  -0.001777904610 2.56142662  0.00870206  0.0049391 0.0000
 32  -1468.4705214001  -0.001519798135 1.26468437  0.00462129  0.0048538 0.0000
 33  -1468.4715920257  -0.001070625633 2.43230081  0.00807927  0.0048106 0.0000
 34  -1468.4714482494   0.000143776319 2.64290382  0.01108363  0.0046416 0.0000
 35  -1468.4729252951  -0.00147704570010.83375667  0.03306661  0.0044610 0.0000
 36  -1468.4749295413  -0.00200424622110.75126637  0.03451209  0.0046503 0.0000
 37  -1468.4770337946  -0.00210425333411.55940819  0.03428288  0.0038407 0.0000
 38  -1468.4792868206  -0.002253025956 3.13719933  0.01276606  0.0035376 0.0000
 39  -1468.4809660990  -0.001679278441 2.74872563  0.00920267  0.0028268 0.0000
               *** Restarting incremental Fock matrix formation ***
                                   *** Resetting DIIS ***
 40  -1468.4823092121  -0.001343113075 4.37975881  0.01129528  0.0022653 0.0000
 41  -1468.4826577741  -0.000348561967 1.85169051  0.00701390  0.0020238 0.0000
 42  -1468.4829023084  -0.000244534323 3.00336167  0.01010413  0.0017036 0.0000
 43  -1468.4831966634  -0.000294354997 5.18852654  0.01475667  0.0016857 0.0000
 44  -1468.4835559455  -0.000359282104 2.56248111  0.00892992  0.0012034 0.0000
 45  -1468.4838949315  -0.000338985943 5.46686119  0.01418930  0.0009731 0.0000
 46  -1468.4840002865  -0.000105355080 1.80355579  0.00651611  0.0005450 0.0000
 47  -1468.4841131734  -0.000112886849 2.58867729  0.00607845  0.0004624 0.0000
 48  -1468.4841181096  -0.000004936224 4.94551641  0.01307928  0.0001427 0.0000
 49  -1468.4841192339  -0.000001124264 4.04410955  0.01177131  0.0000846 0.0000
 50  -1468.4841190649   0.000000168968 3.66076860  0.01008066  0.0000509 0.0000
 51  -1468.4841190808  -0.000000015944 3.44035498  0.01163051  0.0000356 0.0000
 52  -1468.4841186631   0.000000417780 1.84848384  0.00807305  0.0000246 0.0000
 53  -1468.4841183814   0.000000281637 8.84280228  0.02239151  0.0000173 0.0000
 54  -1468.4841168369   0.000001544504 1.48745600  0.00459472  0.0000127 0.0000
 55  -1468.4841171513  -0.000000314413 2.17864292  0.00624244  0.0000105 0.0000
 56  -1468.4841167043   0.000000447010 0.75228306  0.00286676  0.0000079 0.0000
 57  -1468.4841167395  -0.000000035218 1.07214061  0.00280132  0.0000050 0.0000
 58  -1468.4841166461   0.000000093407 0.41666922  0.00244556  0.0000039 0.0000
 59  -1468.4841166829  -0.000000036790 0.62204634  0.00255998  0.0000030 0.0000
               *** Restarting incremental Fock matrix formation ***
                                   *** Resetting DIIS ***
 60  -1468.4841167085  -0.000000025601 1.16468624  0.00371383  0.0000016 0.0000
 61  -1468.4841166592   0.000000049322 0.11721363  0.00032864  0.0000020 0.0000
 62  -1468.4841166042   0.000000054973 0.36952774  0.00130907  0.0000011 0.0000
                            ***DIIS convergence achieved***

               *****************************************************
               *                     SUCCESS                       *
               *           SCF CONVERGED AFTER  63 CYCLES          *
               *****************************************************


----------------
TOTAL SCF ENERGY
----------------

Total Energy       :        -1468.48411652 Eh          -39959.48431 eV

Components:
Nuclear Repulsion  :         2589.48252101 Eh           70463.40169 eV
Electronic Energy  :        -4057.96663753 Eh         -110422.88600 eV
One Electron Energy:        -7147.65614998 Eh         -194497.61191 eV
Two Electron Energy:         3089.68951245 Eh           84074.72591 eV
CPCM Dielectric    :           -0.05292359 Eh              -1.44012 eV

Virial components:
Potential Energy   :        -2932.98316470 Eh          -79810.52940 eV
Kinetic Energy     :         1464.49904817 Eh           39851.04509 eV
Virial Ratio       :            2.00272111


DFT components:
N(Alpha)           :      109.000035007247 electrons
N(Beta)            :      108.000035614893 electrons
N(Total)           :      217.000070622140 electrons
NL Energy, E(C,NL) :        0.822855960039 Eh       
E(XC)              :     -139.331751115596 Eh       
DFET-embed. en.    :        0.000000000000 Eh       
CPCM Solvation Model Properties:
Surface-charge          :           -0.03878808
Charge-correction       :            0.00022766 Eh               0.00619 eV
Free-energy (cav+disp)  :  This term is not implemented in the current solvation scheme

---------------
SCF CONVERGENCE
---------------

  Last Energy change         ...    8.0422e-08  Tolerance :   1.0000e-08
  Last MAX-Density change    ...    2.5428e-01  Tolerance :   1.0000e-07
  Last RMS-Density change    ...    1.0320e-03  Tolerance :   5.0000e-09
  Last DIIS Error            ...    5.3159e-07  Tolerance :   5.0000e-07

             **** THE GBW FILE WAS UPDATED (CURCUMIN-OPT-FREQ-TS2-WB97M-V-6-311+G-D-298.gbw) ****
             **** DENSITY CURCUMIN-OPT-FREQ-TS2-WB97M-V-6-311+G-D-298.scfp WAS UPDATED ****
             **** ENERGY FILE WAS UPDATED (CURCUMIN-OPT-FREQ-TS2-WB97M-V-6-311+G-D-298.en.tmp) ****
----------------------
UHF SPIN CONTAMINATION
----------------------

Warning: in a DFT calculation there is little theoretical justification to 
         calculate <S**2> as in Hartree-Fock theory. We will do it anyways
         but you should keep in mind that the values have only limited relevance

Expectation value of <S**2>     :     0.762100
Ideal value S*(S+1) for S=0.5   :     0.750000
Deviation                       :     0.012100

             **** THE GBW FILE WAS UPDATED (CURCUMIN-OPT-FREQ-TS2-WB97M-V-6-311+G-D-298.gbw) ****
             **** DENSITY CURCUMIN-OPT-FREQ-TS2-WB97M-V-6-311+G-D-298.scfp WAS UPDATED ****
----------------
ORBITAL ENERGIES
----------------
                 SPIN UP ORBITALS
  NO   OCC          E(Eh)            E(eV) 
   0   1.0000     -19.441496      -529.0300 
   1   1.0000     -19.411599      -528.2165 
   2   1.0000     -19.381579      -527.3996 
   3   1.0000     -19.380379      -527.3669 
   4   1.0000     -19.361057      -526.8411 
   5   1.0000     -19.360323      -526.8212 
   6   1.0000     -19.347191      -526.4638 
   7   1.0000     -19.341561      -526.3106 
   8   1.0000     -14.699931      -400.0055 
   9   1.0000     -10.466192      -284.7996 
  10   1.0000     -10.462510      -284.6994 
  11   1.0000     -10.433463      -283.9090 
  12   1.0000     -10.431884      -283.8660 
  13   1.0000     -10.417037      -283.4620 
  14   1.0000     -10.416132      -283.4374 
  15   1.0000     -10.406739      -283.1818 
  16   1.0000     -10.390449      -282.7385 
  17   1.0000     -10.388246      -282.6786 
  18   1.0000     -10.386877      -282.6413 
  19   1.0000     -10.386116      -282.6206 
  20   1.0000     -10.373122      -282.2670 
  21   1.0000     -10.372233      -282.2428 
  22   1.0000     -10.368415      -282.1389 
  23   1.0000     -10.367281      -282.1081 
  24   1.0000     -10.365759      -282.0666 
  25   1.0000     -10.364499      -282.0323 
  26   1.0000     -10.364186      -282.0238 
  27   1.0000     -10.362640      -281.9818 
  28   1.0000     -10.362297      -281.9724 
  29   1.0000     -10.362022      -281.9649 
  30   1.0000      -1.369289       -37.2603 
  31   1.0000      -1.220112       -33.2009 
  32   1.0000      -1.218351       -33.1530 
  33   1.0000      -1.201984       -32.7076 
  34   1.0000      -1.196021       -32.5454 
  35   1.0000      -1.190321       -32.3903 
  36   1.0000      -1.189975       -32.3809 
  37   1.0000      -1.189247       -32.3611 
  38   1.0000      -1.005554       -27.3625 
  39   1.0000      -1.004353       -27.3298 
  40   1.0000      -0.958552       -26.0835 
  41   1.0000      -0.945946       -25.7405 
  42   1.0000      -0.916770       -24.9466 
  43   1.0000      -0.894140       -24.3308 
  44   1.0000      -0.892889       -24.2968 
  45   1.0000      -0.880474       -23.9589 
  46   1.0000      -0.864935       -23.5361 
  47   1.0000      -0.816806       -22.2264 
  48   1.0000      -0.815792       -22.1988 
  49   1.0000      -0.801918       -21.8213 
  50   1.0000      -0.796977       -21.6868 
  51   1.0000      -0.787283       -21.4231 
  52   1.0000      -0.756613       -20.5885 
  53   1.0000      -0.747276       -20.3344 
  54   1.0000      -0.712547       -19.3894 
  55   1.0000      -0.710931       -19.3454 
  56   1.0000      -0.695558       -18.9271 
  57   1.0000      -0.693319       -18.8662 
  58   1.0000      -0.675906       -18.3923 
  59   1.0000      -0.673374       -18.3234 
  60   1.0000      -0.646888       -17.6027 
  61   1.0000      -0.643995       -17.5240 
  62   1.0000      -0.638270       -17.3682 
  63   1.0000      -0.635895       -17.3036 
  64   1.0000      -0.628673       -17.1071 
  65   1.0000      -0.627699       -17.0806 
  66   1.0000      -0.624147       -16.9839 
  67   1.0000      -0.600945       -16.3526 
  68   1.0000      -0.593758       -16.1570 
  69   1.0000      -0.592835       -16.1318 
  70   1.0000      -0.585725       -15.9384 
  71   1.0000      -0.582348       -15.8465 
  72   1.0000      -0.581473       -15.8227 
  73   1.0000      -0.567946       -15.4546 
  74   1.0000      -0.559372       -15.2213 
  75   1.0000      -0.555449       -15.1145 
  76   1.0000      -0.552393       -15.0314 
  77   1.0000      -0.551071       -14.9954 
  78   1.0000      -0.542974       -14.7751 
  79   1.0000      -0.541053       -14.7228 
  80   1.0000      -0.539484       -14.6801 
  81   1.0000      -0.533503       -14.5174 
  82   1.0000      -0.527558       -14.3556 
  83   1.0000      -0.524761       -14.2795 
  84   1.0000      -0.520450       -14.1622 
  85   1.0000      -0.513042       -13.9606 
  86   1.0000      -0.491826       -13.3833 
  87   1.0000      -0.490139       -13.3374 
  88   1.0000      -0.488032       -13.2800 
  89   1.0000      -0.486557       -13.2399 
  90   1.0000      -0.484083       -13.1726 
  91   1.0000      -0.482163       -13.1203 
  92   1.0000      -0.474765       -12.9190 
  93   1.0000      -0.472761       -12.8645 
  94   1.0000      -0.467755       -12.7282 
  95   1.0000      -0.450564       -12.2605 
  96   1.0000      -0.449755       -12.2385 
  97   1.0000      -0.417189       -11.3523 
  98   1.0000      -0.403517       -10.9803 
  99   1.0000      -0.400224       -10.8906 
 100   1.0000      -0.396902       -10.8003 
 101   1.0000      -0.395656       -10.7663 
 102   1.0000      -0.394466       -10.7340 
 103   1.0000      -0.386630       -10.5207 
 104   1.0000      -0.379270       -10.3205 
 105   1.0000      -0.351721        -9.5708 
 106   1.0000      -0.350481        -9.5371 
 107   1.0000      -0.311560        -8.4780 
 108   1.0000      -0.310064        -8.4373 
 109   0.0000      -0.017239        -0.4691 
 110   0.0000      -0.012475        -0.3395 
 111   0.0000       0.007329         0.1994 
 112   0.0000       0.019845         0.5400 
 113   0.0000       0.029920         0.8142 
 114   0.0000       0.037299         1.0150 
 115   0.0000       0.043706         1.1893 
 116   0.0000       0.045704         1.2437 
 117   0.0000       0.047100         1.2816 
 118   0.0000       0.048403         1.3171 
 119   0.0000       0.052566         1.4304 
 120   0.0000       0.053654         1.4600 
 121   0.0000       0.055721         1.5162 
 122   0.0000       0.060914         1.6575 
 123   0.0000       0.063019         1.7148 
 124   0.0000       0.067637         1.8405 
 125   0.0000       0.068264         1.8576 
 126   0.0000       0.071993         1.9590 
 127   0.0000       0.073557         2.0016 
 128   0.0000       0.076357         2.0778 
 129   0.0000       0.079031         2.1505 
 130   0.0000       0.080227         2.1831 
 131   0.0000       0.085930         2.3383 
 132   0.0000       0.087933         2.3928 
 133   0.0000       0.088409         2.4057 
 134   0.0000       0.092634         2.5207 
 135   0.0000       0.094367         2.5678 
 136   0.0000       0.097808         2.6615 
 137   0.0000       0.099654         2.7117 
 138   0.0000       0.102247         2.7823 
 139   0.0000       0.104388         2.8405 
 140   0.0000       0.112363         3.0576 
 141   0.0000       0.115621         3.1462 
 142   0.0000       0.116967         3.1828 
 143   0.0000       0.119196         3.2435 
 144   0.0000       0.120608         3.2819 
 145   0.0000       0.126554         3.4437 
 146   0.0000       0.130939         3.5630 
 147   0.0000       0.134642         3.6638 
 148   0.0000       0.136227         3.7069 
 149   0.0000       0.143246         3.8979 
 150   0.0000       0.144897         3.9428 
 151   0.0000       0.145717         3.9652 
 152   0.0000       0.148874         4.0511 
 153   0.0000       0.151754         4.1294 
 154   0.0000       0.153971         4.1898 
 155   0.0000       0.157783         4.2935 
 156   0.0000       0.158131         4.3030 
 157   0.0000       0.166174         4.5218 
 158   0.0000       0.167839         4.5671 
 159   0.0000       0.171899         4.6776 
 160   0.0000       0.173816         4.7298 
 161   0.0000       0.176370         4.7993 
 162   0.0000       0.178898         4.8681 
 163   0.0000       0.183296         4.9877 
 164   0.0000       0.184249         5.0137 
 165   0.0000       0.185565         5.0495 
 166   0.0000       0.187698         5.1075 
 167   0.0000       0.191535         5.2119 
 168   0.0000       0.192467         5.2373 
 169   0.0000       0.196247         5.3402 
 170   0.0000       0.198562         5.4032 
 171   0.0000       0.202070         5.4986 
 172   0.0000       0.206667         5.6237 
 173   0.0000       0.208248         5.6667 
 174   0.0000       0.211551         5.7566 
 175   0.0000       0.213212         5.8018 
 176   0.0000       0.214411         5.8344 
 177   0.0000       0.217477         5.9179 
 178   0.0000       0.217916         5.9298 
 179   0.0000       0.224432         6.1071 
 180   0.0000       0.225598         6.1388 
 181   0.0000       0.228046         6.2054 
 182   0.0000       0.230396         6.2694 
 183   0.0000       0.231509         6.2997 
 184   0.0000       0.232552         6.3281 
 185   0.0000       0.233242         6.3468 
 186   0.0000       0.238665         6.4944 
 187   0.0000       0.240221         6.5367 
 188   0.0000       0.241857         6.5813 
 189   0.0000       0.245281         6.6744 
 190   0.0000       0.246304         6.7023 
 191   0.0000       0.251069         6.8319 
 192   0.0000       0.253471         6.8973 
 193   0.0000       0.254304         6.9200 
 194   0.0000       0.258454         7.0329 
 195   0.0000       0.259869         7.0714 
 196   0.0000       0.263276         7.1641 
 197   0.0000       0.266137         7.2420 
 198   0.0000       0.266700         7.2573 
 199   0.0000       0.273123         7.4321 
 200   0.0000       0.273929         7.4540 
[...]
 52:    577.38   0.022693  114.68  0.012265  ( 0.099737 -0.042973  0.021703)
 53:    592.55   0.009654   48.79  0.005084  (-0.047909 -0.046384 -0.025246)
 54:    595.06   0.000339    1.71  0.000178  ( 0.012061  0.004428  0.003578)
 55:    611.72   0.001971    9.96  0.001005  (-0.022912 -0.021768 -0.002579)
 56:    627.72   0.004937   24.95  0.002454  ( 0.028051 -0.031656  0.025797)
 57:    647.66   0.002864   14.48  0.001380  (-0.023900  0.021025  0.019154)
 58:    677.28   0.006444   32.57  0.002969  (-0.032403  0.035230 -0.026043)
 59:    713.72   0.006009   30.36  0.002627  (-0.033596  0.038015  0.007301)
 60:    719.45   0.005162   26.09  0.002239  ( 0.003717 -0.013586 -0.045174)
 61:    754.00   0.000186    0.94  0.000077  ( 0.003351  0.003617  0.007269)
 62:    756.32   0.003461   17.49  0.001428  ( 0.034859 -0.011969 -0.008349)
 63:    771.27   0.001635    8.26  0.000662  (-0.009449  0.008778  0.022256)
 64:    772.05   0.002712   13.71  0.001096  (-0.033007 -0.002118  0.001512)
 65:    818.10   0.088397  446.72  0.033719  (-0.086276  0.149385  0.062924)
 66:    820.55   0.009711   49.07  0.003693  (-0.002098 -0.054066 -0.027669)
 67:    822.12   0.078348  395.94  0.029740  ( 0.114281 -0.119034 -0.050105)
 68:    834.49   0.020854  105.39  0.007798  ( 0.024628 -0.049715  0.068704)
 69:    836.79   0.014710   74.34  0.005486  (-0.032874  0.065928 -0.007654)
 70:    863.50   0.005143   25.99  0.001859  (-0.024462  0.033959  0.010350)
 71:    876.94   0.004325   21.86  0.001539  ( 0.025378 -0.025669  0.015367)
 72:    902.50   0.006406   32.37  0.002215  ( 0.037435 -0.020395  0.019942)
 73:    919.65   0.004356   22.01  0.001478  ( 0.027370 -0.016539 -0.021341)
 74:    921.28   0.001256    6.35  0.000426  (-0.014025  0.014683  0.003639)
 75:    927.09   0.005920   29.91  0.001993  ( 0.038798 -0.021976  0.002077)
 76:    964.08   0.005061   25.58  0.001638  (-0.000646  0.031797  0.025037)
 77:    967.75   0.000380    1.92  0.000122  ( 0.010004 -0.003157  0.003517)
 78:    969.11   0.002545   12.86  0.000819  (-0.003254 -0.007848 -0.027335)
 79:    973.91   0.006332   32.00  0.002029  ( 0.002024  0.036308  0.026578)
 80:    987.89   0.002316   11.70  0.000732  (-0.007487 -0.014198  0.021771)
 81:   1012.31   0.011381   57.51  0.003508  (-0.002376  0.001685  0.059159)
 82:   1019.25   0.012458   62.96  0.003814  (-0.035836  0.050290 -0.000970)
 83:   1055.85   0.028053  141.77  0.008291  ( 0.071656  0.001044 -0.056174)
 84:   1056.38   0.025402  128.37  0.007504  (-0.021356 -0.082719  0.014330)
 85:   1091.67   0.031254  157.94  0.008934  (-0.091334  0.023056  0.007790)
 86:   1143.13   0.042379  214.17  0.011569  ( 0.078034 -0.014107  0.072669)
 87:   1144.06   0.034873  176.23  0.009512  (-0.012978  0.096099 -0.010430)
 88:   1168.22   0.104429  527.74  0.027896  ( 0.164852  0.000692  0.026819)
 89:   1175.58   0.003222   16.28  0.000855  (-0.023869  0.016455 -0.003855)
 90:   1175.93   0.001842    9.31  0.000489  (-0.019463 -0.009521 -0.004414)
 91:   1187.80   0.007112   35.94  0.001868  (-0.039146  0.003875 -0.017916)
 92:   1189.29   0.005239   26.47  0.001375  ( 0.016377 -0.027468  0.018760)
 93:   1202.77   0.019321   97.64  0.005013  ( 0.070435 -0.005100 -0.005083)
 94:   1204.12   0.017062   86.23  0.004422  (-0.057857 -0.027784  0.017395)
 95:   1220.97   0.031759  160.50  0.008117  ( 0.007395  0.087948  0.018104)
 96:   1222.45   0.014407   72.81  0.003678  ( 0.050155 -0.009087  0.032857)
 97:   1248.83   0.064903  328.00  0.016218  ( 0.020976 -0.125554 -0.003837)
 98:   1272.55   0.017009   85.96  0.004171  ( 0.054167  0.029764 -0.018740)
 99:   1281.64   0.008549   43.20  0.002082  ( 0.003377  0.022730  0.039414)
100:   1288.75   0.042878  216.69  0.010383  ( 0.100294  0.016848 -0.006328)
101:   1293.26   0.026692  134.89  0.006441  ( 0.023445 -0.072107 -0.026298)
102:   1296.61   0.048071  242.93  0.011570  ( 0.034208  0.087969 -0.051584)
103:   1311.81   0.010530   53.21  0.002505  ( 0.016817 -0.045763  0.011310)
104:   1313.81   0.009847   49.77  0.002339  (-0.006959 -0.047820  0.001955)
105:   1320.89   0.220261  1113.11  0.052037  ( 0.227495  0.016722 -0.001922)
106:   1330.43   0.011651   58.88  0.002733  (-0.007118 -0.050603 -0.011026)
107:   1362.36   0.015433   77.99  0.003535  (-0.056762  0.017692  0.000355)
108:   1365.12   0.006631   33.51  0.001516  ( 0.029496  0.020826  0.014567)
109:   1378.94   0.043889  221.80  0.009932  ( 0.089021  0.042287 -0.014813)
110:   1380.44   0.007193   36.35  0.001626  (-0.031303 -0.025324  0.002204)
111:   1381.29   0.041146  207.93  0.009296  (-0.090839  0.032311 -0.000090)
112:   1465.52   0.000903    4.56  0.000192  (-0.013786 -0.000925  0.001159)
113:   1466.39   0.001403    7.09  0.000299  (-0.011597 -0.009912  0.008120)
114:   1483.88   0.003290   16.63  0.000692  (-0.016248 -0.001744 -0.020613)
115:   1484.52   0.003189   16.12  0.000670  ( 0.002958 -0.025617  0.002335)
116:   1492.53   0.006652   33.61  0.001391  (-0.037169  0.002030  0.002250)
117:   1493.61   0.011733   59.29  0.002451  (-0.038216 -0.025435  0.018545)
118:   1494.48   0.001521    7.68  0.000318  (-0.015852 -0.002682 -0.007684)
119:   1494.88   0.000580    2.93  0.000121  ( 0.002927  0.010000  0.003533)
120:   1558.69   0.097537  492.91  0.019528  (-0.128522 -0.054857  0.000851)
121:   1559.79   0.065033  328.65  0.013011  (-0.091217  0.068360 -0.004172)
122:   1661.46   0.001530    7.73  0.000287  ( 0.003850 -0.003665 -0.016097)
123:   1662.15   0.003337   16.86  0.000626  (-0.006020 -0.023815  0.004802)
124:   1669.45   0.155951  788.11  0.029151  (-0.143072 -0.034240 -0.086655)
125:   1673.55   0.098395  497.25  0.018347  ( 0.045118 -0.127519 -0.007120)
126:   1682.23   0.082431  416.57  0.015292  ( 0.089513 -0.085251  0.003344)
127:   1702.71   0.053875  272.26  0.009874  (-0.045989 -0.087327 -0.011536)
128:   1705.13   0.155052  783.57  0.028377  ( 0.133539 -0.085961  0.056166)
129:   1712.44   0.041551  209.98  0.007572  ( 0.027714  0.038606  0.072894)
130:   1730.47   0.141942  717.32  0.025597  (-0.057545 -0.127918 -0.076959)
131:   3045.13   0.012874   65.06  0.001319  ( 0.019194  0.006994 -0.030034)
132:   3045.62   0.013016   65.78  0.001334  ( 0.004520 -0.035264  0.008346)
133:   3120.03   0.007957   40.21  0.000796  ( 0.014912 -0.023693  0.003487)
134:   3120.98   0.008381   42.36  0.000838  ( 0.025274  0.006865  0.012334)
135:   3138.52   0.000281    1.42  0.000028  (-0.004524  0.002285  0.001497)
136:   3164.28   0.003380   17.08  0.000333  ( 0.018169 -0.000075  0.001787)
137:   3166.04   0.006960   35.17  0.000686  ( 0.022129  0.010957  0.008734)
138:   3166.49   0.006981   35.28  0.000688  (-0.014968 -0.003581  0.021239)
139:   3171.71   0.001455    7.35  0.000143  ( 0.008254  0.006129 -0.006117)
140:   3181.61   0.002436   12.31  0.000239  ( 0.011924 -0.009796  0.000909)
141:   3183.35   0.002920   14.75  0.000286  (-0.015322 -0.006795 -0.002298)
142:   3189.72   0.001406    7.11  0.000138  (-0.011713  0.000342 -0.000508)
143:   3194.86   0.000503    2.54  0.000049  (-0.005170 -0.004434  0.001663)
144:   3196.88   0.002820   14.25  0.000275  ( 0.010186  0.012985  0.001708)
145:   3198.52   0.002551   12.89  0.000249  (-0.001754  0.002073 -0.015542)
146:   3206.25   0.001035    5.23  0.000101  ( 0.005537  0.004958 -0.006748)
147:   3206.38   0.000529    2.67  0.000051  ( 0.005596  0.004411  0.000838)
148:   3798.34   0.040647  205.41  0.003339  (-0.039454 -0.013035 -0.040161)
149:   3800.26   0.043418  219.42  0.003565  (-0.019109  0.056564  0.000845)

* The epsilon (eps) is given for a Dirac delta lineshape.
** The dipole moment derivative (T) already includes vibrational overlap.

The first frequency considered to be a vibration is 7
The total number of vibrations considered is 143


--------------------------
THERMOCHEMISTRY AT 298.15K
--------------------------

Temperature         ... 298.15 K
Pressure            ... 1.00 atm
Total Mass          ... 414.39 AMU

Throughout the following assumptions are being made:
  (1) The electronic state is orbitally nondegenerate
      but the spin degeneracy is treated
  (2) There are no thermally accessible electronically excited states
  (3) Hindered rotations indicated by low frequency modes are not
      treated as such but are treated as vibrations and this may
      cause some error
  (4) All equations used are the standard statistical mechanics
      equations for an ideal gas
  (5) All vibrations are strictly harmonic

freq.       8.13  E(vib)   ...       0.58 
freq.      20.53  E(vib)   ...       0.56 
freq.      23.48  E(vib)   ...       0.56 
freq.      29.30  E(vib)   ...       0.55 
freq.      31.79  E(vib)   ...       0.55 
freq.      47.61  E(vib)   ...       0.53 
freq.      49.70  E(vib)   ...       0.52 
freq.      54.62  E(vib)   ...       0.52 
freq.      61.82  E(vib)   ...       0.51 
freq.      71.65  E(vib)   ...       0.50 
freq.      84.51  E(vib)   ...       0.48 
freq.      88.66  E(vib)   ...       0.47 
freq.     105.88  E(vib)   ...       0.45 
freq.     114.73  E(vib)   ...       0.44 
freq.     131.82  E(vib)   ...       0.42 
freq.     134.88  E(vib)   ...       0.42 
freq.     143.88  E(vib)   ...       0.41 
freq.     150.96  E(vib)   ...       0.40 
freq.     156.06  E(vib)   ...       0.40 
freq.     171.77  E(vib)   ...       0.38 
freq.     173.31  E(vib)   ...       0.38 
freq.     177.56  E(vib)   ...       0.37 
freq.     199.59  E(vib)   ...       0.35 
freq.     208.80  E(vib)   ...       0.34 
freq.     213.96  E(vib)   ...       0.34 
freq.     251.64  E(vib)   ...       0.30 
freq.     299.91  E(vib)   ...       0.26 
freq.     300.48  E(vib)   ...       0.26 
freq.     317.27  E(vib)   ...       0.25 
freq.     320.24  E(vib)   ...       0.25 
freq.     335.28  E(vib)   ...       0.24 
freq.     338.36  E(vib)   ...       0.23 
freq.     380.68  E(vib)   ...       0.21 
freq.     388.50  E(vib)   ...       0.20 
freq.     395.53  E(vib)   ...       0.20 
freq.     397.86  E(vib)   ...       0.20 
freq.     403.52  E(vib)   ...       0.19 
freq.     421.05  E(vib)   ...       0.18 
freq.     467.89  E(vib)   ...       0.16 
freq.     474.60  E(vib)   ...       0.15 
freq.     500.66  E(vib)   ...       0.14 
freq.     504.22  E(vib)   ...       0.14 
freq.     539.97  E(vib)   ...       0.12 
freq.     557.80  E(vib)   ...       0.12 
freq.     566.66  E(vib)   ...       0.11 
freq.     577.38  E(vib)   ...       0.11 
freq.     592.55  E(vib)   ...       0.10 
freq.     595.06  E(vib)   ...       0.10 
freq.     611.72  E(vib)   ...       0.10 
freq.     627.72  E(vib)   ...       0.09 
freq.     647.66  E(vib)   ...       0.09 
freq.     677.28  E(vib)   ...       0.08 
freq.     713.72  E(vib)   ...       0.07 
freq.     719.45  E(vib)   ...       0.07 
freq.     754.00  E(vib)   ...       0.06 
freq.     756.32  E(vib)   ...       0.06 
freq.     771.27  E(vib)   ...       0.05 
freq.     772.05  E(vib)   ...       0.05 
freq.     818.10  E(vib)   ...       0.05 
freq.     820.55  E(vib)   ...       0.05 
freq.     822.12  E(vib)   ...       0.05 
freq.     834.49  E(vib)   ...       0.04 
freq.     836.79  E(vib)   ...       0.04 
freq.     863.50  E(vib)   ...       0.04 
freq.     876.94  E(vib)   ...       0.04 
freq.     902.50  E(vib)   ...       0.03 
freq.     919.65  E(vib)   ...       0.03 
freq.     921.28  E(vib)   ...       0.03 
freq.     927.09  E(vib)   ...       0.03 
freq.     964.08  E(vib)   ...       0.03 
freq.     967.75  E(vib)   ...       0.03 
freq.     969.11  E(vib)   ...       0.03 
freq.     973.91  E(vib)   ...       0.03 
freq.     987.89  E(vib)   ...       0.02 
freq.    1012.31  E(vib)   ...       0.02 
freq.    1019.25  E(vib)   ...       0.02 
freq.    1055.85  E(vib)   ...       0.02 
freq.    1056.38  E(vib)   ...       0.02 
freq.    1091.67  E(vib)   ...       0.02 
freq.    1143.13  E(vib)   ...       0.01 
freq.    1144.06  E(vib)   ...       0.01 
freq.    1168.22  E(vib)   ...       0.01 
freq.    1175.58  E(vib)   ...       0.01 
freq.    1175.93  E(vib)   ...       0.01 
freq.    1187.80  E(vib)   ...       0.01 
freq.    1189.29  E(vib)   ...       0.01 
freq.    1202.77  E(vib)   ...       0.01 
freq.    1204.12  E(vib)   ...       0.01 
freq.    1220.97  E(vib)   ...       0.01 
freq.    1222.45  E(vib)   ...       0.01 
freq.    1248.83  E(vib)   ...       0.01 
freq.    1272.55  E(vib)   ...       0.01 
freq.    1281.64  E(vib)   ...       0.01 
freq.    1288.75  E(vib)   ...       0.01 
freq.    1293.26  E(vib)   ...       0.01 
freq.    1296.61  E(vib)   ...       0.01 
freq.    1311.81  E(vib)   ...       0.01 
freq.    1313.81  E(vib)   ...       0.01 
freq.    1320.89  E(vib)   ...       0.01 
freq.    1330.43  E(vib)   ...       0.01 
freq.    1362.36  E(vib)   ...       0.01 
freq.    1365.12  E(vib)   ...       0.01 
freq.    1378.94  E(vib)   ...       0.01 
freq.    1380.44  E(vib)   ...       0.01 
freq.    1381.29  E(vib)   ...       0.01 
freq.    1465.52  E(vib)   ...       0.00 
freq.    1466.39  E(vib)   ...       0.00 
freq.    1483.88  E(vib)   ...       0.00 
freq.    1484.52  E(vib)   ...       0.00 
freq.    1492.53  E(vib)   ...       0.00 
freq.    1493.61  E(vib)   ...       0.00 
freq.    1494.48  E(vib)   ...       0.00 
freq.    1494.88  E(vib)   ...       0.00 
freq.    1558.69  E(vib)   ...       0.00 
freq.    1559.79  E(vib)   ...       0.00 
freq.    1661.46  E(vib)   ...       0.00 
freq.    1662.15  E(vib)   ...       0.00 
freq.    1669.45  E(vib)   ...       0.00 
freq.    1673.55  E(vib)   ...       0.00 
freq.    1682.23  E(vib)   ...       0.00 
freq.    1702.71  E(vib)   ...       0.00 
freq.    1705.13  E(vib)   ...       0.00 
freq.    1712.44  E(vib)   ...       0.00 
freq.    1730.47  E(vib)   ...       0.00 
freq.    3045.13  E(vib)   ...       0.00 
freq.    3045.62  E(vib)   ...       0.00 
freq.    3120.03  E(vib)   ...       0.00 
freq.    3120.98  E(vib)   ...       0.00 
freq.    3138.52  E(vib)   ...       0.00 
freq.    3164.28  E(vib)   ...       0.00 
freq.    3166.04  E(vib)   ...       0.00 
freq.    3166.49  E(vib)   ...       0.00 
freq.    3171.71  E(vib)   ...       0.00 
freq.    3181.61  E(vib)   ...       0.00 
freq.    3183.35  E(vib)   ...       0.00 
freq.    3189.72  E(vib)   ...       0.00 
freq.    3194.86  E(vib)   ...       0.00 
freq.    3196.88  E(vib)   ...       0.00 
freq.    3198.52  E(vib)   ...       0.00 
freq.    3206.25  E(vib)   ...       0.00 
freq.    3206.38  E(vib)   ...       0.00 
freq.    3798.34  E(vib)   ...       0.00 
freq.    3800.26  E(vib)   ...       0.00 

------------
INNER ENERGY
------------

The inner energy is: U= E(el) + E(ZPE) + E(vib) + E(rot) + E(trans)
    E(el)   - is the total energy from the electronic structure calculation
              = E(kin-el) + E(nuc-el) + E(el-el) + E(nuc-nuc)
    E(ZPE)  - the the zero temperature vibrational energy from the frequency calculation
    E(vib)  - the the finite temperature correction to E(ZPE) due to population
              of excited vibrational states
    E(rot)  - is the rotational thermal energy
    E(trans)- is the translational thermal energy

Summary of contributions to the inner energy U:
Electronic energy                ...  -1468.48685895 Eh
Zero point energy                ...      0.37276388 Eh     233.91 kcal/mol
Thermal vibrational correction   ...      0.02757634 Eh      17.30 kcal/mol
Thermal rotational correction    ...      0.00141627 Eh       0.89 kcal/mol
Thermal translational correction ...      0.00141627 Eh       0.89 kcal/mol
-----------------------------------------------------------------------
Total thermal energy                  -1468.08368619 Eh


Summary of corrections to the electronic energy:
(perhaps to be used in another calculation)
Total thermal correction                  0.03040888 Eh      19.08 kcal/mol
Non-thermal (ZPE) correction              0.37276388 Eh     233.91 kcal/mol
-----------------------------------------------------------------------
Total correction                          0.40317276 Eh     252.99 kcal/mol


--------
ENTHALPY
--------

The enthalpy is H = U + kB*T
                kB is Boltzmann's constant
Total free energy                 ...  -1468.08368619 Eh 
Thermal Enthalpy correction       ...      0.00094421 Eh       0.59 kcal/mol
-----------------------------------------------------------------------
Total Enthalpy                    ...  -1468.08274198 Eh


Note: Only C1 symmetry has been detected, increase convergence thresholds 
      if your molecule has a higher symmetry. Symmetry factor of 1.0 is   
      used for the rotational entropy correction. 
 

Note: Rotational entropy computed according to Herzberg 
Infrared and Raman Spectra, Chapter V,1, Van Nostrand Reinhold, 1945 
Point Group:  C1, Symmetry Number:   1  
Rotational constants in cm-1:     0.007134     0.001708     0.001461 

Vibrational entropy computed according to the QRRHO of S. Grimme
Chem.Eur.J. 2012 18 9955


-------
ENTROPY
-------

The entropy contributions are T*S = T*(S(el)+S(vib)+S(rot)+S(trans))
     S(el)   - electronic entropy
     S(vib)  - vibrational entropy
     S(rot)  - rotational entropy
     S(trans)- translational entropy
The entropies will be listed as multiplied by the temperature to get
units of energy

Electronic entropy                ...      0.00065446 Eh      0.41 kcal/mol
Vibrational entropy               ...      0.05107460 Eh     32.05 kcal/mol
Rotational entropy                ...      0.01793481 Eh     11.25 kcal/mol
Translational entropy             ...      0.02088467 Eh     13.11 kcal/mol
-----------------------------------------------------------------------
Final entropy term                ...      0.09054853 Eh     56.82 kcal/mol

In case the symmetry of your molecule has not been determined correctly
or in case you have a reason to use a different symmetry number we print 
out the resulting rotational entropy values for sn=1,12 :
 --------------------------------------------------------
|  sn= 1 | S(rot)=       0.01793481 Eh     11.25 kcal/mol|
|  sn= 2 | S(rot)=       0.01728035 Eh     10.84 kcal/mol|
|  sn= 3 | S(rot)=       0.01689752 Eh     10.60 kcal/mol|
|  sn= 4 | S(rot)=       0.01662589 Eh     10.43 kcal/mol|
|  sn= 5 | S(rot)=       0.01641520 Eh     10.30 kcal/mol|
|  sn= 6 | S(rot)=       0.01624306 Eh     10.19 kcal/mol|
|  sn= 7 | S(rot)=       0.01609751 Eh     10.10 kcal/mol|
|  sn= 8 | S(rot)=       0.01597144 Eh     10.02 kcal/mol|
|  sn= 9 | S(rot)=       0.01586023 Eh      9.95 kcal/mol|
|  sn=10 | S(rot)=       0.01576075 Eh      9.89 kcal/mol|
|  sn=11 | S(rot)=       0.01567076 Eh      9.83 kcal/mol|
|  sn=12 | S(rot)=       0.01558860 Eh      9.78 kcal/mol|
 --------------------------------------------------------


-------------------
GIBBS FREE ENERGY
-------------------

The Gibbs free energy is G = H - T*S

Total enthalpy                    ...  -1468.08274198 Eh 
Total entropy correction          ...     -0.09054853 Eh    -56.82 kcal/mol
-----------------------------------------------------------------------
Final Gibbs free energy         ...  -1468.17329051 Eh

For completeness - the Gibbs free energy minus the electronic energy
G-E(el)                           ...      0.31356844 Eh    196.77 kcal/mol



Timings for individual modules:

Sum of individual times         ...  1120423.771 sec (=18673.730 min)
GTO integral calculation        ...       72.431 sec (=   1.207 min)   0.0 %
SCF iterations                  ...   175554.558 sec (=2925.909 min)  15.7 %
SCF Gradient evaluation         ...    21513.406 sec (= 358.557 min)   1.9 %
Geometry relaxation             ...        3.723 sec (=   0.062 min)   0.0 %
Numerical frequency calculation ...   923279.653 sec (=15387.994 min)  82.4 %
                             ****ORCA TERMINATED NORMALLY****
TOTAL RUN TIME: 12 days 22 hours 47 minutes 54 seconds 325 msec
