 Entering Gaussian System, Link 0=g16
 Initial command:
 /sw/cluster/pub/apps//g16/l1.exe "/data/natrosa/25420/Gau-1558152.inp" -scrdir="/data/natrosa/25420/"
 Entering Link 1 = /sw/cluster/pub/apps//g16/l1.exe PID=   1558153.
  
 Copyright (c) 1988,1990,1992,1993,1995,1998,2003,2009,2016,
            Gaussian, Inc.  All Rights Reserved.
  
 This is part of the Gaussian(R) 16 program.  It is based on
 the Gaussian(R) 09 system (copyright 2009, Gaussian, Inc.),
 the Gaussian(R) 03 system (copyright 2003, Gaussian, Inc.),
 the Gaussian(R) 98 system (copyright 1998, Gaussian, Inc.),
 the Gaussian(R) 94 system (copyright 1995, Gaussian, Inc.),
 the Gaussian 92(TM) system (copyright 1992, Gaussian, Inc.),
 the Gaussian 90(TM) system (copyright 1990, Gaussian, Inc.),
 the Gaussian 88(TM) system (copyright 1988, Gaussian, Inc.),
 the Gaussian 86(TM) system (copyright 1986, Carnegie Mellon
 University), and the Gaussian 82(TM) system (copyright 1983,
 Carnegie Mellon University). Gaussian is a federally registered
 trademark of Gaussian, Inc.
  
 This software contains proprietary and confidential information,
 including trade secrets, belonging to Gaussian, Inc.
  
 This software is provided under written license and may be
 used, copied, transmitted, or stored only in accord with that
 written license.
  
 The following legend is applicable only to US Government
 contracts under FAR:
  
                    RESTRICTED RIGHTS LEGEND
  
 Use, reproduction and disclosure by the US Government is
 subject to restrictions as set forth in subparagraphs (a)
 and (c) of the Commercial Computer Software - Restricted
 Rights clause in FAR 52.227-19.
  
 Gaussian, Inc.
 340 Quinnipiac St., Bldg. 40, Wallingford CT 06492
  
  
 ---------------------------------------------------------------
 Warning -- This program may not be used in any manner that
 competes with the business of Gaussian, Inc. or will provide
 assistance to any competitor of Gaussian, Inc.  The licensee
 of this program is prohibited from giving any competitor of
 Gaussian, Inc. access to this program.  By using this program,
 the user acknowledges that Gaussian, Inc. is engaged in the
 business of creating and licensing software in the field of
 computational chemistry and represents and warrants to the
 licensee that it is not a competitor of Gaussian, Inc. and that
 it will not use this program in any manner prohibited above.
 ---------------------------------------------------------------
  

 Cite this work as:
 Gaussian 16, Revision A.03,
 M. J. Frisch, G. W. Trucks, H. B. Schlegel, G. E. Scuseria, 
 M. A. Robb, J. R. Cheeseman, G. Scalmani, V. Barone, 
 G. A. Petersson, H. Nakatsuji, X. Li, M. Caricato, A. V. Marenich, 
 J. Bloino, B. G. Janesko, R. Gomperts, B. Mennucci, H. P. Hratchian, 
 J. V. Ortiz, A. F. Izmaylov, J. L. Sonnenberg, D. Williams-Young, 
 F. Ding, F. Lipparini, F. Egidi, J. Goings, B. Peng, A. Petrone, 
 T. Henderson, D. Ranasinghe, V. G. Zakrzewski, J. Gao, N. Rega, 
 G. Zheng, W. Liang, M. Hada, M. Ehara, K. Toyota, R. Fukuda, 
 J. Hasegawa, M. Ishida, T. Nakajima, Y. Honda, O. Kitao, H. Nakai, 
 T. Vreven, K. Throssell, J. A. Montgomery, Jr., J. E. Peralta, 
 F. Ogliaro, M. J. Bearpark, J. J. Heyd, E. N. Brothers, K. N. Kudin, 
 V. N. Staroverov, T. A. Keith, R. Kobayashi, J. Normand, 
 K. Raghavachari, A. P. Rendell, J. C. Burant, S. S. Iyengar, 
 J. Tomasi, M. Cossi, J. M. Millam, M. Klene, C. Adamo, R. Cammi, 
 J. W. Ochterski, R. L. Martin, K. Morokuma, O. Farkas, 
 J. B. Foresman, and D. J. Fox, Gaussian, Inc., Wallingford CT, 2016.
 
 ******************************************
 Gaussian 16:  ES64L-G16RevA.03 25-Dec-2016
                 7-Nov-2024 
 ******************************************
 %oldchk=/home/natrosa/MOSSRI/REACAO-2/B3LYP-6-31G-D/CURCUMIN-OPT-FREQ-TS2-B3LYP-
 6-311G-D-298.chk
 %chk=CURCUMIN-TS-2-B3LYP-6-311G-D-298-NBO.chk
 Copying data from "/home/natrosa/MOSSRI/REACAO-2/B3LYP-6-31G-D/CURCUMIN-OPT-FREQ-TS2-B3LYP-6-311G-D-298.chk" to current chk file "CURCUMIN-TS-2-B3LYP-6-311G-D-298-NBO.chk"
 IOpt=  2 FromEx=T IUOpen= 4 IOptOp= 5 NList=   0 IFRang= 0 IUIn= 4 IUOut= 2.
 ----------------------------------------------------------------------
 # pop=nbo b3lyp/6-311g(d) scrf=(smd,solvent=generic,read) temperature=
 298.15 Geom=Check Guess=Read
 ----------------------------------------------------------------------
 1/29=2,38=1,40=2,112=298150,172=1/1;
 2/12=2,40=1/2;
 3/5=4,6=6,7=1,11=2,14=-4,25=1,30=1,70=32203,72=-2,74=-5,116=-2/1,2,3;
 4/5=1/1;
 5/5=2,38=6/2;
 6/7=2,8=2,9=2,10=2,28=1,40=1/1,7;
 99/5=1,9=1/99;
 ----------
 Reagente 1
 ----------
 Structure from the checkpoint file:  "CURCUMIN-TS-2-B3LYP-6-311G-D-298-NBO.chk"
 Charge =  0 Multiplicity = 2
 Redundant internal coordinates found in file.  (old form).
 C,0,-2.5196309289,0.3012235757,-0.1912373809
 H,0,-2.0090650124,0.5494874329,-1.1177108264
 C,0,-1.9355908067,0.6333677435,0.9832743569
 H,0,-2.4096320458,0.4035322728,1.9324901917
 C,0,-0.6479941562,1.3120183983,1.130126667
 O,0,-0.1747507529,1.5456976593,2.2346085
 C,0,-3.7975320815,-0.3610213604,-0.3776966634
 C,0,-4.2466561027,-0.6084287005,-1.6868586361
 C,0,-4.6166067836,-0.7781470581,0.6923131473
 C,0,-5.4626047699,-1.2336177054,-1.9203369914
 H,0,-3.6371189188,-0.2987448322,-2.5294687494
 C,0,-5.8313324125,-1.4014377806,0.4756661372
 H,0,-4.3214491556,-0.6109559115,1.7217707846
 C,0,-6.2689179086,-1.6295381899,-0.8508616091
 H,0,-5.8015752462,-1.4071551003,-2.9380690311
 O,0,-7.4760291529,-2.2178574835,-1.0176305512
 H,0,-7.6699770542,-2.3120898152,-1.9614244256
 O,0,-6.6194064398,-1.7240090374,1.5458606256
 C,0,-6.7834372181,-3.1283539581,1.8037154845
 H,0,-5.8122710803,-3.6041732041,1.9737300781
 H,0,-7.3834750032,-3.1989244816,2.7102568014
 H,0,-7.302621484,-3.6284048465,0.9843206286
 C,0,2.7665843516,0.2557616603,-0.0986857563
 H,0,1.8528412033,-0.2844259334,-0.3343948532
 C,0,2.6924761514,1.5823365222,0.1456647833
 H,0,3.578707878,2.1610968356,0.3902878903
 C,0,1.4689200178,2.3899694442,0.1497325042
 O,0,1.5112444687,3.5911978135,0.3641878987
 C,0,3.9611781664,-0.5757838388,-0.0823625442
 C,0,3.8404271566,-1.9435543593,-0.3771370258
 C,0,5.2457743061,-0.0773276781,0.2143738934
 C,0,4.948419837,-2.7806677927,-0.3660234212
 H,0,2.8648434044,-2.3575647735,-0.6102086651
 C,0,6.3590611193,-0.898565222,0.2292887346
 H,0,5.3997835254,0.9682390619,0.4547244304
 C,0,6.2122092397,-2.2746859224,-0.059080748
 H,0,4.8361761505,-3.8397690064,-0.5828470703
 O,0,7.3238838023,-3.0488398494,-0.0062486392
 H,0,7.0950514893,-3.9659700402,-0.2139023675
 O,0,7.5711982257,-0.37525687,0.5905423501
 C,0,8.5563049581,-0.3026868354,-0.4526685793
 H,0,8.1887647767,0.3015754549,-1.2884291754
 H,0,9.4261497992,0.1831538186,-0.0117603263
 H,0,8.8363334462,-1.2955423014,-0.8090181062
 C,0,0.1319604829,1.7078320146,-0.1061640426
 H,0,0.1502678868,0.9421215792,-0.8824030681
 H,0,-0.5582801447,2.6065281648,-0.6587234998
 O,0,-1.2550257277,3.5079738045,-1.3005528337
 O,0,-2.6384677514,4.9947349948,-0.7419561652
 N,0,-1.9401317051,4.1236246364,-0.315305136
 Recover connectivity data from disk.
                           ----------------------------
                           !    Current Parameters    !
                           ! (Angstroms and Degrees)  !
 --------------------------                            --------------------------
 ! Name  Definition              Value                                          !
 --------------------------------------------------------------------------------
 ! R1    R(1,2)                  1.0866                                         !
 ! R2    R(1,3)                  1.3531                                         !
 ! R3    R(1,7)                  1.4513                                         !
 ! R4    R(3,4)                  1.0856                                         !
 ! R5    R(3,5)                  1.4629                                         !
 ! R6    R(5,6)                  1.2241                                         !
 ! R7    R(5,45)                 1.5144                                         !
 ! R8    R(7,8)                  1.406                                          !
 ! R9    R(7,9)                  1.4106                                         !
 ! R10   R(8,10)                 1.387                                          !
 ! R11   R(8,11)                 1.0851                                         !
 ! R12   R(9,12)                 1.3824                                         !
 ! R13   R(9,13)                 1.0839                                         !
 ! R14   R(10,14)                1.3967                                         !
 ! R15   R(10,15)                1.0866                                         !
 ! R16   R(12,14)                1.4153                                         !
 ! R17   R(12,18)                1.3676                                         !
 ! R18   R(14,16)                1.3532                                         !
 ! R19   R(16,17)                0.9681                                         !
 ! R20   R(18,19)                1.4372                                         !
 ! R21   R(19,20)                1.0947                                         !
 ! R22   R(19,21)                1.0894                                         !
 ! R23   R(19,22)                1.0913                                         !
 ! R24   R(23,24)                1.0873                                         !
 ! R25   R(23,25)                1.3509                                         !
 ! R26   R(23,29)                1.4556                                         !
 ! R27   R(25,26)                1.0864                                         !
 ! R28   R(25,27)                1.4661                                         !
 ! R29   R(27,28)                1.221                                          !
 ! R30   R(27,45)                1.5226                                         !
 ! R31   R(29,30)                1.4044                                         !
 ! R32   R(29,31)                1.4095                                         !
 ! R33   R(30,32)                1.3887                                         !
 ! R34   R(30,33)                1.0851                                         !
 ! R35   R(31,34)                1.3835                                         !
 ! R36   R(31,35)                1.0838                                         !
 ! R37   R(32,36)                1.3955                                         !
 ! R38   R(32,37)                1.0869                                         !
 ! R39   R(34,36)                1.4137                                         !
 ! R40   R(34,40)                1.3688                                         !
 ! R41   R(36,38)                1.3557                                         !
 ! R42   R(38,39)                0.9678                                         !
 ! R43   R(40,41)                1.4367                                         !
 ! R44   R(41,42)                1.0949                                         !
 ! R45   R(41,43)                1.0895                                         !
 ! R46   R(41,44)                1.0914                                         !
 ! R47   R(45,46)                1.0905                                         !
 ! R48   R(45,47)                1.2607                                         !
 ! R49   R(47,48)                1.3077                                         !
 ! R50   R(48,50)                1.3487                                         !
 ! R51   R(49,50)                1.1952                                         !
 ! A1    A(2,1,3)              118.7643                                         !
 ! A2    A(2,1,7)              114.1071                                         !
 ! A3    A(3,1,7)              127.1263                                         !
 ! A4    A(1,3,4)              121.2325                                         !
 ! A5    A(1,3,5)              125.5153                                         !
 ! A6    A(4,3,5)              113.2521                                         !
 ! A7    A(3,5,6)              121.2928                                         !
 ! A8    A(3,5,45)             119.5125                                         !
 ! A9    A(6,5,45)             119.1811                                         !
 ! A10   A(1,7,8)              118.7626                                         !
 ! A11   A(1,7,9)              123.2811                                         !
 ! A12   A(8,7,9)              117.9557                                         !
 ! A13   A(7,8,10)             121.0696                                         !
 ! A14   A(7,8,11)             119.5637                                         !
 ! A15   A(10,8,11)            119.3649                                         !
 ! A16   A(7,9,12)             121.6469                                         !
 ! A17   A(7,9,13)             121.112                                          !
 ! A18   A(12,9,13)            117.2374                                         !
 ! A19   A(8,10,14)            120.3298                                         !
 ! A20   A(8,10,15)            120.2051                                         !
 ! A21   A(14,10,15)           119.4599                                         !
 ! A22   A(9,12,14)            119.4213                                         !
 ! A23   A(9,12,18)            119.3441                                         !
 ! A24   A(14,12,18)           121.1476                                         !
 ! A25   A(10,14,12)           119.5715                                         !
 ! A26   A(10,14,16)           122.948                                          !
 ! A27   A(12,14,16)           117.4764                                         !
 ! A28   A(14,16,17)           109.9488                                         !
 ! A29   A(12,18,19)           115.8888                                         !
 ! A30   A(18,19,20)           110.5677                                         !
 ! A31   A(18,19,21)           105.989                                          !
 ! A32   A(18,19,22)           111.5499                                         !
 ! A33   A(20,19,21)           109.3431                                         !
 ! A34   A(20,19,22)           109.8452                                         !
 ! A35   A(21,19,22)           109.4553                                         !
 ! A36   A(24,23,25)           118.7479                                         !
 ! A37   A(24,23,29)           114.0974                                         !
 ! A38   A(25,23,29)           127.1545                                         !
 ! A39   A(23,25,26)           121.2732                                         !
 ! A40   A(23,25,27)           125.9611                                         !
 ! A41   A(26,25,27)           112.7506                                         !
 ! A42   A(25,27,28)           120.8997                                         !
 ! A43   A(25,27,45)           119.0495                                         !
 ! A44   A(28,27,45)           120.0486                                         !
 ! A45   A(23,29,30)           118.9118                                         !
 ! A46   A(23,29,31)           123.2501                                         !
 ! A47   A(30,29,31)           117.838                                          !
 ! A48   A(29,30,32)           121.1181                                         !
 ! A49   A(29,30,33)           119.6022                                         !
 ! A50   A(32,30,33)           119.2779                                         !
 ! A51   A(29,31,34)           121.7175                                         !
 ! A52   A(29,31,35)           121.1543                                         !
 ! A53   A(34,31,35)           117.123                                          !
 ! A54   A(30,32,36)           120.3813                                         !
 ! A55   A(30,32,37)           120.2251                                         !
 ! A56   A(36,32,37)           119.388                                          !
 ! A57   A(31,34,36)           119.4749                                         !
 ! A58   A(31,34,40)           119.2418                                         !
 ! A59   A(36,34,40)           121.1972                                         !
 ! A60   A(32,36,34)           119.4655                                         !
 ! A61   A(32,36,38)           122.9655                                         !
 ! A62   A(34,36,38)           117.5641                                         !
 ! A63   A(36,38,39)           109.8096                                         !
 ! A64   A(34,40,41)           115.7777                                         !
 ! A65   A(40,41,42)           110.6091                                         !
 ! A66   A(40,41,43)           106.0281                                         !
 ! A67   A(40,41,44)           111.5349                                         !
 ! A68   A(42,41,43)           109.3182                                         !
 ! A69   A(42,41,44)           109.814                                          !
 ! A70   A(43,41,44)           109.4474                                         !
 ! A71   A(5,45,27)            115.6028                                         !
 ! A72   A(5,45,46)            113.9677                                         !
 ! A73   A(5,45,47)            105.197                                          !
 ! A74   A(27,45,46)           114.8012                                         !
 ! A75   A(27,45,47)           103.5945                                         !
 ! A76   A(46,45,47)           101.405                                          !
 ! A77   A(47,48,50)           103.1071                                         !
 ! A78   A(48,50,49)           111.6362                                         !
 ! A79   L(45,47,48,1,-1)      179.9845                                         !
 ! A80   L(45,47,48,1,-2)      183.5173                                         !
 ! D1    D(2,1,3,4)           -179.9317                                         !
 ! D2    D(2,1,3,5)             -0.0412                                         !
 ! D3    D(7,1,3,4)              0.6438                                         !
 ! D4    D(7,1,3,5)           -179.4656                                         !
 ! D5    D(2,1,7,8)             -0.2324                                         !
 ! D6    D(2,1,7,9)            179.4793                                         !
 ! D7    D(3,1,7,8)            179.2149                                         !
 ! D8    D(3,1,7,9)             -1.0734                                         !
 ! D9    D(1,3,5,6)           -178.1176                                         !
 ! D10   D(1,3,5,45)             0.5316                                         !
 ! D11   D(4,3,5,6)              1.7805                                         !
 ! D12   D(4,3,5,45)          -179.5703                                         !
 ! D13   D(3,5,45,27)         -179.1238                                         !
 ! D14   D(3,5,45,46)          -42.8994                                         !
 ! D15   D(3,5,45,47)           67.2824                                         !
 ! D16   D(6,5,45,27)           -0.4459                                         !
 ! D17   D(6,5,45,46)          135.7785                                         !
 ! D18   D(6,5,45,47)         -114.0397                                         !
 ! D19   D(1,7,8,10)          -179.7596                                         !
 ! D20   D(1,7,8,11)            -0.258                                          !
 ! D21   D(9,7,8,10)             0.5133                                         !
 ! D22   D(9,7,8,11)          -179.9852                                         !
 ! D23   D(1,7,9,12)           179.7207                                         !
 ! D24   D(1,7,9,13)             0.4466                                         !
 ! D25   D(8,7,9,12)            -0.5654                                         !
 ! D26   D(8,7,9,13)          -179.8395                                         !
 ! D27   D(7,8,10,14)            0.0908                                         !
 ! D28   D(7,8,10,15)          179.2619                                         !
 ! D29   D(11,8,10,14)        -179.4117                                         !
 ! D30   D(11,8,10,15)          -0.2406                                         !
 ! D31   D(7,9,12,14)            0.0138                                         !
 ! D32   D(7,9,12,18)         -176.6339                                         !
 ! D33   D(13,9,12,14)         179.3149                                         !
 ! D34   D(13,9,12,18)           2.6672                                         !
 ! D35   D(8,10,14,12)          -0.6554                                         !
 ! D36   D(8,10,14,16)         178.5922                                         !
 ! D37   D(15,10,14,12)       -179.8327                                         !
 ! D38   D(15,10,14,16)         -0.5851                                         !
 ! D39   D(9,12,14,10)           0.6019                                         !
 ! D40   D(9,12,14,16)        -178.6865                                         !
 ! D41   D(18,12,14,10)        177.1874                                         !
 ! D42   D(18,12,14,16)         -2.1009                                         !
 ! D43   D(9,12,18,19)        -112.3946                                         !
 ! D44   D(14,12,18,19)         71.0173                                         !
 ! D45   D(10,14,16,17)          0.1126                                         !
 ! D46   D(12,14,16,17)        179.3751                                         !
 ! D47   D(12,18,19,20)         58.4651                                         !
 ! D48   D(12,18,19,21)        176.859                                          !
 ! D49   D(12,18,19,22)        -64.0845                                         !
 ! D50   D(24,23,25,26)        179.6719                                         !
 ! D51   D(24,23,25,27)          1.1903                                         !
 ! D52   D(29,23,25,26)         -0.1449                                         !
 ! D53   D(29,23,25,27)       -178.6265                                         !
 ! D54   D(24,23,29,30)          0.7978                                         !
 ! D55   D(24,23,29,31)       -179.2961                                         !
 ! D56   D(25,23,29,30)       -179.3781                                         !
 ! D57   D(25,23,29,31)          0.528                                          !
 ! D58   D(23,25,27,28)       -178.9203                                         !
 ! D59   D(23,25,27,45)          1.6201                                         !
 ! D60   D(26,25,27,28)          2.4869                                         !
 ! D61   D(26,25,27,45)       -176.9727                                         !
 ! D62   D(25,27,45,5)          95.6989                                         !
 ! D63   D(25,27,45,46)        -40.1611                                         !
 ! D64   D(25,27,45,47)       -149.7858                                         !
 ! D65   D(28,27,45,5)         -83.7653                                         !
 ! D66   D(28,27,45,46)        140.3746                                         !
 ! D67   D(28,27,45,47)         30.7499                                         !
 ! D68   D(23,29,30,32)       -179.5671                                         !
 ! D69   D(23,29,30,33)         -0.0564                                         !
 ! D70   D(31,29,30,32)          0.5218                                         !
 ! D71   D(31,29,30,33)       -179.9675                                         !
 ! D72   D(23,29,31,34)        179.576                                          !
 ! D73   D(23,29,31,35)          0.4283                                         !
 ! D74   D(30,29,31,34)         -0.517                                          !
 ! D75   D(30,29,31,35)       -179.6647                                         !
 ! D76   D(29,30,32,36)          0.0157                                         !
 ! D77   D(29,30,32,37)        179.1455                                         !
 ! D78   D(33,30,32,36)       -179.4966                                         !
 ! D79   D(33,30,32,37)         -0.3667                                         !
 ! D80   D(29,31,34,36)         -0.0246                                         !
 ! D81   D(29,31,34,40)       -176.6919                                         !
 ! D82   D(35,31,34,36)        179.1559                                         !
 ! D83   D(35,31,34,40)          2.4886                                         !
 ! D84   D(30,32,36,34)         -0.5706                                         !
 ! D85   D(30,32,36,38)        178.613                                          !
 ! D86   D(37,32,36,34)       -179.7077                                         !
 ! D87   D(37,32,36,38)         -0.5241                                         !
 ! D88   D(31,34,36,32)          0.5733                                         !
 ! D89   D(31,34,36,38)       -178.6541                                         !
 ! D90   D(40,34,36,32)        177.1736                                         !
 ! D91   D(40,34,36,38)         -2.0538                                         !
 ! D92   D(31,34,40,41)       -112.5657                                         !
 ! D93   D(36,34,40,41)         70.8262                                         !
 ! D94   D(32,36,38,39)          0.3078                                         !
 ! D95   D(34,36,38,39)        179.506                                          !
 ! D96   D(34,40,41,42)         58.4668                                         !
 ! D97   D(34,40,41,43)        176.8756                                         !
 ! D98   D(34,40,41,44)        -64.0617                                         !
 ! D99   D(5,45,48,50)          28.9461                                         !
 ! D100  D(27,45,48,50)        -93.5432                                         !
 ! D101  D(46,45,48,50)        147.7224                                         !
 ! D102  D(47,48,50,49)        179.8683                                         !
 --------------------------------------------------------------------------------
                          Input orientation:                          
 ---------------------------------------------------------------------
 Center     Atomic      Atomic             Coordinates (Angstroms)
 Number     Number       Type             X           Y           Z
 ---------------------------------------------------------------------
      1          6           0       -2.519631    0.301224   -0.191237
      2          1           0       -2.009065    0.549487   -1.117711
      3          6           0       -1.935591    0.633368    0.983274
      4          1           0       -2.409632    0.403532    1.932490
      5          6           0       -0.647994    1.312018    1.130127
      6          8           0       -0.174751    1.545698    2.234609
      7          6           0       -3.797532   -0.361021   -0.377697
      8          6           0       -4.246656   -0.608429   -1.686859
      9          6           0       -4.616607   -0.778147    0.692313
     10          6           0       -5.462605   -1.233618   -1.920337
     11          1           0       -3.637119   -0.298745   -2.529469
     12          6           0       -5.831332   -1.401438    0.475666
     13          1           0       -4.321449   -0.610956    1.721771
     14          6           0       -6.268918   -1.629538   -0.850862
     15          1           0       -5.801575   -1.407155   -2.938069
     16          8           0       -7.476029   -2.217857   -1.017631
     17          1           0       -7.669977   -2.312090   -1.961424
     18          8           0       -6.619406   -1.724009    1.545861
     19          6           0       -6.783437   -3.128354    1.803715
     20          1           0       -5.812271   -3.604173    1.973730
     21          1           0       -7.383475   -3.198924    2.710257
     22          1           0       -7.302621   -3.628405    0.984321
     23          6           0        2.766584    0.255762   -0.098686
     24          1           0        1.852841   -0.284426   -0.334395
     25          6           0        2.692476    1.582337    0.145665
     26          1           0        3.578708    2.161097    0.390288
     27          6           0        1.468920    2.389969    0.149733
     28          8           0        1.511244    3.591198    0.364188
     29          6           0        3.961178   -0.575784   -0.082363
     30          6           0        3.840427   -1.943554   -0.377137
     31          6           0        5.245774   -0.077328    0.214374
     32          6           0        4.948420   -2.780668   -0.366023
     33          1           0        2.864843   -2.357565   -0.610209
     34          6           0        6.359061   -0.898565    0.229289
     35          1           0        5.399784    0.968239    0.454724
     36          6           0        6.212209   -2.274686   -0.059081
     37          1           0        4.836176   -3.839769   -0.582847
     38          8           0        7.323884   -3.048840   -0.006249
     39          1           0        7.095051   -3.965970   -0.213902
     40          8           0        7.571198   -0.375257    0.590542
     41          6           0        8.556305   -0.302687   -0.452669
     42          1           0        8.188765    0.301575   -1.288429
     43          1           0        9.426150    0.183154   -0.011760
     44          1           0        8.836333   -1.295542   -0.809018
     45          6           0        0.131960    1.707832   -0.106164
     46          1           0        0.150268    0.942122   -0.882403
     47          1           0       -0.558280    2.606528   -0.658723
     48          8           0       -1.255026    3.507974   -1.300553
     49          8           0       -2.638468    4.994735   -0.741956
     50          7           0       -1.940132    4.123625   -0.315305
 ---------------------------------------------------------------------
                    Distance matrix (angstroms):
                    1          2          3          4          5
     1  C    0.000000
     2  H    1.086584   0.000000
     3  C    1.353108   2.103942   0.000000
     4  H    2.129034   3.079851   1.085610   0.000000
     5  C    2.504143   2.736191   1.462887   2.138341   0.000000
     6  O    3.596096   3.949074   2.344939   2.527946   1.224110
     7  C    1.451333   2.138986   2.511549   2.801388   3.871974
     8  C    2.459058   2.582927   3.743353   4.183110   4.957206
     9  C    2.518533   3.440650   3.043826   2.793769   4.506702
    10  C    3.742542   3.968704   4.935222   5.181233   6.242281
    11  H    2.660088   2.315841   4.012904   4.680705   4.992200
    12  C    3.783012   4.577629   4.424353   4.133798   5.887118
    13  H    2.781766   3.841407   2.790347   2.174542   4.188334
    14  C    4.268501   4.792255   5.221352   5.174409   6.646191
    15  H    4.608123   4.639535   5.872521   6.205338   7.106583
    16  O    5.620905   6.128288   6.544430   6.422093   7.980911
    17  H    6.040615   6.398938   7.087324   7.085789   8.485287
    18  O    4.891547   5.789529   5.273695   4.732665   6.711785
    19  C    5.824250   6.697453   6.190742   5.623253   7.603571
    20  H    5.548035   6.424506   5.828071   5.257505   7.179858
    21  H    6.657829   7.588690   6.881015   6.190455   8.259063
    22  H    6.300866   7.063644   6.853300   6.410685   8.289337
    23  C    5.287221   4.891985   4.839801   5.562439   3.779551
    24  H    4.413841   4.027818   4.114707   4.876549   3.308721
    25  C    5.377808   4.976684   4.798035   5.532977   3.492990
    26  H    6.402112   6.007874   5.752658   6.428657   4.374163
    27  C    4.515269   4.134025   3.920604   4.708219   2.569918
    28  O    5.232627   4.882684   4.583961   5.290941   3.231661
    29  C    6.540786   6.162953   6.113061   6.753215   5.126246
    30  C    6.747142   6.401583   6.469438   7.064449   5.746001
    31  C    7.785200   7.402705   7.257293   7.860560   6.124165
    32  C    8.080865   7.749940   7.801657   8.340457   7.092841
    33  H    6.019739   5.697674   5.876141   6.473721   5.369789
    34  C    8.969253   8.598651   8.468563   9.026978   7.402500
    35  H    7.973663   7.585443   7.362012   7.968040   6.095077
    36  C    9.104823   8.757054   8.713778   9.245288   7.832053
    37  H    8.450389   8.149170   8.265502   8.765516   7.716950
    38  O   10.399612  10.064156  10.013774  10.508040   9.157471
    39  H   10.519105  10.202508  10.204883  10.678884   9.466696
    40  O   10.143650   9.775210   9.568208  10.100708   8.407923
    41  C   11.095468  10.620524  10.630993  11.244532   9.477955
    42  H   10.764459  10.202271  10.381392  11.077488   9.217305
    43  H   11.947712  11.494410  11.414111  11.996433  10.201305
    44  H   11.484304  11.005548  11.089065  11.699336  10.025574
    45  C    3.002786   2.636092   2.572182   3.509559   1.514402
    46  H    2.831399   2.207317   2.815473   3.842758   2.196434
    47  H    3.062657   2.558684   2.913160   3.872349   2.209930
    48  O    3.621195   3.058537   3.733952   4.628525   3.331503
    49  O    4.727205   4.505282   4.742571   5.318287   4.585748
    50  N    3.868070   3.663750   3.724006   4.371739   3.415263
                    6          7          8          9         10
     6  O    0.000000
     7  C    4.856363   0.000000
     8  C    6.049676   1.405997   0.000000
     9  C    5.244904   1.410602   2.413737   0.000000
    10  C    7.276645   2.431796   1.387049   2.783722   0.000000
    11  H    6.171417   2.158642   1.085095   3.401338   2.139492
    12  C    6.616374   2.438655   2.795814   1.382384   2.430011
    13  H    4.702049   2.178238   3.409451   1.083907   3.867156
    14  C    7.532670   2.817937   2.414767   2.415862   1.396664
    15  H    8.193722   3.415566   2.149713   3.870333   1.086644
    16  O    8.834595   4.169976   3.669738   3.629459   2.416089
    17  H    9.416349   4.616350   3.833663   4.326474   2.457088
    18  O    7.259404   3.677062   4.162324   2.373690   3.686896
    19  C    8.105996   4.618692   4.996938   3.384352   4.382145
    20  H    7.640083   4.484018   4.982524   3.325367   4.572260
    21  H    8.643112   5.517983   5.990403   4.193783   5.384661
    22  H    8.896128   4.981620   5.059089   3.927329   4.190191
    23  C    3.969842   6.598931   7.242559   7.497077   8.558985
    24  H    3.749701   5.651058   6.256037   6.568991   7.545325
    25  C    3.547678   6.794906   7.503942   7.700221   8.871488
    26  H    4.227137   7.833249   8.556935   8.711691   9.930177
    27  C    2.785885   5.965036   6.710534   6.882223   8.090835
    28  O    3.244245   6.659845   7.416001   7.533220   8.782509
    29  C    5.193741   7.767299   8.363254   8.615072   9.623855
    30  C    5.926023   7.800182   8.300533   8.603681   9.456843
    31  C    6.008132   9.067106   9.695514   9.898795  10.980136
    32  C    7.192190   9.074497   9.540055   9.829542  10.639487
    33  H    5.706801   6.958987   7.402167   7.756495   8.504474
    34  C    7.258542  10.188904  10.781328  10.986090  12.020189
    35  H    5.880211   9.330084  10.006301  10.170270  11.334927
    36  C    7.787785  10.196007  10.715127  10.957531  11.867998
    37  H    7.877226   9.310461   9.703517  10.017718  10.707278
    38  O    9.075282  11.447630  11.943929  12.174537  13.055767
    39  H    9.445830  11.474792  11.919606  12.171540  12.964274
    40  O    8.148174  11.409896  12.037550  12.194887  13.301177
    41  C    9.320371  12.354202  12.865944  13.231124  14.126235
    42  H    9.160132  12.039094  12.475037  13.002564  13.751946
    43  H    9.953893  13.239932  13.797760  14.093219  15.077298
    44  H    9.926527  12.675722  13.130398  13.546339  14.342193
    45  C    2.366342   4.449134   5.199610   5.419091   6.575904
    46  H    3.191505   4.187844   4.731204   5.306802   6.108640
    47  H    3.105451   4.402054   4.999713   5.454479   6.355375
    48  O    4.185079   4.720712   5.103318   5.800222   6.369501
    49  O    5.179353   5.491834   5.905468   6.268678   6.939503
    50  N    4.032907   4.854470   5.439995   5.675049   6.609386
                   11         12         13         14         15
    11  H    0.000000
    12  C    3.880894   0.000000
    13  H    4.317270   2.111252   0.000000
    14  C    3.393390   1.415340   3.383575   0.000000
    15  H    2.465846   3.413870   4.953667   2.150418   0.000000
    16  O    4.550371   2.366750   4.476363   1.353163   2.673783
    17  H    4.543146   3.185798   5.260458   1.913686   2.294268
    18  O    5.247259   1.367636   2.559383   2.424055   4.568902
    19  C    6.056607   2.377490   3.522129   3.091595   5.139173
    20  H    5.994660   2.663945   3.353414   3.476497   5.380778
    21  H    7.064060   3.260905   4.129248   4.048058   6.133223
    22  H    6.072006   2.717131   4.305371   2.903774   4.751024
    23  C    6.871943   8.774985   7.369225   9.260692   9.178276
    24  H    5.912547   7.807076   6.515850   8.248578   8.162704
    25  C    7.124506   9.036986   7.515969   9.571614   9.518161
    26  H    8.163575  10.062197   8.477594  10.624740  10.573556
    27  C    6.362306   8.232538   6.708594   8.776774   8.764290
    28  O    7.071814   8.879880   7.315835   9.447929   9.453347
    29  C    7.987440   9.843087   8.476913  10.312897  10.205763
    30  C    7.953089   9.724407   8.532143  10.125309   9.990711
    31  C    9.299650  11.159025   9.699937  11.667571  11.565045
    32  C    9.195211  10.900173   9.746641  11.286666  11.138418
    33  H    7.085041   8.815712   7.754455   9.165890   9.023803
    34  C   10.387211  12.203249  10.788119  12.695153  12.576641
    35  H    9.600847  11.478405   9.929835  12.025456  11.942528
    36  C   10.344874  12.086994  10.811910  12.522846  12.384353
    37  H    9.387487  10.993709   9.979910  11.326079  11.163621
    38  O   11.579000  13.266721  12.022608  13.692774  13.548741
    39  H   11.575399  13.196353  12.055681  13.581617  13.427271
    40  O   11.634719  13.442249  11.948652  13.971388  13.868921
    41  C   12.369022  14.459363  13.063681  14.889806  14.613206
    42  H   11.905969  14.232899  12.899592  14.592644  14.190514
    43  H   13.312403  15.347289  13.879201  15.821665  15.587687
    44  H   12.630937  14.724199  13.416437  15.109001  14.792352
    45  C    4.909655   6.750329   5.343312   7.256987   7.275278
    46  H    4.312409   6.566290   5.402779   6.915228   6.720811
    47  H    4.628126   6.719800   5.493669   7.112845   6.985500
    48  O    4.655718   6.942612   5.958437   7.192730   6.892827
    49  O    5.675688   7.251759   6.350287   7.554669   7.470767
    50  N    5.228732   6.803925   5.677729   7.219702   7.237345
                   16         17         18         19         20
    16  O    0.000000
    17  H    0.968113   0.000000
    18  O    2.747576   3.708178   0.000000
    19  C    3.044451   3.953292   1.437213   0.000000
    20  H    3.692993   4.539382   2.090349   1.094748   0.000000
    21  H    3.855931   4.763734   2.028545   1.089423   1.781960
    22  H    2.455101   3.247314   2.099722   1.091335   1.789040
    23  C   10.577069  10.908046   9.732464  10.308942   9.632796
    24  H    9.551586   9.871308   8.796973   9.340490   8.666147
    25  C   10.917565  11.268843   9.980162  10.711334  10.127805
    26  H   11.973499  12.331783  10.974103  11.719647  11.132660
    27  C   10.129507  10.492177   9.181232  10.064241   9.605855
    28  O   10.790071  11.160291   9.785462  10.771553  10.392202
    29  C   11.592275  11.909215  10.766536  11.203556  10.436425
    30  C   11.337886  11.624766  10.637398  10.909920  10.072677
    31  C   12.959320  13.287020  12.052673  12.511463  11.739435
    32  C   12.454247  12.727482  11.772274  11.935875  11.042874
    33  H   10.349838  10.621219   9.746847   9.975493   9.139097
    34  C   13.953676  14.269239  13.071164  13.422967  12.589866
    35  H   13.345621  13.690032  12.365262  12.924114  12.203463
    36  C   13.721877  14.011974  12.943317  13.156200  12.267354
    37  H   12.426183  12.674311  11.842221  11.883485  10.953585
    38  O   14.857687  15.138738  14.091826  14.223178  13.296138
    39  H   14.697560  14.959787  14.007481  14.049371  13.096397
    40  O   15.244686  15.574251  14.286533  14.666523  13.836776
    41  C   16.156200  16.419692  15.372589  15.760183  14.941325
    42  H   15.868417  16.086760  15.212433  15.668204  14.897166
    43  H   17.101470  17.386920  16.233402  16.643700  15.827049
    44  H   16.339748  16.577687  15.639979  15.942484  15.088243
    45  C    8.609490   8.970618   7.751624   8.652113   8.238765
    46  H    8.256159   8.538759   7.670281   8.477044   8.023600
    47  H    8.441491   8.744488   7.768590   8.815047   8.550266
    48  O    8.459673   8.686857   8.015753   9.178271   9.059362
    49  O    8.689044   8.955048   8.137782   9.468146   9.559770
    50  N    8.447119   8.772643   7.717148   8.974355   8.941589
                   21         22         23         24         25
    21  H    0.000000
    22  H    1.780406   0.000000
    23  C   11.083714  10.846592   0.000000
    24  H   10.152524   9.835838   1.087331   0.000000
    25  C   11.443880  11.302971   1.350926   2.102438   0.000000
    26  H   12.421012  12.339957   2.128131   3.079669   1.086375
    27  C   10.777612  10.670394   2.510077   2.744843   1.466075
    28  O   11.433540  11.410147   3.593781   3.952868   2.340638
    29  C   11.974170  11.718767   1.455606   2.143244   2.513779
    30  C   11.708285  11.351644   2.463263   2.589408   3.744732
    31  C   13.246575  13.063889   2.520980   3.443259   3.046069
    32  C   12.716685  12.354356   3.748570   3.976786   4.938311
    33  H   10.805619  10.369904   2.664730   2.323387   4.015455
    34  C   14.152885  13.952192   3.787602   4.582677   4.427834
    35  H   13.633209  13.518902   2.783456   3.843524   2.793232
    36  C   13.905613  13.622477   4.275168   4.800106   5.225616
    37  H   12.671823  12.241368   4.614216   4.647847   5.875833
    38  O   14.956882  14.671461   5.630090   6.138564   6.551397
    39  H   14.790767  14.451390   6.047472   6.406954   7.091944
    40  O   15.365824  15.230514   4.894643   5.793390   5.275606
    41  C   16.506631  16.267479   5.827352   6.704532   6.188360
    42  H   16.454107  16.142899   5.551363   6.434089   5.822900
    43  H   17.361201  17.186388   6.660528   7.594585   6.879306
    44  H   16.705997  16.405005   6.304996   7.072255   6.851320
    45  C    9.406926   9.216159   3.008290   2.642463   2.575928
    46  H    9.317336   8.939795   2.816099   2.168753   2.815958
    47  H    9.572700   9.330601   4.110288   3.778401   3.501917
    48  O    9.931111   9.629224   5.309870   4.997459   4.624110
    49  O   10.078141   9.954542   7.217081   6.943162   6.391502
    50  N    9.612686   9.515213   6.095938   5.815318   5.303932
                   26         27         28         29         30
    26  H    0.000000
    27  C    2.135756   0.000000
    28  O    2.514016   1.220955   0.000000
    29  C    2.803604   3.880839   4.854412   0.000000
    30  C    4.183969   4.968004   6.050466   1.404375   0.000000
    31  C    2.796534   4.511803   5.237102   1.409503   2.409914
    32  C    5.183547   6.253672   7.276541   2.432411   1.388715
    33  H    4.682830   5.006515   6.178143   2.157618   1.085122
    34  C    4.137368   5.893579   6.608895   2.439499   2.793434
    35  H    2.177930   4.191184   4.691359   2.177626   3.406189
    36  C    5.178169   6.655930   7.529065   2.820275   2.415814
    37  H    6.207947   7.119321   8.195811   3.416095   2.151619
    38  O    6.428610   7.992845   8.832559   4.174876   3.673375
    39  H    7.090181   8.496090   9.414025   4.618639   3.835282
    40  O    4.734255   6.714059   7.246174   3.677670   4.161083
    41  C    5.617587   7.605545   8.090888   4.618106   4.993762
    42  H    5.246764   7.182340   7.625093   4.482950   4.977861
    43  H    6.185990   8.259154   8.625649   5.517870   5.988045
    44  H    6.405413   8.293430   8.883331   4.981287   5.056236
    45  C    3.511692   1.522582   2.381328   4.458517   5.211408
    46  H    3.854847   2.213687   3.228599   4.179371   4.711655
    47  H    4.291096   2.193180   2.509752   5.557410   6.334917
    48  O    5.295092   3.282246   3.229634   6.735714   7.519009
    49  O    6.925659   4.944749   4.518139   8.661470   9.499949
    50  N    5.899743   3.852720   3.557694   7.547461   8.380295
                   31         32         33         34         35
    31  C    0.000000
    32  C    2.780886   0.000000
    33  H    3.398272   2.140078   0.000000
    34  C    1.383496   2.426235   3.878530   0.000000
    35  H    1.083834   3.864150   4.315203   2.110922   0.000000
    36  C    2.416021   1.395491   3.393445   1.413659   3.382395
    37  H    3.867725   1.086879   2.466542   3.410194   4.950874
    38  O    3.632781   2.417475   4.552545   2.368553   4.477899
    39  H    4.327215   2.456850   4.542982   3.185447   5.259982
    40  O    2.374418   3.685103   5.246058   1.368807   2.557043
    41  C    3.384575   4.377754   6.053105   2.376556   3.521682
    42  H    3.326136   4.566278   5.989587   2.663010   3.355807
    43  H    4.194583   5.381432   7.061454   3.261174   4.128631
    44  H    3.927276   4.185417   6.068452   2.715244   4.304838
    45  C    5.425922   6.588812   4.924445   6.758892   5.348977
    46  H    5.310968   6.094922   4.281465   6.570624   5.417195
    47  H    6.453869   7.709170   6.030120   7.805374   6.278716
    48  O    7.576925   8.882741   7.201003   8.929296   7.336057
    49  O    9.423463  10.870100   9.184776  10.799529   9.069631
    50  N    8.340612   9.753152   8.073448   9.715739   8.026441
                   36         37         38         39         40
    36  C    0.000000
    37  H    2.148786   0.000000
    38  O    1.355701   2.673336   0.000000
    39  H    1.914111   2.292284   0.967787   0.000000
    40  O    2.424189   4.567278   2.750522   3.710400   0.000000
    41  C    3.088442   5.134906   3.042944   3.951192   1.436660
    42  H    3.472059   5.374796   3.690161   4.534618   2.090460
    43  H    4.046311   6.130082   3.855559   4.763414   2.028654
    44  H    2.899510   4.746104   2.450713   3.243056   2.099110
    45  C    7.268569   7.289221   8.623205   8.982665   7.756734
    46  H    6.911790   6.701787   8.255676   8.530315   7.679535
    47  H    8.368115   8.405990   9.723035  10.097974   8.748721
    48  O    9.525755   9.571163  10.874958  11.258971   9.826391
    49  O   11.473678  11.573421  12.825319  13.240637  11.612478
    50  N   10.366518  10.459712  11.720143  12.127917  10.560582
                   41         42         43         44         45
    41  C    0.000000
    42  H    1.094858   0.000000
    43  H    1.089528   1.781861   0.000000
    44  H    1.091404   1.788845   1.780462   0.000000
    45  C    8.667862   8.263619   9.418891   9.234737   0.000000
    46  H    8.508565   8.074193   9.347515   8.969964   1.090502
    47  H    9.569830   9.067532  10.294666  10.173864   1.260718
    48  O   10.559463   9.973280  11.260680  11.187086   2.567256
    49  O   12.388273  11.813270  13.009208  13.085991   4.345484
    50  N   11.392378  10.869663  12.033778  12.072420   3.189571
                   46         47         48         49         50
    46  H    0.000000
    47  H    1.822724   0.000000
    48  O    2.955215   1.307671   0.000000
    49  O    4.921427   3.168223   2.106277   0.000000
    50  N    3.848809   2.080633   1.348744   1.195214   0.000000
 Stoichiometry    C21H20NO8(2)
 Framework group  C1[X(C21H20NO8)]
 Deg. of freedom   144
 Full point group                 C1      NOp   1
 Largest Abelian subgroup         C1      NOp   1
 Largest concise Abelian subgroup C1      NOp   1
                         Standard orientation:                         
 ---------------------------------------------------------------------
 Center     Atomic      Atomic             Coordinates (Angstroms)
 Number     Number       Type             X           Y           Z
 ---------------------------------------------------------------------
      1          6           0       -2.530286    0.300069   -0.184423
      2          1           0       -2.022866    0.586644   -1.101519
      3          6           0       -1.942794    0.584268    1.000898
      4          1           0       -2.413632    0.315207    1.941359
      5          6           0       -0.655294    1.257539    1.171450
      6          8           0       -0.178740    1.446126    2.283105
      7          6           0       -3.808229   -0.355176   -0.393905
      8          6           0       -4.261302   -0.549053   -1.710706
      9          6           0       -4.623562   -0.816656    0.660640
     10          6           0       -5.477473   -1.165284   -1.965841
     11          1           0       -3.654696   -0.204459   -2.541799
     12          6           0       -5.838458   -1.431679    0.422397
     13          1           0       -4.325276   -0.691589    1.695163
     14          6           0       -6.280063   -1.605542   -0.910999
     15          1           0       -5.819528   -1.297214   -2.988771
     16          8           0       -7.487215   -2.187664   -1.097994
     17          1           0       -7.684079   -2.243254   -2.044248
     18          8           0       -6.622867   -1.798663    1.480912
     19          6           0       -6.784928   -3.212565    1.681403
     20          1           0       -5.812838   -3.694041    1.828692
     21          1           0       -7.382028   -3.320863    2.586161
     22          1           0       -7.306300   -3.679047    0.843801
     23          6           0        2.756232    0.255863   -0.110398
     24          1           0        1.842189   -0.275060   -0.365220
     25          6           0        2.681813    1.571216    0.188443
     26          1           0        3.568341    2.140287    0.453842
     27          6           0        1.457614    2.376840    0.229505
     28          8           0        1.499634    3.568291    0.492965
     29          6           0        3.951553   -0.574518   -0.131977
     30          6           0        3.830988   -1.929147   -0.482280
     31          6           0        5.236675   -0.087445    0.180943
     32          6           0        4.939696   -2.764959   -0.509021
     33          1           0        2.855009   -2.334166   -0.729092
     34          6           0        6.350676   -0.907546    0.158635
     35          1           0        5.390589    0.947518    0.463535
     36          6           0        6.204038   -2.270806   -0.185529
     37          1           0        4.827633   -3.814372   -0.768793
     38          8           0        7.316509   -3.045421   -0.168013
     39          1           0        7.087770   -3.953469   -0.412428
     40          8           0        7.563524   -0.398359    0.537266
     41          6           0        8.545256   -0.282087   -0.505171
     42          1           0        8.174571    0.355629   -1.314260
     43          1           0        9.416097    0.186068   -0.047418
     44          1           0        8.824966   -1.259209   -0.902860
     45          6           0        0.120409    1.704515   -0.049987
     46          1           0        0.136880    0.971336   -0.857064
     47          1           0       -0.572318    2.624483   -0.563015
     48          8           0       -1.271835    3.550857   -1.165103
     49          8           0       -2.654716    5.012118   -0.541598
     50          7           0       -1.954316    4.124889   -0.153265
 ---------------------------------------------------------------------
 Rotational constants (GHZ):           0.2083381           0.0494795           0.0426295
 Standard basis: 6-311G(d) (5D, 7F)
 There are   630 symmetry adapted cartesian basis functions of A   symmetry.
 There are   600 symmetry adapted basis functions of A   symmetry.
   600 basis functions,  1060 primitive gaussians,   630 cartesian basis functions
   109 alpha electrons      108 beta electrons
       nuclear repulsion energy      2589.4823306766 Hartrees.
 NAtoms=   50 NActive=   50 NUniq=   50 SFac= 1.00D+00 NAtFMM=   60 NAOKFM=F Big=F
 Integral buffers will be    131072 words long.
 Raffenetti 2 integral format.
 Two-electron integral symmetry is turned on.
 Using the following non-standard input for PCM:
 Eps=7
 EpsInf=1.85341
 HbondAcidity=0
 HbondBasicity=0.48
 SurfaceTensionAtInterface=60.62
 CarbonAromaticity=0
 ElectronegativeHalogenicity=0
 --- end of non-standard input.
 ------------------------------------------------------------------------------
 Polarizable Continuum Model (PCM)
 =================================
 Model                : PCM.
 Atomic radii         : SMD-Coulomb.
 Polarization charges : Total charges.
 Charge compensation  : None.
 Solution method      : On-the-fly selection.
 Cavity type          : VdW (van der Waals Surface) (Alpha=1.000).
 Cavity algorithm     : GePol (No added spheres)
                        Default sphere list used, NSphG=   50.
                        Lebedev-Laikov grids with approx.  5.0 points / Ang**2.
                        Smoothing algorithm: York/Karplus (Gamma=1.0000).
                        Polarization charges: spherical gaussians, with
                                              point-specific exponents (IZeta= 3).
                        Self-potential: point-specific (ISelfS= 7).
                        Self-field    : sphere-specific E.n sum rule (ISelfD= 2).
 Solvent              : Generic,
                        Eps                           =   7.000000
                        Eps(infinity)                 =   1.853410
                        RSolv                         =   0.000000 Ang.
                        Molar volume                  =   0.000000 cm**3/mol
                        Thermal expansion coefficient =   0.000000 K**-1
                        Absolute temperature          = 298.150000 K
                        Numeral density               =   0.000000 Ang**-3
                        Hydrogen bond acidity         =   0.000000
                        Hydrogen bond basicity        =   0.480000
                        Surface tension at interface  =  60.620000 (cal/mol)*Ang**-2
                        Carbon aromaticity            =   0.000000
                        Electronegative halogenicity  =   0.000000
 ------------------------------------------------------------------------------
 ------------------------------------------------------------------------------
 Atomic radii for non-electrostatic terms: SMD-CDS.
 ------------------------------------------------------------------------------
 Nuclear repulsion after PCM non-electrostatic terms =     2589.4794217769 Hartrees.
 One-electron integrals computed using PRISM.
 NBasis=   600 RedAO= T EigKep=  1.75D-04  NBF=   600
 NBsUse=   600 1.00D-06 EigRej= -1.00D+00 NBFU=   600
 Initial guess from the checkpoint file:  "CURCUMIN-TS-2-B3LYP-6-311G-D-298-NBO.chk"
 B after Tr=     0.000000   -0.000000    0.000000
         Rot=    1.000000    0.000000   -0.000000    0.000000 Ang=   0.00 deg.
 Initial guess <Sx>= 0.0000 <Sy>= 0.0000 <Sz>= 0.5000 <S**2>= 0.7595 S= 0.5047
 Requested convergence on RMS density matrix=1.00D-08 within 128 cycles.
 Requested convergence on MAX density matrix=1.00D-06.
 Requested convergence on             energy=1.00D-06.
 No special actions if energy rises.
 Inv3:  Mode=1 IEnd=    56168787.
 Iteration    1 A*A^-1 deviation from unit magnitude is 3.33D-15 for   3650.
 Iteration    1 A*A^-1 deviation from orthogonality  is 2.96D-15 for   2065    439.
 Iteration    1 A^-1*A deviation from unit magnitude is 3.33D-15 for   3869.
 Iteration    1 A^-1*A deviation from orthogonality  is 1.54D-14 for   1985   1947.
 Error on total polarization charges =  0.03441
 SCF Done:  E(UB3LYP) =  -1468.94750826     A.U. after    2 cycles
            NFock=  2  Conv=0.76D-08     -V/T= 2.0034
 <Sx>= 0.0000 <Sy>= 0.0000 <Sz>= 0.5000 <S**2>= 0.7595 S= 0.5047
 <L.S>=  0.00000000000    
 SMD-CDS (non-electrostatic) energy       (kcal/mol) =      -1.83
 (included in total energy above)
 Annihilation of the first spin contaminant:
 S**2 before annihilation     0.7595,   after     0.7501

 **********************************************************************

            Population analysis using the SCF density.

 **********************************************************************

 Orbital symmetries:
 Alpha Orbitals:
       Occupied  (A) (A) (A) (A) (A) (A) (A) (A) (A) (A) (A) (A)
                 (A) (A) (A) (A) (A) (A) (A) (A) (A) (A) (A) (A)
                 (A) (A) (A) (A) (A) (A) (A) (A) (A) (A) (A) (A)
                 (A) (A) (A) (A) (A) (A) (A) (A) (A) (A) (A) (A)
                 (A) (A) (A) (A) (A) (A) (A) (A) (A) (A) (A) (A)
                 (A) (A) (A) (A) (A) (A) (A) (A) (A) (A) (A) (A)
                 (A) (A) (A) (A) (A) (A) (A) (A) (A) (A) (A) (A)
                 (A) (A) (A) (A) (A) (A) (A) (A) (A) (A) (A) (A)
                 (A) (A) (A) (A) (A) (A) (A) (A) (A) (A) (A) (A)
                 (A)
       Virtual   (A) (A) (A) (A) (A) (A) (A) (A) (A) (A) (A) (A)
                 (A) (A) (A) (A) (A) (A) (A) (A) (A) (A) (A) (A)
                 (A) (A) (A) (A) (A) (A) (A) (A) (A) (A) (A) (A)
                 (A) (A) (A) (A) (A) (A) (A) (A) (A) (A) (A) (A)
                 (A) (A) (A) (A) (A) (A) (A) (A) (A) (A) (A) (A)
                 (A) (A) (A) (A) (A) (A) (A) (A) (A) (A) (A) (A)
                 (A) (A) (A) (A) (A) (A) (A) (A) (A) (A) (A) (A)
                 (A) (A) (A) (A) (A) (A) (A) (A) (A) (A) (A) (A)
                 (A) (A) (A) (A) (A) (A) (A) (A) (A) (A) (A) (A)
                 (A) (A) (A) (A) (A) (A) (A) (A) (A) (A) (A) (A)
                 (A) (A) (A) (A) (A) (A) (A) (A) (A) (A) (A) (A)
                 (A) (A) (A) (A) (A) (A) (A) (A) (A) (A) (A) (A)
                 (A) (A) (A) (A) (A) (A) (A) (A) (A) (A) (A) (A)
                 (A) (A) (A) (A) (A) (A) (A) (A) (A) (A) (A) (A)
                 (A) (A) (A) (A) (A) (A) (A) (A) (A) (A) (A) (A)
                 (A) (A) (A) (A) (A) (A) (A) (A) (A) (A) (A) (A)
                 (A) (A) (A) (A) (A) (A) (A) (A) (A) (A) (A) (A)
                 (A) (A) (A) (A) (A) (A) (A) (A) (A) (A) (A) (A)
                 (A) (A) (A) (A) (A) (A) (A) (A) (A) (A) (A) (A)
                 (A) (A) (A) (A) (A) (A) (A) (A) (A) (A) (A) (A)
                 (A) (A) (A) (A) (A) (A) (A) (A) (A) (A) (A) (A)
                 (A) (A) (A) (A) (A) (A) (A) (A) (A) (A) (A) (A)
                 (A) (A) (A) (A) (A) (A) (A) (A) (A) (A) (A) (A)
                 (A) (A) (A) (A) (A) (A) (A) (A) (A) (A) (A) (A)
                 (A) (A) (A) (A) (A) (A) (A) (A) (A) (A) (A) (A)
                 (A) (A) (A) (A) (A) (A) (A) (A) (A) (A) (A) (A)
                 (A) (A) (A) (A) (A) (A) (A) (A) (A) (A) (A) (A)
                 (A) (A) (A) (A) (A) (A) (A) (A) (A) (A) (A) (A)
                 (A) (A) (A) (A) (A) (A) (A) (A) (A) (A) (A) (A)
                 (A) (A) (A) (A) (A) (A) (A) (A) (A) (A) (A) (A)
                 (A) (A) (A) (A) (A) (A) (A) (A) (A) (A) (A) (A)
                 (A) (A) (A) (A) (A) (A) (A) (A) (A) (A) (A) (A)
                 (A) (A) (A) (A) (A) (A) (A) (A) (A) (A) (A) (A)
                 (A) (A) (A) (A) (A) (A) (A) (A) (A) (A) (A) (A)
                 (A) (A) (A) (A) (A) (A) (A) (A) (A) (A) (A) (A)
                 (A) (A) (A) (A) (A) (A) (A) (A) (A) (A) (A) (A)
                 (A) (A) (A) (A) (A) (A) (A) (A) (A) (A) (A) (A)
                 (A) (A) (A) (A) (A) (A) (A) (A) (A) (A) (A) (A)
                 (A) (A) (A) (A) (A) (A) (A) (A) (A) (A) (A) (A)
                 (A) (A) (A) (A) (A) (A) (A) (A) (A) (A) (A) (A)
                 (A) (A) (A) (A) (A) (A) (A) (A) (A) (A) (A)
 Beta  Orbitals:
       Occupied  (A) (A) (A) (A) (A) (A) (A) (A) (A) (A) (A) (A)
                 (A) (A) (A) (A) (A) (A) (A) (A) (A) (A) (A) (A)
                 (A) (A) (A) (A) (A) (A) (A) (A) (A) (A) (A) (A)
                 (A) (A) (A) (A) (A) (A) (A) (A) (A) (A) (A) (A)
                 (A) (A) (A) (A) (A) (A) (A) (A) (A) (A) (A) (A)
                 (A) (A) (A) (A) (A) (A) (A) (A) (A) (A) (A) (A)
                 (A) (A) (A) (A) (A) (A) (A) (A) (A) (A) (A) (A)
                 (A) (A) (A) (A) (A) (A) (A) (A) (A) (A) (A) (A)
                 (A) (A) (A) (A) (A) (A) (A) (A) (A) (A) (A) (A)
       Virtual   (A) (A) (A) (A) (A) (A) (A) (A) (A) (A) (A) (A)
                 (A) (A) (A) (A) (A) (A) (A) (A) (A) (A) (A) (A)
                 (A) (A) (A) (A) (A) (A) (A) (A) (A) (A) (A) (A)
                 (A) (A) (A) (A) (A) (A) (A) (A) (A) (A) (A) (A)
                 (A) (A) (A) (A) (A) (A) (A) (A) (A) (A) (A) (A)
                 (A) (A) (A) (A) (A) (A) (A) (A) (A) (A) (A) (A)
                 (A) (A) (A) (A) (A) (A) (A) (A) (A) (A) (A) (A)
                 (A) (A) (A) (A) (A) (A) (A) (A) (A) (A) (A) (A)
                 (A) (A) (A) (A) (A) (A) (A) (A) (A) (A) (A) (A)
                 (A) (A) (A) (A) (A) (A) (A) (A) (A) (A) (A) (A)
                 (A) (A) (A) (A) (A) (A) (A) (A) (A) (A) (A) (A)
                 (A) (A) (A) (A) (A) (A) (A) (A) (A) (A) (A) (A)
                 (A) (A) (A) (A) (A) (A) (A) (A) (A) (A) (A) (A)
                 (A) (A) (A) (A) (A) (A) (A) (A) (A) (A) (A) (A)
                 (A) (A) (A) (A) (A) (A) (A) (A) (A) (A) (A) (A)
                 (A) (A) (A) (A) (A) (A) (A) (A) (A) (A) (A) (A)
                 (A) (A) (A) (A) (A) (A) (A) (A) (A) (A) (A) (A)
                 (A) (A) (A) (A) (A) (A) (A) (A) (A) (A) (A) (A)
                 (A) (A) (A) (A) (A) (A) (A) (A) (A) (A) (A) (A)
                 (A) (A) (A) (A) (A) (A) (A) (A) (A) (A) (A) (A)
                 (A) (A) (A) (A) (A) (A) (A) (A) (A) (A) (A) (A)
                 (A) (A) (A) (A) (A) (A) (A) (A) (A) (A) (A) (A)
                 (A) (A) (A) (A) (A) (A) (A) (A) (A) (A) (A) (A)
                 (A) (A) (A) (A) (A) (A) (A) (A) (A) (A) (A) (A)
                 (A) (A) (A) (A) (A) (A) (A) (A) (A) (A) (A) (A)
                 (A) (A) (A) (A) (A) (A) (A) (A) (A) (A) (A) (A)
                 (A) (A) (A) (A) (A) (A) (A) (A) (A) (A) (A) (A)
                 (A) (A) (A) (A) (A) (A) (A) (A) (A) (A) (A) (A)
                 (A) (A) (A) (A) (A) (A) (A) (A) (A) (A) (A) (A)
                 (A) (A) (A) (A) (A) (A) (A) (A) (A) (A) (A) (A)
                 (A) (A) (A) (A) (A) (A) (A) (A) (A) (A) (A) (A)
                 (A) (A) (A) (A) (A) (A) (A) (A) (A) (A) (A) (A)
                 (A) (A) (A) (A) (A) (A) (A) (A) (A) (A) (A) (A)
                 (A) (A) (A) (A) (A) (A) (A) (A) (A) (A) (A) (A)
                 (A) (A) (A) (A) (A) (A) (A) (A) (A) (A) (A) (A)
                 (A) (A) (A) (A) (A) (A) (A) (A) (A) (A) (A) (A)
                 (A) (A) (A) (A) (A) (A) (A) (A) (A) (A) (A) (A)
                 (A) (A) (A) (A) (A) (A) (A) (A) (A) (A) (A) (A)
                 (A) (A) (A) (A) (A) (A) (A) (A) (A) (A) (A) (A)
                 (A) (A) (A) (A) (A) (A) (A) (A) (A) (A) (A) (A)
                 (A) (A) (A) (A) (A) (A) (A) (A) (A) (A) (A) (A)
 The electronic state is 2-A.
 Alpha  occ. eigenvalues --  -19.19645 -19.17074 -19.16892 -19.16452 -19.13880
 Alpha  occ. eigenvalues --  -19.13644 -19.11503 -19.10363 -14.47587 -10.27115
 Alpha  occ. eigenvalues --  -10.26382 -10.25581 -10.25092 -10.23814 -10.23472
 Alpha  occ. eigenvalues --  -10.20983 -10.20940 -10.20772 -10.20577 -10.20045
 Alpha  occ. eigenvalues --  -10.19589 -10.19162 -10.18989 -10.18621 -10.18614
 Alpha  occ. eigenvalues --  -10.18565 -10.18462 -10.18318 -10.18207 -10.17815
 Alpha  occ. eigenvalues --   -1.21382  -1.09002  -1.08547  -1.05448  -1.05361
 Alpha  occ. eigenvalues --   -1.05172  -1.04196  -1.03831  -0.87543  -0.87156
 Alpha  occ. eigenvalues --   -0.82290  -0.81296  -0.78169  -0.76807  -0.76476
 Alpha  occ. eigenvalues --   -0.75230  -0.73590  -0.69366  -0.69124  -0.67316
 Alpha  occ. eigenvalues --   -0.66602  -0.65363  -0.63442  -0.62458  -0.59411
 Alpha  occ. eigenvalues --   -0.59033  -0.57240  -0.56389  -0.55897  -0.55536
 Alpha  occ. eigenvalues --   -0.52531  -0.51952  -0.51700  -0.50963  -0.50682
 Alpha  occ. eigenvalues --   -0.50263  -0.49487  -0.48387  -0.48033  -0.47684
 Alpha  occ. eigenvalues --   -0.46946  -0.46672  -0.46426  -0.44793  -0.44659
 Alpha  occ. eigenvalues --   -0.44374  -0.44081  -0.43634  -0.43172  -0.42674
 Alpha  occ. eigenvalues --   -0.42341  -0.41945  -0.41549  -0.41300  -0.39568
 Alpha  occ. eigenvalues --   -0.39353  -0.38506  -0.38245  -0.38138  -0.38053
 Alpha  occ. eigenvalues --   -0.37507  -0.37175  -0.36938  -0.36386  -0.34710
 Alpha  occ. eigenvalues --   -0.34435  -0.33979  -0.30124  -0.29757  -0.29518
 Alpha  occ. eigenvalues --   -0.28835  -0.28591  -0.27222  -0.26525  -0.25853
 Alpha  occ. eigenvalues --   -0.25720  -0.25503  -0.22746  -0.22341
 Alpha virt. eigenvalues --   -0.08130  -0.07587  -0.06719  -0.01850  -0.01586
 Alpha virt. eigenvalues --    0.00396   0.00931   0.03485   0.03639   0.05065
 Alpha virt. eigenvalues --    0.06176   0.06337   0.06603   0.07133   0.07252
 Alpha virt. eigenvalues --    0.07401   0.08096   0.08898   0.10107   0.11026
 Alpha virt. eigenvalues --    0.11682   0.12130   0.12266   0.12965   0.13953
 Alpha virt. eigenvalues --    0.14426   0.14947   0.15408   0.15831   0.16238
 Alpha virt. eigenvalues --    0.16499   0.16645   0.17303   0.18452   0.20389
 Alpha virt. eigenvalues --    0.20792   0.21822   0.22379   0.23634   0.24680
 Alpha virt. eigenvalues --    0.25083   0.25377   0.26116   0.26886   0.27605
 Alpha virt. eigenvalues --    0.28068   0.28931   0.29279   0.30007   0.30497
 Alpha virt. eigenvalues --    0.30901   0.31357   0.32155   0.32412   0.33010
 Alpha virt. eigenvalues --    0.34500   0.34775   0.35090   0.35435   0.35703
 Alpha virt. eigenvalues --    0.36004   0.36819   0.37119   0.37588   0.38180
 Alpha virt. eigenvalues --    0.38558   0.38904   0.39399   0.39651   0.39802
 Alpha virt. eigenvalues --    0.40583   0.41200   0.41516   0.42050   0.42425
 Alpha virt. eigenvalues --    0.42778   0.43019   0.43404   0.43639   0.44304
 Alpha virt. eigenvalues --    0.44684   0.45004   0.45288   0.45814   0.46277
 Alpha virt. eigenvalues --    0.47200   0.47418   0.48444   0.48946   0.49487
 Alpha virt. eigenvalues --    0.49594   0.50171   0.50765   0.51349   0.51887
 Alpha virt. eigenvalues --    0.52413   0.53494   0.53821   0.54108   0.55335
 Alpha virt. eigenvalues --    0.55598   0.56129   0.56666   0.57554   0.57778
 Alpha virt. eigenvalues --    0.57971   0.58330   0.58663   0.58741   0.59050
 Alpha virt. eigenvalues --    0.59294   0.59768   0.60591   0.61431   0.61540
 Alpha virt. eigenvalues --    0.61916   0.62222   0.62462   0.62855   0.63123
 Alpha virt. eigenvalues --    0.63316   0.63720   0.64039   0.64894   0.65184
 Alpha virt. eigenvalues --    0.65944   0.66962   0.67868   0.68428   0.68741
 Alpha virt. eigenvalues --    0.69749   0.70065   0.71309   0.71549   0.73266
 Alpha virt. eigenvalues --    0.74706   0.74901   0.75570   0.76916   0.77428
 Alpha virt. eigenvalues --    0.77862   0.78443   0.78953   0.79109   0.79427
 Alpha virt. eigenvalues --    0.79710   0.80007   0.80281   0.80757   0.80931
 Alpha virt. eigenvalues --    0.82186   0.82509   0.83252   0.83583   0.84522
 Alpha virt. eigenvalues --    0.84869   0.85724   0.85832   0.87291   0.87928
 Alpha virt. eigenvalues --    0.88263   0.88912   0.89874   0.91051   0.91505
 Alpha virt. eigenvalues --    0.91961   0.93591   0.93837   0.94398   0.94475
 Alpha virt. eigenvalues --    0.95642   0.96728   0.97033   0.97131   0.97745
 Alpha virt. eigenvalues --    0.98226   0.99900   1.00394   1.01320   1.02339
 Alpha virt. eigenvalues --    1.03539   1.04141   1.05291   1.05492   1.06882
 Alpha virt. eigenvalues --    1.08981   1.09399   1.09850   1.11779   1.13154
 Alpha virt. eigenvalues --    1.13429   1.14295   1.14444   1.14626   1.15189
 Alpha virt. eigenvalues --    1.16247   1.17756   1.19108   1.19589   1.20064
 Alpha virt. eigenvalues --    1.20965   1.22697   1.22999   1.23658   1.23701
 Alpha virt. eigenvalues --    1.25520   1.26192   1.28422   1.28497   1.31032
 Alpha virt. eigenvalues --    1.33527   1.36070   1.36744   1.37668   1.37877
 Alpha virt. eigenvalues --    1.38710   1.43486   1.44292   1.44698   1.45268
 Alpha virt. eigenvalues --    1.46397   1.46858   1.48467   1.49346   1.49794
 Alpha virt. eigenvalues --    1.50244   1.50745   1.51532   1.52554   1.52972
 Alpha virt. eigenvalues --    1.53157   1.54392   1.54741   1.55120   1.55587
 Alpha virt. eigenvalues --    1.56308   1.56545   1.57999   1.58706   1.59631
 Alpha virt. eigenvalues --    1.62028   1.62275   1.62762   1.63741   1.65790
 Alpha virt. eigenvalues --    1.67221   1.67670   1.68365   1.68739   1.69821
 Alpha virt. eigenvalues --    1.70553   1.70594   1.71791   1.72636   1.74157
 Alpha virt. eigenvalues --    1.75110   1.75770   1.76372   1.76491   1.78015
 Alpha virt. eigenvalues --    1.78475   1.79277   1.79777   1.82296   1.82669
 Alpha virt. eigenvalues --    1.82740   1.83290   1.83563   1.83830   1.85375
 Alpha virt. eigenvalues --    1.85756   1.87369   1.88262   1.90250   1.90540
 Alpha virt. eigenvalues --    1.93497   1.94854   1.95487   1.97002   1.97813
 Alpha virt. eigenvalues --    2.01052   2.02017   2.02159   2.02532   2.04210
 Alpha virt. eigenvalues --    2.08522   2.09284   2.09997   2.11607   2.13534
 Alpha virt. eigenvalues --    2.14632   2.16404   2.16680   2.18336   2.20546
 Alpha virt. eigenvalues --    2.22499   2.23654   2.24918   2.27712   2.28147
 Alpha virt. eigenvalues --    2.28911   2.30362   2.30599   2.30744   2.31158
 Alpha virt. eigenvalues --    2.31339   2.33181   2.34078   2.35290   2.37217
 Alpha virt. eigenvalues --    2.38617   2.38801   2.40110   2.40653   2.41783
 Alpha virt. eigenvalues --    2.44097   2.45342   2.49205   2.50323   2.50631
 Alpha virt. eigenvalues --    2.51687   2.52615   2.53095   2.56769   2.58351
 Alpha virt. eigenvalues --    2.62970   2.63451   2.64268   2.64587   2.65203
 Alpha virt. eigenvalues --    2.65741   2.67965   2.69214   2.71924   2.73648
 Alpha virt. eigenvalues --    2.74000   2.75515   2.75642   2.76103   2.77841
 Alpha virt. eigenvalues --    2.77897   2.80381   2.81036   2.81377   2.82788
 Alpha virt. eigenvalues --    2.84296   2.84982   2.86898   2.88819   2.89361
 Alpha virt. eigenvalues --    2.89677   2.90818   2.91702   2.93353   2.94295
 Alpha virt. eigenvalues --    2.94491   2.94944   2.95787   2.96150   2.98240
 Alpha virt. eigenvalues --    2.98638   2.99842   3.00866   3.01099   3.02757
 Alpha virt. eigenvalues --    3.03142   3.03176   3.07168   3.08395   3.08655
 Alpha virt. eigenvalues --    3.11402   3.12740   3.14109   3.14348   3.14486
 Alpha virt. eigenvalues --    3.14599   3.15374   3.15832   3.16086   3.17197
 Alpha virt. eigenvalues --    3.17961   3.18142   3.18998   3.20212   3.24000
 Alpha virt. eigenvalues --    3.24672   3.25145   3.25404   3.29040   3.29234
 Alpha virt. eigenvalues --    3.29391   3.29597   3.30993   3.31077   3.31779
 Alpha virt. eigenvalues --    3.32610   3.32933   3.33210   3.34561   3.34931
 Alpha virt. eigenvalues --    3.38473   3.39518   3.43644   3.45311   3.45952
 Alpha virt. eigenvalues --    3.47217   3.48006   3.49172   3.51216   3.51407
 Alpha virt. eigenvalues --    3.54010   3.57627   3.59335   3.60588   3.64260
 Alpha virt. eigenvalues --    3.64813   3.70629   3.71240   3.71757   3.85379
 Alpha virt. eigenvalues --    3.86775   3.87015   3.89406   3.89584   3.93607
 Alpha virt. eigenvalues --    3.94134   3.98957   4.00771   4.05683   4.07040
 Alpha virt. eigenvalues --    4.07266   4.14408   4.30811   4.44659   4.53946
 Alpha virt. eigenvalues --    4.77887   4.78437   4.79154   4.80297   4.80428
 Alpha virt. eigenvalues --    4.80818   4.83476   4.86632   4.90617   4.91802
 Alpha virt. eigenvalues --    4.96344   4.96553   5.04334   5.05444   5.10667
 Alpha virt. eigenvalues --    5.10899   5.15920   5.16209   5.34941   5.49908
 Alpha virt. eigenvalues --    5.50081   5.58665   5.60231   5.68016   5.68132
 Alpha virt. eigenvalues --    5.89425  23.22366  23.24188  23.41952  23.42158
 Alpha virt. eigenvalues --   23.54088  23.56240  23.71311  23.77588  23.78348
 Alpha virt. eigenvalues --   23.81426  23.85343  23.86184  23.87028  23.97820
 Alpha virt. eigenvalues --   23.98548  24.05092  24.05195  24.11256  24.11620
 Alpha virt. eigenvalues --   24.13275  24.14455  35.25190  49.77049  49.83602
 Alpha virt. eigenvalues --   49.85987  49.86285  49.92548  49.92777  49.96500
 Alpha virt. eigenvalues --   49.98018
  Beta  occ. eigenvalues --  -19.18281 -19.17009 -19.16868 -19.16446 -19.13878
  Beta  occ. eigenvalues --  -19.13643 -19.11279 -19.10343 -14.47599 -10.27166
  Beta  occ. eigenvalues --  -10.26403 -10.25556 -10.25085 -10.23814 -10.23472
  Beta  occ. eigenvalues --  -10.20940 -10.20772 -10.20573 -10.20317 -10.20042
  Beta  occ. eigenvalues --  -10.19572 -10.19158 -10.18977 -10.18622 -10.18611
  Beta  occ. eigenvalues --  -10.18562 -10.18406 -10.18318 -10.18206 -10.17776
  Beta  occ. eigenvalues --   -1.20754  -1.08957  -1.08535  -1.05440  -1.05170
  Beta  occ. eigenvalues --   -1.04977  -1.03853  -1.01781  -0.87499  -0.87142
  Beta  occ. eigenvalues --   -0.81982  -0.81208  -0.77363  -0.76789  -0.76470
  Beta  occ. eigenvalues --   -0.75142  -0.73040  -0.69357  -0.69122  -0.67269
  Beta  occ. eigenvalues --   -0.66462  -0.64445  -0.63392  -0.62339  -0.59374
  Beta  occ. eigenvalues --   -0.59010  -0.57136  -0.56315  -0.55804  -0.53833
  Beta  occ. eigenvalues --   -0.52308  -0.51905  -0.51634  -0.50822  -0.49854
  Beta  occ. eigenvalues --   -0.49420  -0.49264  -0.48197  -0.47976  -0.47611
  Beta  occ. eigenvalues --   -0.46654  -0.46571  -0.46417  -0.44645  -0.44617
  Beta  occ. eigenvalues --   -0.44342  -0.43975  -0.43333  -0.43080  -0.42533
  Beta  occ. eigenvalues --   -0.41930  -0.41765  -0.41461  -0.41203  -0.39513
  Beta  occ. eigenvalues --   -0.38477  -0.38257  -0.38131  -0.38043  -0.37563
  Beta  occ. eigenvalues --   -0.37214  -0.37027  -0.36674  -0.36272  -0.34667
  Beta  occ. eigenvalues --   -0.34416  -0.32957  -0.29831  -0.29458  -0.28825
  Beta  occ. eigenvalues --   -0.28590  -0.26888  -0.26044  -0.25763  -0.25516
  Beta  occ. eigenvalues --   -0.25452  -0.22537  -0.22283
  Beta virt. eigenvalues --   -0.18012  -0.07920  -0.07386  -0.06576  -0.01773
  Beta virt. eigenvalues --   -0.01565   0.00554   0.01085   0.03491   0.03642
  Beta virt. eigenvalues --    0.05151   0.06200   0.06386   0.06732   0.07269
  Beta virt. eigenvalues --    0.07287   0.07492   0.08121   0.08976   0.10126
  Beta virt. eigenvalues --    0.11052   0.11701   0.12136   0.12270   0.13029
  Beta virt. eigenvalues --    0.14003   0.14448   0.15107   0.15532   0.15883
  Beta virt. eigenvalues --    0.16356   0.16529   0.17141   0.17581   0.18782
  Beta virt. eigenvalues --    0.20519   0.21024   0.21956   0.22845   0.23874
  Beta virt. eigenvalues --    0.24795   0.25143   0.25541   0.26170   0.27052
  Beta virt. eigenvalues --    0.27776   0.28145   0.29131   0.29377   0.30037
  Beta virt. eigenvalues --    0.30518   0.30993   0.31407   0.32248   0.32444
  Beta virt. eigenvalues --    0.33219   0.34609   0.34845   0.35172   0.35464
  Beta virt. eigenvalues --    0.35739   0.36024   0.36889   0.37173   0.37688
  Beta virt. eigenvalues --    0.38217   0.38797   0.39026   0.39490   0.39718
  Beta virt. eigenvalues --    0.39849   0.40643   0.41284   0.41714   0.42092
  Beta virt. eigenvalues --    0.42456   0.42795   0.43102   0.43480   0.43702
  Beta virt. eigenvalues --    0.44341   0.44733   0.45050   0.45359   0.45938
  Beta virt. eigenvalues --    0.46354   0.47247   0.47516   0.48571   0.48991
  Beta virt. eigenvalues --    0.49627   0.49775   0.50662   0.50865   0.51369
  Beta virt. eigenvalues --    0.51946   0.52537   0.53580   0.53874   0.54144
  Beta virt. eigenvalues --    0.55391   0.55928   0.56295   0.56785   0.57615
  Beta virt. eigenvalues --    0.57797   0.58069   0.58340   0.58728   0.58796
  Beta virt. eigenvalues --    0.59143   0.59394   0.59803   0.60627   0.61500
  Beta virt. eigenvalues --    0.61686   0.61978   0.62333   0.62516   0.62940
  Beta virt. eigenvalues --    0.63221   0.63342   0.63802   0.64092   0.64959
  Beta virt. eigenvalues --    0.65280   0.65998   0.67084   0.68022   0.68520
  Beta virt. eigenvalues --    0.68810   0.69830   0.70199   0.71521   0.71743
  Beta virt. eigenvalues --    0.73580   0.74725   0.74962   0.76061   0.77062
  Beta virt. eigenvalues --    0.77535   0.77911   0.78477   0.78980   0.79208
  Beta virt. eigenvalues --    0.79458   0.79745   0.80166   0.80330   0.80803
  Beta virt. eigenvalues --    0.81075   0.82292   0.82555   0.83290   0.83632
  Beta virt. eigenvalues --    0.84638   0.84942   0.85849   0.86120   0.87387
  Beta virt. eigenvalues --    0.87997   0.88311   0.88977   0.89992   0.91179
  Beta virt. eigenvalues --    0.91654   0.92053   0.93673   0.93993   0.94538
  Beta virt. eigenvalues --    0.94586   0.95792   0.96887   0.97194   0.97213
  Beta virt. eigenvalues --    0.97970   0.98289   1.00086   1.00829   1.01534
  Beta virt. eigenvalues --    1.02561   1.03615   1.04266   1.05346   1.05596
  Beta virt. eigenvalues --    1.06945   1.09019   1.09486   1.09905   1.11965
  Beta virt. eigenvalues --    1.13328   1.13467   1.14354   1.14517   1.14662
  Beta virt. eigenvalues --    1.15241   1.16326   1.17913   1.19180   1.19698
  Beta virt. eigenvalues --    1.20226   1.21213   1.22751   1.23014   1.23671
  Beta virt. eigenvalues --    1.23754   1.25605   1.26270   1.28462   1.28580
  Beta virt. eigenvalues --    1.31363   1.34030   1.36184   1.36855   1.37739
  Beta virt. eigenvalues --    1.37935   1.39010   1.43626   1.44348   1.44927
  Beta virt. eigenvalues --    1.45379   1.46443   1.46874   1.49078   1.49551
  Beta virt. eigenvalues --    1.49833   1.50381   1.50857   1.51595   1.52609
  Beta virt. eigenvalues --    1.53102   1.53227   1.54495   1.55042   1.55184
  Beta virt. eigenvalues --    1.55658   1.56412   1.56799   1.58111   1.58956
  Beta virt. eigenvalues --    1.59773   1.62206   1.62410   1.62944   1.63950
  Beta virt. eigenvalues --    1.66029   1.67270   1.67850   1.68573   1.68783
  Beta virt. eigenvalues --    1.70031   1.70650   1.70731   1.71994   1.73079
  Beta virt. eigenvalues --    1.74269   1.75189   1.75807   1.76423   1.76550
  Beta virt. eigenvalues --    1.78090   1.78618   1.79322   1.79941   1.82550
  Beta virt. eigenvalues --    1.82758   1.82807   1.83394   1.83613   1.83922
  Beta virt. eigenvalues --    1.85570   1.86004   1.87460   1.88517   1.90293
  Beta virt. eigenvalues --    1.90557   1.93655   1.94898   1.95571   1.97110
  Beta virt. eigenvalues --    1.98163   2.01167   2.02151   2.02328   2.02596
  Beta virt. eigenvalues --    2.04438   2.08708   2.09416   2.10109   2.11723
  Beta virt. eigenvalues --    2.13636   2.14735   2.16421   2.16735   2.18523
[...]
   396. RY*(   3) C  32                  0.00042     0.74116   
   397. RY*(   4) C  32                  0.00037     1.07284   
   398. RY*(   5) C  32                  0.00025     1.50659   
   399. RY*(   6) C  32                  0.00011     3.27055   
   400. RY*(   7) C  32                  0.00006     4.20246   
   401. RY*(   8) C  32                  0.00003     4.92315   
   402. RY*(   9) C  32                  0.00003     1.51904   
   403. RY*(  10) C  32                  0.00002     2.15065   
   404. RY*(  11) C  32                  0.00001     2.08454   
   405. RY*(  12) C  32                  0.00000     2.72227   
   406. RY*(  13) C  32                  0.00000    18.30473   
   407. RY*(   1) H  33                  0.00079     0.44096   
   408. RY*(   2) H  33                  0.00011     2.26285   
   409. RY*(   1) C  34                  0.00311     1.47866   
   410. RY*(   2) C  34                  0.00203     1.33953   
   411. RY*(   3) C  34                  0.00151     1.26243   
   412. RY*(   4) C  34                  0.00091     2.40229   
   413. RY*(   5) C  34                  0.00079     1.23596   
   414. RY*(   6) C  34                  0.00029     1.66532   
   415. RY*(   7) C  34                  0.00025     1.68259   
   416. RY*(   8) C  34                  0.00009     2.91853   
   417. RY*(   9) C  34                  0.00006     2.39917   
   418. RY*(  10) C  34                  0.00002     3.28955   
   419. RY*(  11) C  34                  0.00002     2.60054   
   420. RY*(  12) C  34                  0.00001     2.70467   
   421. RY*(  13) C  34                  0.00001    20.85601   
   422. RY*(   1) H  35                  0.00128     0.46407   
   423. RY*(   2) H  35                  0.00014     2.25859   
   424. RY*(   1) C  36                  0.00325     1.27802   
   425. RY*(   2) C  36                  0.00154     1.52331   
   426. RY*(   3) C  36                  0.00139     1.49433   
   427. RY*(   4) C  36                  0.00081     2.26820   
   428. RY*(   5) C  36                  0.00041     1.89682   
   429. RY*(   6) C  36                  0.00037     1.66387   
   430. RY*(   7) C  36                  0.00021     0.62491   
   431. RY*(   8) C  36                  0.00015     3.46890   
   432. RY*(   9) C  36                  0.00004     2.41494   
   433. RY*(  10) C  36                  0.00004     5.08813   
   434. RY*(  11) C  36                  0.00001    18.32486   
   435. RY*(  12) C  36                  0.00001     2.29077   
   436. RY*(  13) C  36                  0.00000     2.66458   
   437. RY*(   1) H  37                  0.00115     0.39137   
   438. RY*(   2) H  37                  0.00010     2.24429   
   439. RY*(   1) O  38                  0.00084     0.93897   
   440. RY*(   2) O  38                  0.00058     1.40058   
   441. RY*(   3) O  38                  0.00011     1.68011   
   442. RY*(   4) O  38                  0.00008     1.35856   
   443. RY*(   5) O  38                  0.00001     3.38746   
   444. RY*(   6) O  38                  0.00000     5.00007   
   445. RY*(   7) O  38                  0.00001     4.98064   
   446. RY*(   8) O  38                  0.00000     4.76698   
   447. RY*(   9) O  38                  0.00000    49.43140   
   448. RY*(  10) O  38                  0.00000     2.88784   
   449. RY*(  11) O  38                  0.00000     2.79506   
   450. RY*(  12) O  38                  0.00000     2.89548   
   451. RY*(  13) O  38                  0.00001     3.08186   
   452. RY*(   1) H  39                  0.00041     0.98391   
   453. RY*(   2) H  39                  0.00020     1.63675   
   454. RY*(   1) O  40                  0.00169     1.07333   
   455. RY*(   2) O  40                  0.00107     1.17454   
   456. RY*(   3) O  40                  0.00018     1.90578   
   457. RY*(   4) O  40                  0.00010     2.30694   
   458. RY*(   5) O  40                  0.00006     2.78410   
   459. RY*(   6) O  40                  0.00004     2.83657   
   460. RY*(   7) O  40                  0.00001     5.09935   
   461. RY*(   8) O  40                  0.00000     4.96267   
   462. RY*(   9) O  40                  0.00000    49.61495   
   463. RY*(  10) O  40                  0.00000     4.89995   
   464. RY*(  11) O  40                  0.00000     3.00734   
   465. RY*(  12) O  40                  0.00001     3.22908   
   466. RY*(  13) O  40                  0.00000     2.91655   
   467. RY*(   1) C  41                  0.00113     1.40431   
   468. RY*(   2) C  41                  0.00102     1.39594   
   469. RY*(   3) C  41                  0.00068     0.90690   
   470. RY*(   4) C  41                  0.00026     0.98258   
   471. RY*(   5) C  41                  0.00010     1.07538   
   472. RY*(   6) C  41                  0.00004     1.88566   
   473. RY*(   7) C  41                  0.00000    23.14910   
   474. RY*(   8) C  41                  0.00001     2.42334   
   475. RY*(   9) C  41                  0.00001     2.43613   
   476. RY*(  10) C  41                  0.00001     1.65024   
   477. RY*(  11) C  41                  0.00000     1.68116   
   478. RY*(  12) C  41                  0.00000     1.40009   
   479. RY*(  13) C  41                  0.00000     2.71355   
   480. RY*(   1) H  42                  0.00098     0.39346   
   481. RY*(   2) H  42                  0.00006     2.11616   
   482. RY*(   1) H  43                  0.00045     0.37945   
   483. RY*(   2) H  43                  0.00006     2.04560   
   484. RY*(   1) H  44                  0.00101     0.46044   
   485. RY*(   2) H  44                  0.00007     2.07378   
   486. RY*(   1) C  45                  0.00225     0.84021   
   487. RY*(   2) C  45                  0.00187     0.82227   
   488. RY*(   3) C  45                  0.00096     1.26254   
   489. RY*(   4) C  45                  0.00074     0.92815   
   490. RY*(   5) C  45                  0.00016     2.11849   
   491. RY*(   6) C  45                  0.00014     1.74239   
   492. RY*(   7) C  45                  0.00010     2.59950   
   493. RY*(   8) C  45                  0.00005     2.91983   
   494. RY*(   9) C  45                  0.00005     2.17548   
   495. RY*(  10) C  45                  0.00002     2.75231   
   496. RY*(  11) C  45                  0.00003     2.14061   
   497. RY*(  12) C  45                  0.00001     2.91645   
   498. RY*(  13) C  45                  0.00000    22.69196   
   499. RY*(   1) H  46                  0.00076     0.51917   
   500. RY*(   2) H  46                  0.00008     2.32127   
   542. BD*(   1) C   1 - H   2          0.00818     0.43478   
   543. BD*(   1) C   1 - C   3          0.00730     0.63125   
   544. BD*(   2) C   1 - C   3          0.07151     0.03207   
   545. BD*(   1) C   1 - C   7          0.01251     0.49981   
   546. BD*(   1) C   3 - H   4          0.00801     0.43952   
   547. BD*(   1) C   3 - C   5          0.02548     0.46472   
   548. BD*(   1) C   5 - O   6          0.00750     0.57182   
   549. BD*(   2) C   5 - O   6          0.11266     0.01765  544(v),104(v),548(g),156(g)
                                                    105(r),144(g),147(g)
   550. BD*(   1) C   5 - C  45          0.04012     0.38203   
   551. BD*(   1) C   7 - C   8          0.01146     0.55425   
   552. BD*(   1) C   7 - C   9          0.01312     0.55156   
   553. BD*(   1) C   8 - C  10          0.00680     0.57835   
   554. BD*(   2) C   8 - C  10          0.16130     0.02242  93(v),557(r),209(g),183(g)
                                                    184(g)
   555. BD*(   1) C   8 - H  11          0.00675     0.44507   
   556. BD*(   1) C   9 - C  12          0.01222     0.57949   
   557. BD*(   2) C   9 - C  12          0.15171     0.02604  93(v),554(r),544(r),198(g)
                                                    565(v)
   558. BD*(   1) C   9 - H  13          0.00638     0.44463   
   559. BD*(   1) C  10 - C  14          0.01308     0.54700   
   560. BD*(   1) C  10 - H  15          0.00673     0.43096   
   561. BD*(   1) C  12 - C  14          0.02325     0.51473   
   562. BD*(   1) C  12 - O  18          0.01399     0.36172   
   563. BD*(   1) C  14 - O  16          0.01078     0.34910   
   564. BD*(   1) O  16 - H  17          0.00375     0.37792   
   565. BD*(   1) O  18 - C  19          0.00525     0.28130   
   566. BD*(   1) C  19 - H  20          0.00841     0.39393   
   567. BD*(   1) C  19 - H  21          0.00439     0.40907   
   568. BD*(   1) C  19 - H  22          0.00905     0.40584   
   569. BD*(   1) C  23 - H  24          0.00818     0.43668   
   570. BD*(   1) C  23 - C  25          0.00727     0.64061   
   571. BD*(   2) C  23 - C  25          0.06802     0.03680   
   572. BD*(   1) C  23 - C  29          0.01263     0.49834   
   573. BD*(   1) C  25 - H  26          0.00818     0.44260   
   574. BD*(   1) C  25 - C  27          0.02597     0.46913   
   575. BD*(   1) C  27 - O  28          0.00593     0.59264   
   576. BD*(   2) C  27 - O  28          0.09059     0.02092   
   577. BD*(   1) C  27 - C  45          0.03370     0.38409   
   578. BD*(   1) C  29 - C  30          0.01143     0.56009   
   579. BD*(   2) C  29 - C  30          0.20116     0.02689  584(v),587(v),571(v),370(g)
                                                    396(v),357(g),358(g),301(v)
   580. BD*(   1) C  29 - C  31          0.01308     0.55682   
   581. BD*(   1) C  30 - C  32          0.00686     0.57925   
   582. BD*(   1) C  30 - H  33          0.00682     0.44663   
   583. BD*(   1) C  31 - C  34          0.01222     0.58137   
   584. BD*(   2) C  31 - C  34          0.15730     0.02836  579(v),587(v),571(r),385(g)
                                                    593(v)
   585. BD*(   1) C  31 - H  35          0.00643     0.44750   
   586. BD*(   1) C  32 - C  36          0.01306     0.55201   
   587. BD*(   2) C  32 - C  36          0.19169     0.01653  579(v),584(v),430(g),396(g)
                                                    398(g)
   588. BD*(   1) C  32 - H  37          0.00674     0.43248   
   589. BD*(   1) C  34 - C  36          0.02307     0.52056   
   590. BD*(   1) C  34 - O  40          0.01403     0.36303   
   591. BD*(   1) C  36 - O  38          0.01090     0.34950   
   592. BD*(   1) O  38 - H  39          0.00371     0.38105   
   593. BD*(   1) O  40 - C  41          0.00521     0.28375   
   594. BD*(   1) C  41 - H  42          0.00849     0.39531   
   595. BD*(   1) C  41 - H  43          0.00442     0.41013   
   596. BD*(   1) C  41 - H  44          0.00914     0.40729   
   597. BD*(   1) C  45 - H  46          0.00703     0.41216   
       -------------------------------
              Total Lewis   93.46904  ( 97.1608%)
        Valence non-Lewis    2.54768  (  2.6483%)
        Rydberg non-Lewis    0.18366  (  0.1909%)
       -------------------------------
            Total unit  1   96.20038  (100.0000%)
           Charge unit  1    0.29962
 
 Molecular unit  2  (H)
   105. LP*(   1) H  47                  0.34050     0.01416  104(r),501(g),550(r),549(r)
                                                    576(r),577(r),597(r),504(r)
                                                    506(r),496(r),489(r),498(r)
                                                    487(r),490(r),600(r),491(r)
                                                    547(r),509(r),143(r),574(r)
                                                    572(r),511(r),575(r),569(r)
                                                    499(r),516(r),312(r),513(r)
                                                    598(r),573(r)
   501. RY*(   1) H  47                  0.00353     0.78259   
   502. RY*(   2) H  47                  0.00029     2.24250   
       -------------------------------
              Total Lewis    0.00000  (  0.0000%)
        Valence non-Lewis    0.34050  ( 98.8906%)
        Rydberg non-Lewis    0.00382  (  1.1094%)
       -------------------------------
            Total unit  2    0.34432  (100.0000%)
           Charge unit  2    0.15568
 
 Molecular unit  3  (NO2)
    57. BD (   1) O  48 - N  50          0.99686    -0.88363  105(r),516(v),501(r),489(r)
                                                    104(r),486(r)
    58. BD (   1) O  49 - N  50          0.99948    -0.45544  599(g),505(v)
    59. BD (   2) O  49 - N  50          0.99266    -1.11329  503(v),530(g),105(r),502(r)
    87. CR (   1) O  48                  0.99993   -19.02355  105(r),532(v),501(r),502(r)
    88. CR (   1) O  49                  0.99990   -18.97152  530(v)
    89. CR (   1) N  50                  0.99988   -14.34885  518(v),105(r)
   106. LP (   1) O  48                  0.98249    -0.81097  105(r),532(v),502(r),501(r)
                                                    550(r),104(r),496(r),577(r)
                                                    488(r)
   107. LP (   2) O  48                  0.86419    -0.32283  599(v),531(v),534(v),577(r)
                                                    105(r)
   108. LP (   3) O  48                  0.50528    -0.27312  105(r),600(v),104(r),598(g)
                                                    501(r),504(g),496(r),577(r)
   109. LP (   1) O  49                  0.99640    -0.78380  530(v),105(r),501(r)
   110. LP (   2) O  49                  0.92604    -0.32343  598(v),529(v),532(v),535(v)
                                                    530(v),105(r)
   111. LP (   1) N  50                  0.98626    -0.52909  516(v),105(r),549(r),501(r)
   503. RY*(   1) O  48                  0.00144     1.15562   
   504. RY*(   2) O  48                  0.00073     1.72522   
   505. RY*(   3) O  48                  0.00045     1.03724   
   506. RY*(   4) O  48                  0.00014     1.86405   
   507. RY*(   5) O  48                  0.00003     2.19464   
   508. RY*(   6) O  48                  0.00000     4.81010   
   509. RY*(   7) O  48                  0.00000    49.55640   
   510. RY*(   8) O  48                  0.00000     4.78355   
   511. RY*(   9) O  48                  0.00000     3.07073   
   512. RY*(  10) O  48                  0.00000     3.08109   
   513. RY*(  11) O  48                  0.00000     2.96675   
   514. RY*(  12) O  48                  0.00001     2.68857   
   515. RY*(  13) O  48                  0.00000     4.81712   
   516. RY*(   1) O  49                  0.00221     1.03785   
   517. RY*(   2) O  49                  0.00049     0.97217   
   518. RY*(   3) O  49                  0.00011     1.49175   
   519. RY*(   4) O  49                  0.00003     2.98245   
   520. RY*(   5) O  49                  0.00000    49.68794   
   521. RY*(   6) O  49                  0.00000     4.72654   
   522. RY*(   7) O  49                  0.00000     1.82370   
   523. RY*(   8) O  49                  0.00000     4.77113   
   524. RY*(   9) O  49                  0.00000     2.90155   
   525. RY*(  10) O  49                  0.00001     2.82935   
   526. RY*(  11) O  49                  0.00001     2.88419   
   527. RY*(  12) O  49                  0.00000     2.82078   
   528. RY*(  13) O  49                  0.00000     4.74104   
   529. RY*(   1) N  50                  0.00630     1.33978   
   530. RY*(   2) N  50                  0.00333     0.86959   
   531. RY*(   3) N  50                  0.00186     2.07045   
   532. RY*(   4) N  50                  0.00093     1.21964   
   533. RY*(   5) N  50                  0.00035     3.23758   
   534. RY*(   6) N  50                  0.00012     0.81359   
   535. RY*(   7) N  50                  0.00003     1.87533   
   536. RY*(   8) N  50                  0.00001     3.44666   
   537. RY*(   9) N  50                  0.00000     2.39210   
   538. RY*(  10) N  50                  0.00000    35.01015   
   539. RY*(  11) N  50                  0.00000     2.06710   
   540. RY*(  12) N  50                  0.00000     3.51828   
   541. RY*(  13) N  50                  0.00000     3.39602   
   598. BD*(   1) O  48 - N  50          0.04918     0.26190   
   599. BD*(   1) O  49 - N  50          0.13257    -0.07934  517(g),531(g)
   600. BD*(   2) O  49 - N  50          0.00556     0.53526   
       -------------------------------
              Total Lewis   11.24936  ( 98.2023%)
        Valence non-Lewis    0.18731  (  1.6352%)
        Rydberg non-Lewis    0.01862  (  0.1625%)
       -------------------------------
            Total unit  3   11.45529  (100.0000%)
           Charge unit  3    0.04471
 1\1\GINC-N01\SP\UB3LYP\6-311G(d)\C21H20N1O8(2)\UNKNOWN\07-Nov-2024\0\\
 # pop=nbo b3lyp/6-311g(d) scrf=(smd,solvent=generic,read) temperature=
 298.15 Geom=Check Guess=Read\\Reagente 1\\0,2\C,0,-2.5196309289,0.3012
 235757,-0.1912373809\H,0,-2.0090650124,0.5494874329,-1.1177108264\C,0,
 -1.9355908067,0.6333677435,0.9832743569\H,0,-2.4096320458,0.4035322728
 ,1.9324901917\C,0,-0.6479941562,1.3120183983,1.130126667\O,0,-0.174750
 7529,1.5456976593,2.2346085\C,0,-3.7975320815,-0.3610213604,-0.3776966
 634\C,0,-4.2466561027,-0.6084287005,-1.6868586361\C,0,-4.6166067836,-0
 .7781470581,0.6923131473\C,0,-5.4626047699,-1.2336177054,-1.9203369914
 \H,0,-3.6371189188,-0.2987448322,-2.5294687494\C,0,-5.8313324125,-1.40
 14377806,0.4756661372\H,0,-4.3214491556,-0.6109559115,1.7217707846\C,0
 ,-6.2689179086,-1.6295381899,-0.8508616091\H,0,-5.8015752462,-1.407155
 1003,-2.9380690311\O,0,-7.4760291529,-2.2178574835,-1.0176305512\H,0,-
 7.6699770542,-2.3120898152,-1.9614244256\O,0,-6.6194064398,-1.72400903
 74,1.5458606256\C,0,-6.7834372181,-3.1283539581,1.8037154845\H,0,-5.81
 22710803,-3.6041732041,1.9737300781\H,0,-7.3834750032,-3.1989244816,2.
 7102568014\H,0,-7.302621484,-3.6284048465,0.9843206286\C,0,2.766584351
 6,0.2557616603,-0.0986857563\H,0,1.8528412033,-0.2844259334,-0.3343948
 532\C,0,2.6924761514,1.5823365222,0.1456647833\H,0,3.578707878,2.16109
 68356,0.3902878903\C,0,1.4689200178,2.3899694442,0.1497325042\O,0,1.51
 12444687,3.5911978135,0.3641878987\C,0,3.9611781664,-0.5757838388,-0.0
 823625442\C,0,3.8404271566,-1.9435543593,-0.3771370258\C,0,5.245774306
 1,-0.0773276781,0.2143738934\C,0,4.948419837,-2.7806677927,-0.36602342
 12\H,0,2.8648434044,-2.3575647735,-0.6102086651\C,0,6.3590611193,-0.89
 8565222,0.2292887346\H,0,5.3997835254,0.9682390619,0.4547244304\C,0,6.
 2122092397,-2.2746859224,-0.059080748\H,0,4.8361761505,-3.8397690064,-
 0.5828470703\O,0,7.3238838023,-3.0488398494,-0.0062486392\H,0,7.095051
 4893,-3.9659700402,-0.2139023675\O,0,7.5711982257,-0.37525687,0.590542
 3501\C,0,8.5563049581,-0.3026868354,-0.4526685793\H,0,8.1887647767,0.3
 015754549,-1.2884291754\H,0,9.4261497992,0.1831538186,-0.0117603263\H,
 0,8.8363334462,-1.2955423014,-0.8090181062\C,0,0.1319604829,1.70783201
 46,-0.1061640426\H,0,0.1502678868,0.9421215792,-0.8824030681\H,0,-0.55
 82801447,2.6065281648,-0.6587234998\O,0,-1.2550257277,3.5079738045,-1.
 3005528337\O,0,-2.6384677514,4.9947349948,-0.7419561652\N,0,-1.9401317
 051,4.1236246364,-0.315305136\\Version=ES64L-G16RevA.03\State=2-A\HF=-
 1468.9475083\S2=0.759487\S2-1=0.\S2A=0.750067\RMSD=7.606e-09\Dipole=-0
 .1590425,-6.1309536,-2.9377712\Quadrupole=27.617881,-19.9792271,-7.638
 6539,7.4974084,1.8438096,3.6462505\PG=C01 [X(C21H20N1O8)]\\@


 ALL PAPERS THAT YOU SAVE WILL NEVER BE NEEDED UNTIL
 SUCH TIME AS THEY ARE DISPOSED OF, WHEN THEY BECOME
 ESSENTIAL.

           -- JOHN CORCORAN IN
              PAUL DICKSON'S "THE OFFICIAL RULES"
 Job cpu time:       0 days  0 hours  1 minutes 38.6 seconds.
 Elapsed time:       0 days  0 hours  1 minutes 47.3 seconds.
 File lengths (MBytes):  RWF=    656 Int=      0 D2E=      0 Chk=     69 Scr=      1
 Normal termination of Gaussian 16 at Thu Nov  7 10:17:40 2024.
