 Entering Gaussian System, Link 0=g16
 Initial command:
 /sw/cluster/pub/apps//g16/l1.exe "/data/natrosa/25344/Gau-889800.inp" -scrdir="/data/natrosa/25344/"
 Entering Link 1 = /sw/cluster/pub/apps//g16/l1.exe PID=    889801.
  
 Copyright (c) 1988,1990,1992,1993,1995,1998,2003,2009,2016,
            Gaussian, Inc.  All Rights Reserved.
  
 This is part of the Gaussian(R) 16 program.  It is based on
 the Gaussian(R) 09 system (copyright 2009, Gaussian, Inc.),
 the Gaussian(R) 03 system (copyright 2003, Gaussian, Inc.),
 the Gaussian(R) 98 system (copyright 1998, Gaussian, Inc.),
 the Gaussian(R) 94 system (copyright 1995, Gaussian, Inc.),
 the Gaussian 92(TM) system (copyright 1992, Gaussian, Inc.),
 the Gaussian 90(TM) system (copyright 1990, Gaussian, Inc.),
 the Gaussian 88(TM) system (copyright 1988, Gaussian, Inc.),
 the Gaussian 86(TM) system (copyright 1986, Carnegie Mellon
 University), and the Gaussian 82(TM) system (copyright 1983,
 Carnegie Mellon University). Gaussian is a federally registered
 trademark of Gaussian, Inc.
  
 This software contains proprietary and confidential information,
 including trade secrets, belonging to Gaussian, Inc.
  
 This software is provided under written license and may be
 used, copied, transmitted, or stored only in accord with that
 written license.
  
 The following legend is applicable only to US Government
 contracts under FAR:
  
                    RESTRICTED RIGHTS LEGEND
  
 Use, reproduction and disclosure by the US Government is
 subject to restrictions as set forth in subparagraphs (a)
 and (c) of the Commercial Computer Software - Restricted
 Rights clause in FAR 52.227-19.
  
 Gaussian, Inc.
 340 Quinnipiac St., Bldg. 40, Wallingford CT 06492
  
  
 ---------------------------------------------------------------
 Warning -- This program may not be used in any manner that
 competes with the business of Gaussian, Inc. or will provide
 assistance to any competitor of Gaussian, Inc.  The licensee
 of this program is prohibited from giving any competitor of
 Gaussian, Inc. access to this program.  By using this program,
 the user acknowledges that Gaussian, Inc. is engaged in the
 business of creating and licensing software in the field of
 computational chemistry and represents and warrants to the
 licensee that it is not a competitor of Gaussian, Inc. and that
 it will not use this program in any manner prohibited above.
 ---------------------------------------------------------------
  

 Cite this work as:
 Gaussian 16, Revision A.03,
 M. J. Frisch, G. W. Trucks, H. B. Schlegel, G. E. Scuseria, 
 M. A. Robb, J. R. Cheeseman, G. Scalmani, V. Barone, 
 G. A. Petersson, H. Nakatsuji, X. Li, M. Caricato, A. V. Marenich, 
 J. Bloino, B. G. Janesko, R. Gomperts, B. Mennucci, H. P. Hratchian, 
 J. V. Ortiz, A. F. Izmaylov, J. L. Sonnenberg, D. Williams-Young, 
 F. Ding, F. Lipparini, F. Egidi, J. Goings, B. Peng, A. Petrone, 
 T. Henderson, D. Ranasinghe, V. G. Zakrzewski, J. Gao, N. Rega, 
 G. Zheng, W. Liang, M. Hada, M. Ehara, K. Toyota, R. Fukuda, 
 J. Hasegawa, M. Ishida, T. Nakajima, Y. Honda, O. Kitao, H. Nakai, 
 T. Vreven, K. Throssell, J. A. Montgomery, Jr., J. E. Peralta, 
 F. Ogliaro, M. J. Bearpark, J. J. Heyd, E. N. Brothers, K. N. Kudin, 
 V. N. Staroverov, T. A. Keith, R. Kobayashi, J. Normand, 
 K. Raghavachari, A. P. Rendell, J. C. Burant, S. S. Iyengar, 
 J. Tomasi, M. Cossi, J. M. Millam, M. Klene, C. Adamo, R. Cammi, 
 J. W. Ochterski, R. L. Martin, K. Morokuma, O. Farkas, 
 J. B. Foresman, and D. J. Fox, Gaussian, Inc., Wallingford CT, 2016.
 
 ******************************************
 Gaussian 16:  ES64L-G16RevA.03 25-Dec-2016
                 1-Nov-2024 
 ******************************************
 %chk=CURCUMIN-IRC-TS2-B3LYP-6-311G-D-298.chk
 ----------------------------------------------------------------------
 # irc=(calcfc,maxpoints=30) b3lyp/6-311g(d) scrf=(smd,solvent=generic,
 read) temperature=298.15
 ----------------------------------------------------------------------
 1/10=4,18=10,26=3,38=1,40=2,42=30,44=3,112=298150,172=1/1,23;
 2/12=2,17=6,18=5,29=1,40=1/2;
 3/5=4,6=6,7=1,11=2,25=1,30=1,70=32203,71=2,72=-2,74=-5,140=1/1,2,3;
 4//1;
 5/5=2,38=5/2;
 8/6=4,10=90,11=11/1;
 11/6=1,8=1,9=11,15=111,16=1/1,2,10;
 10/6=1,13=1/2;
 6/7=2,8=2,9=2,10=2,28=1/1;
 7/10=1,18=20,25=1/1,2,3,16;
 1/10=4,18=10,26=3,42=30,44=3/23(2);
 2/29=1/2;
 99/5=20/99;
 2/29=1/2;
 3/5=4,6=6,7=1,11=2,25=1,30=1,70=32205,71=2,72=-2,74=-5,140=1/1,2,3;
 4/5=5,16=3,69=1/1;
 5/5=2,38=5/2;
 8/6=4,10=90,11=11/1;
 11/6=1,8=1,9=11,15=111,16=1/1,2,10;
 10/6=1,13=1/2;
 7/10=1,18=20,25=1/1,2,3,16;
 1/18=10,26=3,42=30,44=3/23(-8);
 2/29=1/2;
 6/7=2,8=2,9=2,10=2,19=2,28=1/1;
 99/5=20,9=1/99;
 ---
 IRC
 ---
 Symbolic Z-matrix:
 Charge =  0 Multiplicity = 2
 C                    -2.53029   0.30007  -0.18442 
 H                    -2.02287   0.58664  -1.10152 
 C                    -1.94279   0.58427   1.0009 
 H                    -2.41363   0.31521   1.94136 
 C                    -0.65529   1.25754   1.17145 
 O                    -0.17874   1.44613   2.2831 
 C                    -3.80823  -0.35518  -0.39391 
 C                    -4.2613   -0.54905  -1.71071 
 C                    -4.62356  -0.81666   0.66064 
 C                    -5.47747  -1.16528  -1.96584 
 H                    -3.6547   -0.20446  -2.5418 
 C                    -5.83846  -1.43168   0.4224 
 H                    -4.32528  -0.69159   1.69516 
 C                    -6.28006  -1.60554  -0.911 
 H                    -5.81953  -1.29721  -2.98877 
 O                    -7.48721  -2.18766  -1.09799 
 H                    -7.68408  -2.24325  -2.04425 
 O                    -6.62287  -1.79866   1.48091 
 C                    -6.78493  -3.21257   1.6814 
 H                    -5.81284  -3.69404   1.82869 
 H                    -7.38203  -3.32086   2.58616 
 H                    -7.3063   -3.67905   0.8438 
 C                     2.75623   0.25586  -0.1104 
 H                     1.84219  -0.27506  -0.36522 
 C                     2.68181   1.57122   0.18844 
 H                     3.56834   2.14029   0.45384 
 C                     1.45761   2.37684   0.22951 
 O                     1.49963   3.56829   0.49297 
 C                     3.95155  -0.57452  -0.13198 
 C                     3.83099  -1.92915  -0.48228 
 C                     5.23667  -0.08745   0.18094 
 C                     4.9397   -2.76496  -0.50902 
 H                     2.85501  -2.33417  -0.72909 
 C                     6.35068  -0.90755   0.15864 
 H                     5.39059   0.94752   0.46354 
 C                     6.20404  -2.27081  -0.18553 
 H                     4.82763  -3.81437  -0.76879 
 O                     7.31651  -3.04542  -0.16801 
 H                     7.08777  -3.95347  -0.41243 
 O                     7.56352  -0.39836   0.53727 
 C                     8.54526  -0.28209  -0.50517 
 H                     8.17457   0.35563  -1.31426 
 H                     9.4161    0.18607  -0.04742 
 H                     8.82497  -1.25921  -0.90286 
 C                     0.12041   1.70452  -0.04999 
 H                     0.13688   0.97134  -0.85706 
 H                    -0.57232   2.62448  -0.56302 
 O                    -1.27184   3.55086  -1.1651 
 O                    -2.65472   5.01212  -0.5416 
 N                    -1.95432   4.12489  -0.15327 
 
 IRC-IRC-IRC-IRC-IRC-IRC-IRC-IRC-IRC-IRC-IRC-IRC-IRC-IRC-IRC-IRC-IRC-IRC
 ------------------------------------------------------------------------
 INPUT DATA FOR L123
 ------------------------------------------------------------------------
 GENERAL PARAMETERS:
 Follow reaction path in both directions.
 Maximum points per path      =  30
 Step size                    =   0.100 bohr
 Integration scheme           = HPC                                 
    Redo corrector integration= Yes                                 
    DWI Weight Power          =  2
    DWI will use Hessian update vectors when possible.
    Max correction cycles     =  20
 Initial Hessian              = CalcFC
 Hessian evaluation           = All updating
 Hessian updating method      = Bofill                              
 ------------------------------------------------------------------------
 IRC-IRC-IRC-IRC-IRC-IRC-IRC-IRC-IRC-IRC-IRC-IRC-IRC-IRC-IRC-IRC-IRC-IRC
                          Input orientation:                          
 ---------------------------------------------------------------------
 Center     Atomic      Atomic             Coordinates (Angstroms)
 Number     Number       Type             X           Y           Z
 ---------------------------------------------------------------------
      1          6           0       -2.530286    0.300069   -0.184423
      2          1           0       -2.022866    0.586644   -1.101519
      3          6           0       -1.942794    0.584268    1.000898
      4          1           0       -2.413632    0.315207    1.941359
      5          6           0       -0.655294    1.257539    1.171450
      6          8           0       -0.178740    1.446126    2.283105
      7          6           0       -3.808229   -0.355176   -0.393905
      8          6           0       -4.261302   -0.549053   -1.710706
      9          6           0       -4.623562   -0.816656    0.660640
     10          6           0       -5.477473   -1.165284   -1.965841
     11          1           0       -3.654696   -0.204459   -2.541799
     12          6           0       -5.838458   -1.431679    0.422397
     13          1           0       -4.325276   -0.691589    1.695163
     14          6           0       -6.280063   -1.605542   -0.910999
     15          1           0       -5.819528   -1.297214   -2.988771
     16          8           0       -7.487215   -2.187664   -1.097994
     17          1           0       -7.684079   -2.243254   -2.044248
     18          8           0       -6.622867   -1.798663    1.480912
     19          6           0       -6.784928   -3.212565    1.681403
     20          1           0       -5.812838   -3.694041    1.828692
     21          1           0       -7.382028   -3.320863    2.586161
     22          1           0       -7.306300   -3.679047    0.843801
     23          6           0        2.756232    0.255863   -0.110398
     24          1           0        1.842189   -0.275060   -0.365220
     25          6           0        2.681813    1.571216    0.188443
     26          1           0        3.568341    2.140287    0.453842
     27          6           0        1.457614    2.376840    0.229505
     28          8           0        1.499634    3.568291    0.492965
     29          6           0        3.951553   -0.574518   -0.131977
     30          6           0        3.830988   -1.929147   -0.482280
     31          6           0        5.236675   -0.087445    0.180943
     32          6           0        4.939696   -2.764959   -0.509021
     33          1           0        2.855009   -2.334166   -0.729092
     34          6           0        6.350676   -0.907546    0.158635
     35          1           0        5.390589    0.947518    0.463535
     36          6           0        6.204038   -2.270806   -0.185529
     37          1           0        4.827633   -3.814372   -0.768793
     38          8           0        7.316509   -3.045421   -0.168013
     39          1           0        7.087770   -3.953469   -0.412428
     40          8           0        7.563524   -0.398359    0.537266
     41          6           0        8.545256   -0.282087   -0.505171
     42          1           0        8.174571    0.355629   -1.314260
     43          1           0        9.416097    0.186068   -0.047418
     44          1           0        8.824966   -1.259209   -0.902860
     45          6           0        0.120409    1.704515   -0.049987
     46          1           0        0.136880    0.971336   -0.857064
     47          1           0       -0.572318    2.624483   -0.563015
     48          8           0       -1.271835    3.550857   -1.165103
     49          8           0       -2.654716    5.012118   -0.541598
     50          7           0       -1.954316    4.124889   -0.153265
 ---------------------------------------------------------------------
                    Distance matrix (angstroms):
                    1          2          3          4          5
     1  C    0.000000
     2  H    1.086584   0.000000
     3  C    1.353108   2.103943   0.000000
     4  H    2.129034   3.079851   1.085610   0.000000
     5  C    2.504144   2.736191   1.462887   2.138341   0.000000
     6  O    3.596096   3.949075   2.344939   2.527946   1.224110
     7  C    1.451333   2.138987   2.511549   2.801388   3.871974
     8  C    2.459058   2.582927   3.743353   4.183110   4.957206
     9  C    2.518533   3.440650   3.043827   2.793769   4.506702
    10  C    3.742542   3.968704   4.935223   5.181234   6.242281
    11  H    2.660088   2.315841   4.012904   4.680705   4.992201
    12  C    3.783013   4.577629   4.424353   4.133798   5.887118
    13  H    2.781765   3.841406   2.790347   2.174542   4.188334
    14  C    4.268500   4.792255   5.221352   5.174409   6.646191
    15  H    4.608123   4.639535   5.872521   6.205337   7.106582
    16  O    5.620905   6.128287   6.544430   6.422093   7.980911
    17  H    6.040614   6.398937   7.087323   7.085788   8.485286
    18  O    4.891547   5.789529   5.273695   4.732665   6.711786
    19  C    5.824250   6.697453   6.190742   5.623254   7.603571
    20  H    5.548035   6.424507   5.828071   5.257506   7.179859
    21  H    6.657829   7.588690   6.881015   6.190455   8.259063
    22  H    6.300866   7.063644   6.853301   6.410686   8.289337
    23  C    5.287221   4.891985   4.839801   5.562439   3.779550
    24  H    4.413842   4.027818   4.114708   4.876549   3.308721
    25  C    5.377808   4.976684   4.798035   5.532977   3.492990
    26  H    6.402112   6.007874   5.752658   6.428657   4.374163
    27  C    4.515270   4.134026   3.920604   4.708218   2.569917
    28  O    5.232627   4.882684   4.583961   5.290941   3.231661
    29  C    6.540787   6.162953   6.113061   6.753215   5.126246
    30  C    6.747142   6.401583   6.469438   7.064448   5.746000
    31  C    7.785200   7.402705   7.257293   7.860559   6.124164
    32  C    8.080866   7.749940   7.801657   8.340457   7.092840
    33  H    6.019739   5.697675   5.876141   6.473721   5.369789
    34  C    8.969254   8.598651   8.468563   9.026978   7.402500
    35  H    7.973663   7.585443   7.362012   7.968039   6.095077
    36  C    9.104824   8.757055   8.713778   9.245288   7.832052
    37  H    8.450390   8.149171   8.265502   8.765516   7.716950
    38  O   10.399613  10.064157  10.013775  10.508040   9.157471
    39  H   10.519105  10.202508  10.204883  10.678883   9.466695
    40  O   10.143650   9.775209   9.568207  10.100708   8.407922
    41  C   11.095468  10.620524  10.630993  11.244532   9.477955
    42  H   10.764459  10.202272  10.381392  11.077488   9.217305
    43  H   11.947712  11.494410  11.414111  11.996433  10.201304
    44  H   11.484304  11.005549  11.089065  11.699336  10.025573
    45  C    3.002786   2.636092   2.572182   3.509558   1.514401
    46  H    2.831399   2.207317   2.815473   3.842758   2.196434
    47  H    3.062658   2.558684   2.913161   3.872348   2.209930
    48  O    3.621195   3.058537   3.733952   4.628524   3.331503
    49  O    4.727205   4.505282   4.742571   5.318286   4.585748
    50  N    3.868069   3.663750   3.724006   4.371739   3.415263
                    6          7          8          9         10
     6  O    0.000000
     7  C    4.856363   0.000000
     8  C    6.049676   1.405997   0.000000
     9  C    5.244904   1.410602   2.413737   0.000000
    10  C    7.276646   2.431796   1.387050   2.783722   0.000000
    11  H    6.171418   2.158642   1.085095   3.401338   2.139493
    12  C    6.616374   2.438655   2.795814   1.382384   2.430012
    13  H    4.702049   2.178237   3.409451   1.083907   3.867156
    14  C    7.532670   2.817936   2.414766   2.415861   1.396664
    15  H    8.193722   3.415566   2.149712   3.870332   1.086643
    16  O    8.834595   4.169975   3.669738   3.629458   2.416088
    17  H    9.416349   4.616350   3.833663   4.326473   2.457087
    18  O    7.259404   3.677061   4.162324   2.373690   3.686896
    19  C    8.105996   4.618692   4.996938   3.384352   4.382144
    20  H    7.640083   4.484018   4.982525   3.325367   4.572260
    21  H    8.643112   5.517983   5.990403   4.193783   5.384661
    22  H    8.896129   4.981620   5.059089   3.927329   4.190191
    23  C    3.969842   6.598931   7.242559   7.497077   8.558985
    24  H    3.749701   5.651059   6.256038   6.568992   7.545326
    25  C    3.547678   6.794907   7.503943   7.700221   8.871489
    26  H    4.227136   7.833249   8.556934   8.711691   9.930177
    27  C    2.785885   5.965036   6.710534   6.882223   8.090835
    28  O    3.244245   6.659845   7.416001   7.533220   8.782510
    29  C    5.193741   7.767299   8.363254   8.615072   9.623855
    30  C    5.926022   7.800181   8.300533   8.603680   9.456843
    31  C    6.008132   9.067106   9.695514   9.898794  10.980136
    32  C    7.192190   9.074497   9.540055   9.829542  10.639488
    33  H    5.706800   6.958986   7.402167   7.756495   8.504475
    34  C    7.258541  10.188904  10.781328  10.986090  12.020189
    35  H    5.880210   9.330084  10.006300  10.170269  11.334927
    36  C    7.787785  10.196007  10.715127  10.957531  11.867999
    37  H    7.877226   9.310461   9.703517  10.017718  10.707278
    38  O    9.075281  11.447630  11.943930  12.174537  13.055768
    39  H    9.445829  11.474792  11.919606  12.171539  12.964274
    40  O    8.148173  11.409895  12.037549  12.194887  13.301177
    41  C    9.320371  12.354202  12.865944  13.231124  14.126235
    42  H    9.160132  12.039094  12.475037  13.002565  13.751947
    43  H    9.953893  13.239932  13.797760  14.093219  15.077298
    44  H    9.926527  12.675722  13.130398  13.546339  14.342193
    45  C    2.366342   4.449135   5.199610   5.419092   6.575905
    46  H    3.191505   4.187844   4.731204   5.306802   6.108641
    47  H    3.105451   4.402055   4.999713   5.454480   6.355376
    48  O    4.185079   4.720713   5.103318   5.800223   6.369502
    49  O    5.179354   5.491835   5.905468   6.268679   6.939504
    50  N    4.032907   4.854470   5.439995   5.675049   6.609387
                   11         12         13         14         15
    11  H    0.000000
    12  C    3.880895   0.000000
    13  H    4.317270   2.111252   0.000000
    14  C    3.393390   1.415340   3.383575   0.000000
    15  H    2.465846   3.413870   4.953666   2.150417   0.000000
    16  O    4.550371   2.366749   4.476363   1.353163   2.673784
    17  H    4.543145   3.185798   5.260458   1.913685   2.294268
    18  O    5.247259   1.367636   2.559383   2.424056   4.568903
    19  C    6.056607   2.377490   3.522130   3.091595   5.139172
    20  H    5.994660   2.663945   3.353414   3.476497   5.380778
    21  H    7.064061   3.260905   4.129248   4.048059   6.133223
    22  H    6.072006   2.717132   4.305372   2.903775   4.751024
    23  C    6.871943   8.774985   7.369225   9.260692   9.178275
    24  H    5.912548   7.807077   6.515850   8.248578   8.162703
    25  C    7.124506   9.036987   7.515969   9.571614   9.518160
    26  H    8.163575  10.062196   8.477593  10.624739  10.573556
    27  C    6.362306   8.232539   6.708593   8.776774   8.764289
    28  O    7.071814   8.879880   7.315834   9.447928   9.453346
    29  C    7.987441   9.843087   8.476912  10.312897  10.205762
    30  C    7.953089   9.724407   8.532142  10.125309   9.990710
    31  C    9.299650  11.159025   9.699936  11.667571  11.565044
    32  C    9.195212  10.900173   9.746640  11.286666  11.138417
    33  H    7.085042   8.815712   7.754454   9.165889   9.023802
    34  C   10.387211  12.203248  10.788119  12.695152  12.576640
    35  H    9.600847  11.478404   9.929834  12.025455  11.942527
    36  C   10.344875  12.086994  10.811909  12.522846  12.384352
    37  H    9.387488  10.993710   9.979910  11.326079  11.163621
    38  O   11.579001  13.266722  12.022608  13.692774  13.548741
    39  H   11.575399  13.196353  12.055680  13.581616  13.427270
    40  O   11.634720  13.442249  11.948652  13.971387  13.868921
    41  C   12.369022  14.459363  13.063681  14.889806  14.613205
    42  H   11.905969  14.232900  12.899592  14.592644  14.190514
    43  H   13.312403  15.347289  13.879200  15.821665  15.587686
    44  H   12.630938  14.724200  13.416437  15.109001  14.792352
    45  C    4.909656   6.750330   5.343312   7.256987   7.275279
    46  H    4.312409   6.566290   5.402779   6.915227   6.720810
    47  H    4.628126   6.719800   5.493669   7.112845   6.985500
    48  O    4.655719   6.942612   5.958437   7.192730   6.892827
    49  O    5.675688   7.251760   6.350287   7.554669   7.470767
    50  N    5.228732   6.803925   5.677728   7.219701   7.237345
                   16         17         18         19         20
    16  O    0.000000
    17  H    0.968113   0.000000
    18  O    2.747576   3.708178   0.000000
    19  C    3.044450   3.953291   1.437212   0.000000
    20  H    3.692993   4.539382   2.090348   1.094748   0.000000
    21  H    3.855931   4.763734   2.028545   1.089424   1.781959
    22  H    2.455101   3.247314   2.099723   1.091335   1.789040
    23  C   10.577068  10.908045   9.732463  10.308942   9.632797
    24  H    9.551586   9.871307   8.796973   9.340490   8.666148
    25  C   10.917565  11.268842   9.980162  10.711334  10.127805
    26  H   11.973499  12.331782  10.974102  11.719646  11.132660
    27  C   10.129507  10.492177   9.181232  10.064241   9.605856
    28  O   10.790071  11.160291   9.785462  10.771553  10.392203
    29  C   11.592275  11.909215  10.766536  11.203556  10.436426
    30  C   11.337886  11.624766  10.637398  10.909920  10.072677
    31  C   12.959320  13.287019  12.052673  12.511463  11.739436
    32  C   12.454247  12.727482  11.772274  11.935875  11.042875
    33  H   10.349838  10.621218   9.746846   9.975493   9.139097
    34  C   13.953675  14.269238  13.071164  13.422966  12.589866
    35  H   13.345620  13.690031  12.365261  12.924113  12.203463
    36  C   13.721877  14.011973  12.943316  13.156199  12.267355
    37  H   12.426183  12.674310  11.842221  11.883485  10.953585
    38  O   14.857687  15.138737  14.091826  14.223178  13.296138
    39  H   14.697560  14.959786  14.007480  14.049371  13.096397
    40  O   15.244685  15.574250  14.286532  14.666522  13.836776
    41  C   16.156200  16.419691  15.372589  15.760182  14.941326
    42  H   15.868417  16.086760  15.212433  15.668204  14.897167
    43  H   17.101470  17.386919  16.233401  16.643700  15.827049
    44  H   16.339748  16.577686  15.639978  15.942484  15.088243
    45  C    8.609490   8.970618   7.751624   8.652113   8.238766
    46  H    8.256158   8.538758   7.670281   8.477044   8.023601
    47  H    8.441490   8.744487   7.768591   8.815048   8.550267
    48  O    8.459673   8.686857   8.015753   9.178272   9.059363
    49  O    8.689044   8.955047   8.137783   9.468146   9.559771
    50  N    8.447118   8.772642   7.717148   8.974355   8.941589
                   21         22         23         24         25
    21  H    0.000000
    22  H    1.780407   0.000000
    23  C   11.083714  10.846592   0.000000
    24  H   10.152524   9.835838   1.087331   0.000000
    25  C   11.443880  11.302971   1.350925   2.102438   0.000000
    26  H   12.421011  12.339957   2.128131   3.079670   1.086375
    27  C   10.777612  10.670394   2.510077   2.744844   1.466076
    28  O   11.433540  11.410148   3.593781   3.952869   2.340639
    29  C   11.974170  11.718767   1.455607   2.143244   2.513779
    30  C   11.708285  11.351644   2.463263   2.589407   3.744731
    31  C   13.246574  13.063889   2.520979   3.443258   3.046068
    32  C   12.716684  12.354356   3.748571   3.976786   4.938310
    33  H   10.805619  10.369903   2.664731   2.323386   4.015455
    34  C   14.152885  13.952192   3.787602   4.582676   4.427833
    35  H   13.633208  13.518901   2.783455   3.843524   2.793232
    36  C   13.905613  13.622478   4.275169   4.800106   5.225615
    37  H   12.671823  12.241368   4.614217   4.647846   5.875832
    38  O   14.956882  14.671462   5.630091   6.138564   6.551397
    39  H   14.790767  14.451390   6.047472   6.406953   7.091942
    40  O   15.365823  15.230514   4.894643   5.793389   5.275605
    41  C   16.506631  16.267480   5.827352   6.704532   6.188360
    42  H   16.454107  16.142900   5.551363   6.434089   5.822899
    43  H   17.361201  17.186388   6.660528   7.594585   6.879306
    44  H   16.705997  16.405005   6.304996   7.072254   6.851319
    45  C    9.406926   9.216160   3.008289   2.642464   2.575929
    46  H    9.317336   8.939795   2.816100   2.168754   2.815959
    47  H    9.572701   9.330602   4.110288   3.778401   3.501918
    48  O    9.931112   9.629225   5.309869   4.997459   4.624110
    49  O   10.078141   9.954542   7.217081   6.943163   6.391503
    50  N    9.612686   9.515214   6.095938   5.815318   5.303933
                   26         27         28         29         30
    26  H    0.000000
    27  C    2.135756   0.000000
    28  O    2.514016   1.220956   0.000000
    29  C    2.803605   3.880839   4.854413   0.000000
    30  C    4.183970   4.968004   6.050466   1.404375   0.000000
    31  C    2.796534   4.511802   5.237102   1.409503   2.409914
    32  C    5.183547   6.253672   7.276542   2.432410   1.388715
    33  H    4.682831   5.006516   6.178144   2.157618   1.085123
    34  C    4.137369   5.893579   6.608896   2.439499   2.793433
    35  H    2.177930   4.191184   4.691359   2.177625   3.406189
    36  C    5.178169   6.655930   7.529065   2.820275   2.415814
    37  H    6.207948   7.119321   8.195811   3.416095   2.151619
    38  O    6.428611   7.992846   8.832560   4.174876   3.673376
    39  H    7.090181   8.496090   9.414025   4.618638   3.835282
    40  O    4.734255   6.714059   7.246174   3.677669   4.161083
    41  C    5.617587   7.605545   8.090888   4.618105   4.993761
    42  H    5.246765   7.182341   7.625093   4.482951   4.977862
    43  H    6.185991   8.259154   8.625650   5.517869   5.988045
    44  H    6.405413   8.293430   8.883331   4.981287   5.056236
    45  C    3.511691   1.522581   2.381327   4.458517   5.211408
    46  H    3.854847   2.213687   3.228599   4.179371   4.711656
    47  H    4.291096   2.193180   2.509751   5.557410   6.334917
    48  O    5.295092   3.282246   3.229634   6.735715   7.519009
    49  O    6.925659   4.944750   4.518139   8.661471   9.499949
    50  N    5.899743   3.852720   3.557694   7.547461   8.380295
                   31         32         33         34         35
    31  C    0.000000
    32  C    2.780886   0.000000
    33  H    3.398272   2.140078   0.000000
    34  C    1.383496   2.426234   3.878530   0.000000
    35  H    1.083834   3.864150   4.315203   2.110922   0.000000
    36  C    2.416021   1.395491   3.393445   1.413658   3.382395
    37  H    3.867725   1.086880   2.466542   3.410194   4.950873
    38  O    3.632782   2.417475   4.552546   2.368553   4.477899
    39  H    4.327214   2.456849   4.542982   3.185446   5.259982
    40  O    2.374418   3.685103   5.246058   1.368807   2.557043
    41  C    3.384575   4.377754   6.053105   2.376556   3.521682
    42  H    3.326136   4.566278   5.989588   2.663010   3.355807
    43  H    4.194583   5.381431   7.061454   3.261174   4.128631
    44  H    3.927275   4.185417   6.068452   2.715244   4.304837
    45  C    5.425922   6.588812   4.924446   6.758891   5.348976
    46  H    5.310968   6.094922   4.281465   6.570624   5.417196
    47  H    6.453869   7.709170   6.030120   7.805373   6.278716
    48  O    7.576924   8.882741   7.201003   8.929295   7.336057
    49  O    9.423463  10.870100   9.184776  10.799529   9.069631
    50  N    8.340612   9.753152   8.073449   9.715739   8.026441
                   36         37         38         39         40
    36  C    0.000000
    37  H    2.148787   0.000000
    38  O    1.355702   2.673336   0.000000
    39  H    1.914111   2.292283   0.967787   0.000000
    40  O    2.424189   4.567279   2.750522   3.710400   0.000000
    41  C    3.088442   5.134906   3.042944   3.951191   1.436660
    42  H    3.472059   5.374796   3.690162   4.534618   2.090460
    43  H    4.046310   6.130082   3.855559   4.763413   2.028654
    44  H    2.899510   4.746104   2.450713   3.243056   2.099110
    45  C    7.268569   7.289222   8.623206   8.982665   7.756733
    46  H    6.911791   6.701788   8.255677   8.530315   7.679535
    47  H    8.368115   8.405990   9.723036  10.097974   8.748721
    48  O    9.525755   9.571163  10.874959  11.258971   9.826390
    49  O   11.473678  11.573422  12.825320  13.240637  11.612478
    50  N   10.366518  10.459712  11.720143  12.127916  10.560582
                   41         42         43         44         45
    41  C    0.000000
    42  H    1.094858   0.000000
    43  H    1.089528   1.781860   0.000000
    44  H    1.091404   1.788845   1.780461   0.000000
    45  C    8.667862   8.263619   9.418891   9.234737   0.000000
    46  H    8.508565   8.074193   9.347515   8.969965   1.090503
    47  H    9.569830   9.067532  10.294666  10.173864   1.260718
    48  O   10.559462   9.973280  11.260680  11.187086   2.567256
    49  O   12.388273  11.813270  13.009208  13.085991   4.345485
    50  N   11.392378  10.869663  12.033778  12.072420   3.189571
                   46         47         48         49         50
    46  H    0.000000
    47  H    1.822724   0.000000
    48  O    2.955215   1.307671   0.000000
    49  O    4.921427   3.168224   2.106277   0.000000
    50  N    3.848809   2.080633   1.348744   1.195215   0.000000
 Symmetry turned off by external request.
 Stoichiometry    C21H20NO8(2)
 Framework group  C1[X(C21H20NO8)]
 Deg. of freedom   144
 Full point group                 C1      NOp   1
 Rotational constants (GHZ):           0.2083381           0.0494795           0.0426295
 Standard basis: 6-311G(d) (5D, 7F)
   600 basis functions,  1060 primitive gaussians,   630 cartesian basis functions
   109 alpha electrons      108 beta electrons
       nuclear repulsion energy      2589.4823249208 Hartrees.
 NAtoms=   50 NActive=   50 NUniq=   50 SFac= 1.00D+00 NAtFMM=   60 NAOKFM=F Big=F
 Integral buffers will be    131072 words long.
 Raffenetti 2 integral format.
 Two-electron integral symmetry is turned off.
 Force inversion solution in PCM.
 Using the following non-standard input for PCM:
 Eps=7
 EpsInf=1.85341
 HbondAcidity=0
 HbondBasicity=0.48
 SurfaceTensionAtInterface=60.62
 CarbonAromaticity=0
 ElectronegativeHalogenicity=0
 --- end of non-standard input.
 Force inversion solution in PCM.
 ------------------------------------------------------------------------------
 Polarizable Continuum Model (PCM)
 =================================
 Model                : PCM.
 Atomic radii         : SMD-Coulomb.
 Polarization charges : Total charges.
 Charge compensation  : None.
 Solution method      : Matrix inversion.
 Cavity type          : VdW (van der Waals Surface) (Alpha=1.000).
 Cavity algorithm     : GePol (No added spheres)
                        Default sphere list used, NSphG=   50.
                        Lebedev-Laikov grids with approx.  5.0 points / Ang**2.
                        Smoothing algorithm: York/Karplus (Gamma=1.0000).
                        Polarization charges: spherical gaussians, with
                                              point-specific exponents (IZeta= 3).
                        Self-potential: point-specific (ISelfS= 7).
                        Self-field    : sphere-specific E.n sum rule (ISelfD= 2).
 1st derivatives      : Analytical E(r).r(x)/FMM algorithm (CHGder, D1EAlg=3).
                        Cavity 1st derivative terms included.
 2nd derivatives      : Analytical E(r).r(xy)/FMM algorithm (CHGder, D2EAlg=3).
                        Cavity 2nd derivative terms included.
 Solvent              : Generic,
                        Eps                           =   7.000000
                        Eps(infinity)                 =   1.853410
                        RSolv                         =   0.000000 Ang.
                        Molar volume                  =   0.000000 cm**3/mol
                        Thermal expansion coefficient =   0.000000 K**-1
                        Absolute temperature          = 298.150000 K
                        Numeral density               =   0.000000 Ang**-3
                        Hydrogen bond acidity         =   0.000000
                        Hydrogen bond basicity        =   0.480000
                        Surface tension at interface  =  60.620000 (cal/mol)*Ang**-2
                        Carbon aromaticity            =   0.000000
                        Electronegative halogenicity  =   0.000000
 ------------------------------------------------------------------------------
 ------------------------------------------------------------------------------
 Atomic radii for non-electrostatic terms: SMD-CDS.
 ------------------------------------------------------------------------------
 Nuclear repulsion after PCM non-electrostatic terms =     2589.4794160208 Hartrees.
 One-electron integrals computed using PRISM.
 NBasis=   600 RedAO= T EigKep=  1.75D-04  NBF=   600
 NBsUse=   600 1.00D-06 EigRej= -1.00D+00 NBFU=   600
 ExpMin= 1.03D-01 ExpMax= 8.59D+03 ExpMxC= 1.30D+03 IAcc=3 IRadAn=         5 AccDes= 0.00D+00
 Harris functional with IExCor=  402 and IRadAn=       5 diagonalized for initial guess.
 HarFok:  IExCor=  402 AccDes= 0.00D+00 IRadAn=         5 IDoV= 1 UseB2=F ITyADJ=14
 ICtDFT=  3500011 ScaDFX=  1.000000  1.000000  1.000000  1.000000
 FoFCou: FMM=F IPFlag=           0 FMFlag=      100000 FMFlg1=           0
         NFxFlg=           0 DoJE=T BraDBF=F KetDBF=T FulRan=T
         wScrn=  0.000000 ICntrl=       500 IOpCl=  0 I1Cent=   200000004 NGrid=           0
         NMat0=    1 NMatS0=      1 NMatT0=    0 NMatD0=    1 NMtDS0=    0 NMtDT0=    0
 Symmetry not used in FoFCou.
 Initial guess <Sx>= 0.0000 <Sy>= 0.0000 <Sz>= 0.5000 <S**2>= 0.7500 S= 0.5000
 Requested convergence on RMS density matrix=1.00D-08 within 128 cycles.
 Requested convergence on MAX density matrix=1.00D-06.
 Requested convergence on             energy=1.00D-06.
 No special actions if energy rises.
 Inv3:  Mode=1 IEnd=    56168787.
 Iteration    1 A*A^-1 deviation from unit magnitude is 3.11D-15 for   2499.
 Iteration    1 A*A^-1 deviation from orthogonality  is 2.17D-15 for   2794   2314.
 Iteration    1 A^-1*A deviation from unit magnitude is 3.66D-15 for   4083.
 Iteration    1 A^-1*A deviation from orthogonality  is 1.14D-14 for   1667   1634.
 EnCoef did     3 forward-backward iterations
 EnCoef did     3 forward-backward iterations
 EnCoef did     3 forward-backward iterations
 Restarting incremental Fock formation.
 Error on total polarization charges =  0.03441
 SCF Done:  E(UB3LYP) =  -1468.94750826     A.U. after   28 cycles
            NFock= 28  Conv=0.93D-08     -V/T= 2.0034
 <Sx>= 0.0000 <Sy>= 0.0000 <Sz>= 0.5000 <S**2>= 0.7595 S= 0.5047
 <L.S>=  0.00000000000    
 SMD-CDS (non-electrostatic) energy       (kcal/mol) =      -1.83
 (included in total energy above)
 Annihilation of the first spin contaminant:
 S**2 before annihilation     0.7595,   after     0.7501
 DoSCS=F DFT=T ScalE2(SS,OS)=  1.000000  1.000000
 Range of M.O.s used for correlation:     1   600
 NBasis=   600 NAE=   109 NBE=   108 NFC=     0 NFV=     0
 NROrb=    600 NOA=   109 NOB=   108 NVA=   491 NVB=   492

 **** Warning!!: The largest alpha MO coefficient is  0.16848922D+02


 **** Warning!!: The largest beta MO coefficient is  0.16778362D+02


 **** Warning!!: The smallest beta delta epsilon is  0.42710636D-01

 Symmetrizing basis deriv contribution to polar:
 IMax=3 JMax=2 DiffMx= 0.00D+00
 G2DrvN: will do    26 centers at a time, making    2 passes.
 Calling FoFCou, ICntrl=  3107 FMM=F I1Cent=   0 AccDes= 0.00D+00.
 Calling FoFCou, ICntrl=  3107 FMM=F I1Cent=   0 AccDes= 0.00D+00.
 NEqPCM:  Using equilibrium solvation (IEInf=0, Eps=   7.0000, EpsInf=   1.8534)
 G2PCM: DoFxE=T DoFxN=T DoGrad=T DoDP/DQ/DG/TGxP=FFFF NFrqRd=   0 IEInf=0 SqF1=F DoCFld=F IF1Alg=4.
 End of G2Drv F.D. properties file   721 does not exist.
 End of G2Drv F.D. properties file   722 does not exist.
 End of G2Drv F.D. properties file   788 does not exist.
          IDoAtm=11111111111111111111111111111111111111111111111111
 NEqPCM:  Using equilibrium solvation (IEInf=0, Eps=   7.0000, EpsInf=   1.8534)
          Differentiating once with respect to nuclear coordinates.
 CalDSu exits because no D1Ps are significant.
          There are   153 degrees of freedom in the 1st order CPHF.  IDoFFX=6 NUNeed=     0.
    150 vectors produced by pass  0 Test12= 1.07D-13 1.00D-09 XBig12= 4.42D-01 2.22D-01.
 AX will form    50 AO Fock derivatives at one time.
    150 vectors produced by pass  1 Test12= 1.07D-13 1.00D-09 XBig12= 3.01D-02 3.13D-02.
    148 vectors produced by pass  2 Test12= 1.07D-13 1.00D-09 XBig12= 6.90D-04 6.24D-03.
    147 vectors produced by pass  3 Test12= 1.07D-13 1.00D-09 XBig12= 6.79D-06 4.55D-04.
    147 vectors produced by pass  4 Test12= 1.07D-13 1.00D-09 XBig12= 5.16D-08 2.30D-05.
    145 vectors produced by pass  5 Test12= 1.07D-13 1.00D-09 XBig12= 2.98D-10 1.76D-06.
    111 vectors produced by pass  6 Test12= 1.07D-13 1.00D-09 XBig12= 1.19D-12 8.65D-08.
     26 vectors produced by pass  7 Test12= 1.07D-13 1.00D-09 XBig12= 5.26D-15 1.32D-08.
     13 vectors produced by pass  8 Test12= 1.07D-13 1.00D-09 XBig12= 3.13D-15 3.15D-09.
      8 vectors produced by pass  9 Test12= 1.07D-13 1.00D-09 XBig12= 1.91D-15 2.26D-09.
      5 vectors produced by pass 10 Test12= 1.07D-13 1.00D-09 XBig12= 1.40D-15 1.96D-09.
      4 vectors produced by pass 11 Test12= 1.07D-13 1.00D-09 XBig12= 1.07D-15 1.58D-09.
      3 vectors produced by pass 12 Test12= 1.07D-13 1.00D-09 XBig12= 1.12D-15 1.83D-09.
      2 vectors produced by pass 13 Test12= 1.07D-13 1.00D-09 XBig12= 5.61D-16 1.40D-09.
 InvSVY:  IOpt=1 It=  1 EMax= 9.99D-16
 Solved reduced A of dimension  1059 with   153 vectors.
 End of Minotr F.D. properties file   721 does not exist.
 End of Minotr F.D. properties file   722 does not exist.
 End of Minotr F.D. properties file   788 does not exist.

 **********************************************************************

            Population analysis using the SCF density.

 **********************************************************************

 Alpha  occ. eigenvalues --  -19.19645 -19.17074 -19.16892 -19.16452 -19.13880
 Alpha  occ. eigenvalues --  -19.13644 -19.11503 -19.10363 -14.47587 -10.27115
 Alpha  occ. eigenvalues --  -10.26383 -10.25581 -10.25092 -10.23814 -10.23472
 Alpha  occ. eigenvalues --  -10.20984 -10.20940 -10.20772 -10.20577 -10.20045
 Alpha  occ. eigenvalues --  -10.19589 -10.19162 -10.18989 -10.18621 -10.18614
 Alpha  occ. eigenvalues --  -10.18565 -10.18462 -10.18318 -10.18207 -10.17815
 Alpha  occ. eigenvalues --   -1.21382  -1.09002  -1.08547  -1.05448  -1.05361
 Alpha  occ. eigenvalues --   -1.05172  -1.04196  -1.03831  -0.87543  -0.87156
 Alpha  occ. eigenvalues --   -0.82290  -0.81296  -0.78169  -0.76807  -0.76476
 Alpha  occ. eigenvalues --   -0.75230  -0.73590  -0.69366  -0.69124  -0.67316
 Alpha  occ. eigenvalues --   -0.66602  -0.65363  -0.63442  -0.62458  -0.59411
 Alpha  occ. eigenvalues --   -0.59033  -0.57240  -0.56389  -0.55897  -0.55536
 Alpha  occ. eigenvalues --   -0.52531  -0.51952  -0.51700  -0.50963  -0.50682
 Alpha  occ. eigenvalues --   -0.50263  -0.49487  -0.48387  -0.48033  -0.47684
 Alpha  occ. eigenvalues --   -0.46946  -0.46672  -0.46426  -0.44793  -0.44659
 Alpha  occ. eigenvalues --   -0.44374  -0.44081  -0.43634  -0.43172  -0.42674
 Alpha  occ. eigenvalues --   -0.42341  -0.41945  -0.41549  -0.41300  -0.39568
 Alpha  occ. eigenvalues --   -0.39353  -0.38506  -0.38245  -0.38138  -0.38053
 Alpha  occ. eigenvalues --   -0.37507  -0.37175  -0.36938  -0.36386  -0.34710
 Alpha  occ. eigenvalues --   -0.34435  -0.33979  -0.30124  -0.29757  -0.29518
 Alpha  occ. eigenvalues --   -0.28835  -0.28591  -0.27222  -0.26525  -0.25853
 Alpha  occ. eigenvalues --   -0.25720  -0.25503  -0.22746  -0.22341
 Alpha virt. eigenvalues --   -0.08130  -0.07587  -0.06719  -0.01850  -0.01586
 Alpha virt. eigenvalues --    0.00396   0.00931   0.03485   0.03639   0.05065
 Alpha virt. eigenvalues --    0.06176   0.06337   0.06603   0.07133   0.07252
 Alpha virt. eigenvalues --    0.07401   0.08096   0.08898   0.10107   0.11026
 Alpha virt. eigenvalues --    0.11682   0.12130   0.12266   0.12965   0.13953
 Alpha virt. eigenvalues --    0.14426   0.14947   0.15408   0.15831   0.16238
 Alpha virt. eigenvalues --    0.16499   0.16645   0.17303   0.18452   0.20389
 Alpha virt. eigenvalues --    0.20792   0.21822   0.22379   0.23634   0.24680
 Alpha virt. eigenvalues --    0.25083   0.25377   0.26116   0.26886   0.27605
 Alpha virt. eigenvalues --    0.28068   0.28931   0.29279   0.30007   0.30497
 Alpha virt. eigenvalues --    0.30901   0.31357   0.32155   0.32412   0.33010
 Alpha virt. eigenvalues --    0.34500   0.34775   0.35090   0.35435   0.35703
 Alpha virt. eigenvalues --    0.36004   0.36819   0.37119   0.37588   0.38180
 Alpha virt. eigenvalues --    0.38558   0.38904   0.39399   0.39651   0.39802
 Alpha virt. eigenvalues --    0.40583   0.41200   0.41516   0.42050   0.42425
 Alpha virt. eigenvalues --    0.42778   0.43019   0.43404   0.43639   0.44304
 Alpha virt. eigenvalues --    0.44684   0.45004   0.45288   0.45814   0.46277
 Alpha virt. eigenvalues --    0.47200   0.47418   0.48444   0.48946   0.49487
 Alpha virt. eigenvalues --    0.49594   0.50171   0.50765   0.51349   0.51887
 Alpha virt. eigenvalues --    0.52413   0.53494   0.53821   0.54108   0.55335
 Alpha virt. eigenvalues --    0.55598   0.56129   0.56666   0.57554   0.57778
 Alpha virt. eigenvalues --    0.57971   0.58330   0.58663   0.58741   0.59050
 Alpha virt. eigenvalues --    0.59294   0.59768   0.60591   0.61431   0.61540
 Alpha virt. eigenvalues --    0.61916   0.62222   0.62462   0.62855   0.63123
 Alpha virt. eigenvalues --    0.63316   0.63720   0.64039   0.64894   0.65184
 Alpha virt. eigenvalues --    0.65944   0.66962   0.67868   0.68428   0.68741
 Alpha virt. eigenvalues --    0.69749   0.70065   0.71309   0.71549   0.73266
 Alpha virt. eigenvalues --    0.74706   0.74901   0.75570   0.76916   0.77428
 Alpha virt. eigenvalues --    0.77862   0.78443   0.78953   0.79109   0.79427
 Alpha virt. eigenvalues --    0.79710   0.80007   0.80281   0.80757   0.80931
 Alpha virt. eigenvalues --    0.82186   0.82509   0.83252   0.83583   0.84522
 Alpha virt. eigenvalues --    0.84869   0.85724   0.85832   0.87291   0.87928
 Alpha virt. eigenvalues --    0.88263   0.88912   0.89874   0.91051   0.91505
 Alpha virt. eigenvalues --    0.91961   0.93591   0.93837   0.94398   0.94475
 Alpha virt. eigenvalues --    0.95642   0.96728   0.97033   0.97131   0.97745
 Alpha virt. eigenvalues --    0.98226   0.99900   1.00394   1.01320   1.02339
 Alpha virt. eigenvalues --    1.03539   1.04141   1.05291   1.05492   1.06882
 Alpha virt. eigenvalues --    1.08981   1.09399   1.09850   1.11779   1.13154
 Alpha virt. eigenvalues --    1.13429   1.14295   1.14444   1.14626   1.15189
 Alpha virt. eigenvalues --    1.16247   1.17756   1.19108   1.19589   1.20064
 Alpha virt. eigenvalues --    1.20965   1.22697   1.22999   1.23658   1.23701
 Alpha virt. eigenvalues --    1.25520   1.26192   1.28422   1.28497   1.31032
 Alpha virt. eigenvalues --    1.33527   1.36070   1.36744   1.37668   1.37877
 Alpha virt. eigenvalues --    1.38710   1.43486   1.44292   1.44698   1.45268
 Alpha virt. eigenvalues --    1.46397   1.46858   1.48467   1.49346   1.49794
 Alpha virt. eigenvalues --    1.50244   1.50745   1.51532   1.52554   1.52972
 Alpha virt. eigenvalues --    1.53157   1.54392   1.54741   1.55120   1.55587
 Alpha virt. eigenvalues --    1.56308   1.56545   1.57999   1.58706   1.59631
 Alpha virt. eigenvalues --    1.62028   1.62275   1.62762   1.63741   1.65790
 Alpha virt. eigenvalues --    1.67221   1.67670   1.68365   1.68739   1.69821
 Alpha virt. eigenvalues --    1.70553   1.70594   1.71791   1.72636   1.74157
 Alpha virt. eigenvalues --    1.75110   1.75770   1.76372   1.76491   1.78015
 Alpha virt. eigenvalues --    1.78475   1.79277   1.79777   1.82296   1.82669
 Alpha virt. eigenvalues --    1.82740   1.83290   1.83563   1.83830   1.85375
 Alpha virt. eigenvalues --    1.85756   1.87369   1.88262   1.90250   1.90540
 Alpha virt. eigenvalues --    1.93497   1.94854   1.95487   1.97001   1.97813
 Alpha virt. eigenvalues --    2.01052   2.02017   2.02159   2.02532   2.04210
 Alpha virt. eigenvalues --    2.08522   2.09284   2.09997   2.11607   2.13534
 Alpha virt. eigenvalues --    2.14632   2.16404   2.16680   2.18336   2.20546
 Alpha virt. eigenvalues --    2.22499   2.23654   2.24918   2.27712   2.28147
 Alpha virt. eigenvalues --    2.28911   2.30362   2.30599   2.30744   2.31158
 Alpha virt. eigenvalues --    2.31339   2.33180   2.34078   2.35290   2.37217
 Alpha virt. eigenvalues --    2.38617   2.38801   2.40110   2.40653   2.41783
 Alpha virt. eigenvalues --    2.44097   2.45342   2.49205   2.50323   2.50631
 Alpha virt. eigenvalues --    2.51687   2.52615   2.53095   2.56769   2.58351
 Alpha virt. eigenvalues --    2.62970   2.63451   2.64268   2.64587   2.65203
 Alpha virt. eigenvalues --    2.65741   2.67965   2.69214   2.71924   2.73648
 Alpha virt. eigenvalues --    2.74000   2.75515   2.75642   2.76103   2.77841
 Alpha virt. eigenvalues --    2.77897   2.80381   2.81036   2.81377   2.82788
 Alpha virt. eigenvalues --    2.84296   2.84982   2.86898   2.88819   2.89361
 Alpha virt. eigenvalues --    2.89677   2.90818   2.91702   2.93353   2.94295
 Alpha virt. eigenvalues --    2.94491   2.94944   2.95787   2.96150   2.98240
 Alpha virt. eigenvalues --    2.98638   2.99842   3.00866   3.01099   3.02757
 Alpha virt. eigenvalues --    3.03142   3.03176   3.07168   3.08395   3.08655
 Alpha virt. eigenvalues --    3.11402   3.12740   3.14109   3.14348   3.14486
 Alpha virt. eigenvalues --    3.14599   3.15374   3.15832   3.16087   3.17197
 Alpha virt. eigenvalues --    3.17961   3.18142   3.18998   3.20212   3.24000
 Alpha virt. eigenvalues --    3.24672   3.25145   3.25404   3.29040   3.29235
 Alpha virt. eigenvalues --    3.29391   3.29597   3.30993   3.31077   3.31779
 Alpha virt. eigenvalues --    3.32610   3.32933   3.33210   3.34561   3.34931
 Alpha virt. eigenvalues --    3.38473   3.39518   3.43644   3.45311   3.45952
 Alpha virt. eigenvalues --    3.47217   3.48006   3.49172   3.51216   3.51407
 Alpha virt. eigenvalues --    3.54010   3.57627   3.59335   3.60588   3.64260
 Alpha virt. eigenvalues --    3.64813   3.70629   3.71240   3.71757   3.85379
 Alpha virt. eigenvalues --    3.86775   3.87015   3.89406   3.89584   3.93607
 Alpha virt. eigenvalues --    3.94134   3.98957   4.00771   4.05683   4.07040
 Alpha virt. eigenvalues --    4.07266   4.14408   4.30811   4.44659   4.53946
 Alpha virt. eigenvalues --    4.77887   4.78437   4.79154   4.80297   4.80428
 Alpha virt. eigenvalues --    4.80818   4.83476   4.86632   4.90617   4.91802
 Alpha virt. eigenvalues --    4.96344   4.96553   5.04334   5.05444   5.10667
 Alpha virt. eigenvalues --    5.10899   5.15920   5.16209   5.34941   5.49908
 Alpha virt. eigenvalues --    5.50081   5.58665   5.60231   5.68016   5.68131
 Alpha virt. eigenvalues --    5.89425  23.22366  23.24188  23.41952  23.42158
 Alpha virt. eigenvalues --   23.54088  23.56240  23.71311  23.77588  23.78348
 Alpha virt. eigenvalues --   23.81426  23.85342  23.86184  23.87028  23.97820
 Alpha virt. eigenvalues --   23.98548  24.05092  24.05195  24.11256  24.11620
 Alpha virt. eigenvalues --   24.13275  24.14456  35.25190  49.77049  49.83602
 Alpha virt. eigenvalues --   49.85987  49.86285  49.92548  49.92777  49.96500
 Alpha virt. eigenvalues --   49.98018
  Beta  occ. eigenvalues --  -19.18281 -19.17009 -19.16868 -19.16446 -19.13878
  Beta  occ. eigenvalues --  -19.13643 -19.11279 -19.10343 -14.47599 -10.27166
  Beta  occ. eigenvalues --  -10.26403 -10.25556 -10.25085 -10.23814 -10.23472
  Beta  occ. eigenvalues --  -10.20940 -10.20772 -10.20573 -10.20317 -10.20042
  Beta  occ. eigenvalues --  -10.19572 -10.19158 -10.18977 -10.18622 -10.18611
  Beta  occ. eigenvalues --  -10.18562 -10.18406 -10.18318 -10.18206 -10.17776
  Beta  occ. eigenvalues --   -1.20754  -1.08957  -1.08535  -1.05440  -1.05170
  Beta  occ. eigenvalues --   -1.04977  -1.03853  -1.01781  -0.87499  -0.87142
  Beta  occ. eigenvalues --   -0.81982  -0.81208  -0.77363  -0.76789  -0.76470
  Beta  occ. eigenvalues --   -0.75142  -0.73040  -0.69357  -0.69122  -0.67269
  Beta  occ. eigenvalues --   -0.66462  -0.64445  -0.63392  -0.62339  -0.59374
  Beta  occ. eigenvalues --   -0.59010  -0.57136  -0.56315  -0.55804  -0.53833
  Beta  occ. eigenvalues --   -0.52308  -0.51905  -0.51634  -0.50822  -0.49854
  Beta  occ. eigenvalues --   -0.49420  -0.49264  -0.48197  -0.47976  -0.47611
  Beta  occ. eigenvalues --   -0.46654  -0.46571  -0.46417  -0.44645  -0.44617
  Beta  occ. eigenvalues --   -0.44342  -0.43975  -0.43333  -0.43080  -0.42533
  Beta  occ. eigenvalues --   -0.41930  -0.41765  -0.41461  -0.41203  -0.39513
  Beta  occ. eigenvalues --   -0.38477  -0.38257  -0.38131  -0.38043  -0.37563
  Beta  occ. eigenvalues --   -0.37214  -0.37027  -0.36674  -0.36272  -0.34667
  Beta  occ. eigenvalues --   -0.34416  -0.32957  -0.29831  -0.29458  -0.28825
  Beta  occ. eigenvalues --   -0.28590  -0.26888  -0.26044  -0.25763  -0.25516
  Beta  occ. eigenvalues --   -0.25452  -0.22537  -0.22283
  Beta virt. eigenvalues --   -0.18012  -0.07920  -0.07386  -0.06576  -0.01773
  Beta virt. eigenvalues --   -0.01565   0.00554   0.01085   0.03491   0.03642
  Beta virt. eigenvalues --    0.05151   0.06200   0.06386   0.06732   0.07269
  Beta virt. eigenvalues --    0.07287   0.07492   0.08121   0.08976   0.10126
  Beta virt. eigenvalues --    0.11052   0.11701   0.12136   0.12270   0.13029
  Beta virt. eigenvalues --    0.14003   0.14448   0.15107   0.15532   0.15884
  Beta virt. eigenvalues --    0.16356   0.16529   0.17141   0.17581   0.18782
  Beta virt. eigenvalues --    0.20519   0.21024   0.21956   0.22845   0.23874
  Beta virt. eigenvalues --    0.24795   0.25143   0.25541   0.26170   0.27052
  Beta virt. eigenvalues --    0.27776   0.28145   0.29131   0.29377   0.30037
  Beta virt. eigenvalues --    0.30518   0.30993   0.31407   0.32248   0.32444
  Beta virt. eigenvalues --    0.33219   0.34609   0.34845   0.35172   0.35464
  Beta virt. eigenvalues --    0.35739   0.36024   0.36889   0.37173   0.37688
  Beta virt. eigenvalues --    0.38217   0.38797   0.39026   0.39490   0.39718
  Beta virt. eigenvalues --    0.39849   0.40643   0.41284   0.41714   0.42092
  Beta virt. eigenvalues --    0.42456   0.42795   0.43102   0.43480   0.43702
  Beta virt. eigenvalues --    0.44341   0.44733   0.45050   0.45359   0.45938
  Beta virt. eigenvalues --    0.46354   0.47247   0.47516   0.48571   0.48991
  Beta virt. eigenvalues --    0.49627   0.49775   0.50662   0.50865   0.51369
  Beta virt. eigenvalues --    0.51946   0.52537   0.53580   0.53874   0.54144
  Beta virt. eigenvalues --    0.55391   0.55928   0.56295   0.56785   0.57615
  Beta virt. eigenvalues --    0.57797   0.58069   0.58340   0.58728   0.58796
  Beta virt. eigenvalues --    0.59143   0.59394   0.59803   0.60627   0.61500
  Beta virt. eigenvalues --    0.61686   0.61978   0.62333   0.62516   0.62940
  Beta virt. eigenvalues --    0.63221   0.63342   0.63802   0.64092   0.64959
  Beta virt. eigenvalues --    0.65280   0.65998   0.67084   0.68022   0.68520
  Beta virt. eigenvalues --    0.68810   0.69830   0.70199   0.71521   0.71743
  Beta virt. eigenvalues --    0.73580   0.74725   0.74962   0.76061   0.77062
  Beta virt. eigenvalues --    0.77535   0.77911   0.78477   0.78980   0.79208
  Beta virt. eigenvalues --    0.79458   0.79745   0.80166   0.80330   0.80803
  Beta virt. eigenvalues --    0.81075   0.82292   0.82555   0.83290   0.83632
  Beta virt. eigenvalues --    0.84638   0.84942   0.85849   0.86120   0.87387
  Beta virt. eigenvalues --    0.87997   0.88311   0.88977   0.89992   0.91179
  Beta virt. eigenvalues --    0.91654   0.92053   0.93673   0.93993   0.94538
  Beta virt. eigenvalues --    0.94586   0.95792   0.96887   0.97194   0.97213
  Beta virt. eigenvalues --    0.97970   0.98289   1.00086   1.00829   1.01534
  Beta virt. eigenvalues --    1.02561   1.03615   1.04266   1.05346   1.05596
  Beta virt. eigenvalues --    1.06945   1.09019   1.09486   1.09905   1.11965
  Beta virt. eigenvalues --    1.13328   1.13467   1.14354   1.14517   1.14662
  Beta virt. eigenvalues --    1.15241   1.16326   1.17913   1.19180   1.19698
  Beta virt. eigenvalues --    1.20226   1.21213   1.22751   1.23014   1.23671
  Beta virt. eigenvalues --    1.23754   1.25605   1.26270   1.28461   1.28580
  Beta virt. eigenvalues --    1.31363   1.34030   1.36184   1.36855   1.37739
  Beta virt. eigenvalues --    1.37935   1.39010   1.43626   1.44348   1.44927
  Beta virt. eigenvalues --    1.45379   1.46443   1.46874   1.49078   1.49551
  Beta virt. eigenvalues --    1.49833   1.50381   1.50857   1.51595   1.52609
  Beta virt. eigenvalues --    1.53102   1.53227   1.54495   1.55042   1.55184
  Beta virt. eigenvalues --    1.55658   1.56412   1.56799   1.58111   1.58956
  Beta virt. eigenvalues --    1.59773   1.62206   1.62410   1.62944   1.63950
  Beta virt. eigenvalues --    1.66029   1.67270   1.67850   1.68573   1.68783
  Beta virt. eigenvalues --    1.70031   1.70650   1.70731   1.71994   1.73079
  Beta virt. eigenvalues --    1.74269   1.75189   1.75807   1.76423   1.76550
  Beta virt. eigenvalues --    1.78090   1.78618   1.79322   1.79941   1.82550
  Beta virt. eigenvalues --    1.82758   1.82807   1.83394   1.83613   1.83922
  Beta virt. eigenvalues --    1.85570   1.86004   1.87460   1.88517   1.90293
  Beta virt. eigenvalues --    1.90557   1.93655   1.94898   1.95571   1.97110
  Beta virt. eigenvalues --    1.98163   2.01167   2.02151   2.02328   2.02596
  Beta virt. eigenvalues --    2.04438   2.08708   2.09416   2.10109   2.11723
  Beta virt. eigenvalues --    2.13636   2.14735   2.16421   2.16735   2.18523
  Beta virt. eigenvalues --    2.20934   2.22604   2.23676   2.25012   2.27776
  Beta virt. eigenvalues --    2.28174   2.28984   2.30422   2.30653   2.30775
  Beta virt. eigenvalues --    2.31188   2.31368   2.33226   2.34113   2.35352
  Beta virt. eigenvalues --    2.37278   2.38625   2.38807   2.40132   2.40680
  Beta virt. eigenvalues --    2.42263   2.44157   2.45444   2.49407   2.50399
  Beta virt. eigenvalues --    2.50651   2.51853   2.52652   2.53935   2.56887
  Beta virt. eigenvalues --    2.58619   2.63009   2.63479   2.64319   2.64685
  Beta virt. eigenvalues --    2.65243   2.65776   2.68072   2.69249   2.72036
  Beta virt. eigenvalues --    2.73789   2.74103   2.75630   2.75879   2.77815
  Beta virt. eigenvalues --    2.77948   2.79396   2.80591   2.81095   2.81661
  Beta virt. eigenvalues --    2.83023   2.84363   2.85146   2.87180   2.89169
  Beta virt. eigenvalues --    2.90020   2.90792   2.91109   2.92112   2.93525
  Beta virt. eigenvalues --    2.94359   2.94539   2.95202   2.95842   2.96171
  Beta virt. eigenvalues --    2.98322   2.98659   2.99974   3.01015   3.01409
  Beta virt. eigenvalues --    3.02852   3.03187   3.03667   3.07805   3.08431
  Beta virt. eigenvalues --    3.08871   3.11544   3.12807   3.14190   3.14371
  Beta virt. eigenvalues --    3.14530   3.14629   3.15786   3.16113   3.16691
  Beta virt. eigenvalues --    3.17349   3.18098   3.18307   3.19082   3.20353
  Beta virt. eigenvalues --    3.24698   3.25052   3.25557   3.26136   3.29116
  Beta virt. eigenvalues --    3.29269   3.29447   3.29607   3.31058   3.31144
  Beta virt. eigenvalues --    3.31964   3.32672   3.32957   3.33239   3.34600
  Beta virt. eigenvalues --    3.34967   3.38527   3.39556   3.43793   3.45345
  Beta virt. eigenvalues --    3.45982   3.47257   3.48039   3.49286   3.51523
  Beta virt. eigenvalues --    3.51847   3.54114   3.58198   3.59626   3.60774
  Beta virt. eigenvalues --    3.64332   3.64874   3.70655   3.71249   3.71784
  Beta virt. eigenvalues --    3.85682   3.86783   3.87016   3.89431   3.89601
  Beta virt. eigenvalues --    3.93643   3.94165   3.99133   4.01200   4.05785
  Beta virt. eigenvalues --    4.07058   4.07271   4.14720   4.31238   4.44715
  Beta virt. eigenvalues --    4.54093   4.78067   4.78491   4.80122   4.80293
  Beta virt. eigenvalues --    4.80551   4.80844   4.85430   4.89250   4.91180
  Beta virt. eigenvalues --    4.92444   4.96355   4.96557   5.04443   5.05936
  Beta virt. eigenvalues --    5.10685   5.10904   5.15925   5.16210   5.35879
  Beta virt. eigenvalues --    5.49925   5.50093   5.58771   5.60363   5.68022
  Beta virt. eigenvalues --    5.68133   5.89941  23.22385  23.24197  23.41952
  Beta virt. eigenvalues --   23.42158  23.54150  23.56260  23.71991  23.77594
  Beta virt. eigenvalues --   23.78350  23.81394  23.85344  23.86201  23.87027
  Beta virt. eigenvalues --   23.97837  23.98553  24.05096  24.05196  24.11265
  Beta virt. eigenvalues --   24.11623  24.13311  24.14480  35.25180  49.78234
  Beta virt. eigenvalues --   49.83841  49.86007  49.86290  49.92556  49.92779
  Beta virt. eigenvalues --   49.96722  49.98043
          Condensed to atoms (all electrons):
               1          2          3          4          5          6
     1  C    5.127238   0.389438   0.471949  -0.032894  -0.021063   0.006184
     2  H    0.389438   0.454565  -0.046316   0.004319  -0.013244   0.000229
     3  C    0.471949  -0.046316   5.347911   0.353324   0.423172  -0.097490
     4  H   -0.032894   0.004319   0.353324   0.467726  -0.042961   0.015622
     5  C   -0.021063  -0.013244   0.423172  -0.042961   4.525703   0.688551
     6  O    0.006184   0.000229  -0.097490   0.015622   0.688551   7.816147
     7  C    0.410300  -0.054138  -0.017877  -0.015852   0.002697  -0.000156
     8  C   -0.060483  -0.006850   0.006226   0.000170  -0.000116   0.000001
     9  C   -0.060255   0.007760  -0.012800   0.004606   0.000005  -0.000015
    10  C    0.009834   0.000683  -0.000532   0.000061   0.000004   0.000000
    11  H   -0.004439   0.004017   0.000561   0.000010  -0.000054  -0.000000
    12  C    0.008006  -0.000084   0.000331   0.000560  -0.000036  -0.000000
    13  H   -0.016455   0.000033   0.006561  -0.002688   0.000064  -0.000166
    14  C   -0.001012  -0.000038   0.000024  -0.000163   0.000000  -0.000000
    15  H   -0.000429  -0.000035   0.000008   0.000000  -0.000000   0.000000
    16  O   -0.000003  -0.000000   0.000000   0.000000  -0.000000   0.000000
    17  H   -0.000006  -0.000000   0.000000  -0.000000   0.000000   0.000000
    18  O   -0.000148   0.000002  -0.000002  -0.000112  -0.000000   0.000000
    19  C    0.000014  -0.000000  -0.000003   0.000003  -0.000000   0.000000
    20  H    0.000022   0.000000  -0.000002   0.000012   0.000000   0.000000
    21  H   -0.000000   0.000000  -0.000000   0.000001  -0.000000  -0.000000
    22  H   -0.000003  -0.000000  -0.000000  -0.000003  -0.000000   0.000000
    23  C   -0.000041   0.000042  -0.000579   0.000011  -0.002472  -0.000321
    24  H   -0.000007   0.000007   0.000620  -0.000019  -0.000670   0.000358
    25  C   -0.000047  -0.000254   0.000275  -0.000005  -0.002464  -0.000494
    26  H    0.000002   0.000001   0.000048  -0.000003  -0.000165   0.000476
    27  C    0.000301   0.000818   0.002947  -0.000189  -0.020960   0.018767
    28  O   -0.000011  -0.000027  -0.000214   0.000008   0.000730  -0.002022
    29  C   -0.000002   0.000000  -0.000006  -0.000001   0.000058   0.000025
    30  C    0.000000   0.000001  -0.000001   0.000000  -0.000004  -0.000000
    31  C    0.000000  -0.000000  -0.000000   0.000000  -0.000003  -0.000001
    32  C   -0.000000   0.000000  -0.000000   0.000000  -0.000000  -0.000000
    33  H    0.000002  -0.000000  -0.000001   0.000000  -0.000010  -0.000002
    34  C    0.000000  -0.000000   0.000000  -0.000000   0.000000  -0.000000
    35  H   -0.000000  -0.000000  -0.000000   0.000000  -0.000002  -0.000002
    36  C   -0.000000   0.000000  -0.000000  -0.000000  -0.000000   0.000000
    37  H   -0.000000   0.000000  -0.000000  -0.000000   0.000000   0.000000
    38  O    0.000000   0.000000   0.000000  -0.000000   0.000000   0.000000
    39  H    0.000000   0.000000  -0.000000   0.000000  -0.000000   0.000000
    40  O   -0.000000   0.000000   0.000000  -0.000000  -0.000000   0.000000
    41  C   -0.000000  -0.000000   0.000000  -0.000000  -0.000000   0.000000
    42  H    0.000000   0.000000  -0.000000  -0.000000   0.000000   0.000000
    43  H    0.000000  -0.000000  -0.000000   0.000000   0.000000   0.000000
    44  H   -0.000000   0.000000  -0.000000   0.000000  -0.000000  -0.000000
    45  C   -0.005091   0.008536  -0.139077   0.016333   0.111632  -0.122396
    46  H   -0.000604  -0.000601  -0.001536  -0.000373  -0.015566   0.001592
    47  H   -0.003696   0.000661  -0.001938   0.000671  -0.002398  -0.001610
    48  O    0.001133   0.006681  -0.001416  -0.000137   0.006147   0.000099
    49  O   -0.000019  -0.000123  -0.000068  -0.000013   0.000007   0.000001
    50  N   -0.001205   0.000325   0.001643   0.000336   0.000405  -0.000155
               7          8          9         10         11         12
     1  C    0.410300  -0.060483  -0.060255   0.009834  -0.004439   0.008006
     2  H   -0.054138  -0.006850   0.007760   0.000683   0.004017  -0.000084
     3  C   -0.017877   0.006226  -0.012800  -0.000532   0.000561   0.000331
     4  H   -0.015852   0.000170   0.004606   0.000061   0.000010   0.000560
     5  C    0.002697  -0.000116   0.000005   0.000004  -0.000054  -0.000036
     6  O   -0.000156   0.000001  -0.000015   0.000000  -0.000000  -0.000000
     7  C    4.841707   0.506293   0.428496  -0.023539  -0.045810  -0.006260
     8  C    0.506293   5.089373  -0.089044   0.418722   0.393606  -0.031333
     9  C    0.428496  -0.089044   5.205009  -0.034489   0.006620   0.522883
    10  C   -0.023539   0.418722  -0.034489   5.317621  -0.036195  -0.057045
    11  H   -0.045810   0.393606   0.006620  -0.036195   0.451358  -0.000892
    12  C   -0.006260  -0.031333   0.522883  -0.057045  -0.000892   4.947431
    13  H   -0.037566   0.008058   0.378685  -0.002608  -0.000189  -0.056825
    14  C   -0.047144   0.004153  -0.064426   0.357131   0.005824   0.281641
    15  H    0.004454  -0.024589   0.000368   0.382455  -0.005963   0.003911
    16  O   -0.000487   0.007857   0.004002  -0.083974  -0.000097  -0.063459
    17  H   -0.000127   0.001467  -0.000100  -0.001060  -0.000031   0.008328
    18  O    0.005224  -0.000253  -0.060338   0.006682   0.000007   0.346506
    19  C   -0.000420   0.000144  -0.001407  -0.000739  -0.000001  -0.094292
    20  H   -0.001034  -0.000133   0.006638   0.000133  -0.000001   0.003568
    21  H    0.000041  -0.000010  -0.000405   0.000052  -0.000000   0.005019
    22  H    0.000119   0.000033  -0.000399  -0.000483   0.000004  -0.018721
    23  C   -0.000000   0.000000   0.000000  -0.000000   0.000000  -0.000000
    24  H    0.000007  -0.000002  -0.000000  -0.000000  -0.000001  -0.000000
    25  C    0.000001   0.000000  -0.000000   0.000000   0.000000  -0.000000
    26  H    0.000000  -0.000000   0.000000  -0.000000  -0.000000  -0.000000
    27  C   -0.000002  -0.000000   0.000001   0.000000   0.000000  -0.000000
    28  O   -0.000000   0.000000  -0.000000  -0.000000   0.000000  -0.000000
    29  C    0.000000   0.000000   0.000000  -0.000000  -0.000000   0.000000
    30  C   -0.000000   0.000000   0.000000   0.000000  -0.000000  -0.000000
    31  C   -0.000000  -0.000000  -0.000000   0.000000   0.000000  -0.000000
    32  C   -0.000000   0.000000   0.000000   0.000000  -0.000000  -0.000000
    33  H   -0.000000   0.000000  -0.000000   0.000000   0.000000  -0.000000
    34  C   -0.000000  -0.000000  -0.000000   0.000000   0.000000   0.000000
    35  H   -0.000000   0.000000  -0.000000   0.000000   0.000000  -0.000000
    36  C    0.000000   0.000000   0.000000  -0.000000  -0.000000  -0.000000
    37  H    0.000000  -0.000000   0.000000  -0.000000  -0.000000   0.000000
    38  O    0.000000  -0.000000   0.000000   0.000000  -0.000000   0.000000
    39  H    0.000000   0.000000  -0.000000  -0.000000  -0.000000  -0.000000
    40  O   -0.000000   0.000000   0.000000   0.000000  -0.000000   0.000000
    41  C   -0.000000   0.000000   0.000000   0.000000  -0.000000   0.000000
    42  H    0.000000  -0.000000   0.000000   0.000000  -0.000000  -0.000000
    43  H   -0.000000   0.000000  -0.000000   0.000000   0.000000   0.000000
    44  H    0.000000   0.000000  -0.000000  -0.000000  -0.000000  -0.000000
    45  C   -0.002578   0.000034  -0.000085   0.000000   0.000005  -0.000000
    46  H    0.000384   0.000037  -0.000003  -0.000001   0.000027   0.000000
    47  H   -0.000117  -0.000015  -0.000019  -0.000001   0.000036  -0.000001
    48  O   -0.000030  -0.000041   0.000005  -0.000000  -0.000055   0.000000
    49  O    0.000008   0.000001  -0.000000   0.000000   0.000002  -0.000000
    50  N   -0.000074  -0.000008  -0.000002  -0.000000   0.000002  -0.000000
              13         14         15         16         17         18
     1  C   -0.016455  -0.001012  -0.000429  -0.000003  -0.000006  -0.000148
     2  H    0.000033  -0.000038  -0.000035  -0.000000  -0.000000   0.000002
     3  C    0.006561   0.000024   0.000008   0.000000   0.000000  -0.000002
     4  H   -0.002688  -0.000163   0.000000   0.000000  -0.000000  -0.000112
     5  C    0.000064   0.000000  -0.000000  -0.000000   0.000000  -0.000000
     6  O   -0.000166  -0.000000   0.000000   0.000000   0.000000   0.000000
     7  C   -0.037566  -0.047144   0.004454  -0.000487  -0.000127   0.005224
     8  C    0.008058   0.004153  -0.024589   0.007857   0.001467  -0.000253
     9  C    0.378685  -0.064426   0.000368   0.004002  -0.000100  -0.060338
    10  C   -0.002608   0.357131   0.382455  -0.083974  -0.001060   0.006682
    11  H   -0.000189   0.005824  -0.005963  -0.000097  -0.000031   0.000007
    12  C   -0.056825   0.281641   0.003911  -0.063459   0.008328   0.346506
    13  H    0.463944   0.016277   0.000058  -0.000136   0.000055   0.010330
    14  C    0.016277   5.037610  -0.041206   0.341247  -0.061890  -0.072914
    15  H    0.000058  -0.041206   0.438206  -0.003667   0.004241  -0.000101
    16  O   -0.000136   0.341247  -0.003667   8.069840   0.276077   0.002619
    17  H    0.000055  -0.061890   0.004241   0.276077   0.342757  -0.000785
    18  O    0.010330  -0.072914  -0.000101   0.002619  -0.000785   7.955180
    19  C   -0.001037  -0.011918  -0.000009  -0.005219   0.000168   0.270400
    20  H    0.000005  -0.001303   0.000001  -0.000058  -0.000033  -0.038566
    21  H   -0.000322  -0.000034  -0.000000   0.000015  -0.000023  -0.023552
    22  H    0.000579   0.009696  -0.000003   0.012319   0.000319  -0.034551
    23  C   -0.000000  -0.000000   0.000000   0.000000   0.000000   0.000000
    24  H   -0.000000   0.000000  -0.000000  -0.000000  -0.000000  -0.000000
    25  C    0.000000   0.000000  -0.000000  -0.000000  -0.000000  -0.000000
    26  H    0.000000   0.000000   0.000000   0.000000   0.000000   0.000000
    27  C    0.000001   0.000000  -0.000000  -0.000000   0.000000  -0.000000
    28  O   -0.000000   0.000000  -0.000000   0.000000  -0.000000  -0.000000
    29  C    0.000000  -0.000000  -0.000000   0.000000  -0.000000   0.000000
    30  C   -0.000000  -0.000000   0.000000  -0.000000   0.000000  -0.000000
    31  C   -0.000000   0.000000  -0.000000   0.000000   0.000000  -0.000000
    32  C   -0.000000  -0.000000   0.000000   0.000000   0.000000   0.000000
    33  H    0.000000   0.000000   0.000000  -0.000000   0.000000   0.000000
    34  C    0.000000   0.000000  -0.000000   0.000000   0.000000   0.000000
    35  H   -0.000000   0.000000  -0.000000  -0.000000   0.000000  -0.000000
    36  C    0.000000  -0.000000   0.000000   0.000000  -0.000000   0.000000
    37  H   -0.000000  -0.000000   0.000000   0.000000  -0.000000  -0.000000
    38  O    0.000000   0.000000   0.000000   0.000000   0.000000   0.000000
    39  H   -0.000000  -0.000000   0.000000   0.000000   0.000000   0.000000
    40  O   -0.000000   0.000000   0.000000   0.000000   0.000000   0.000000
    41  C    0.000000   0.000000  -0.000000   0.000000   0.000000   0.000000
    42  H    0.000000   0.000000   0.000000   0.000000   0.000000   0.000000
    43  H   -0.000000   0.000000  -0.000000   0.000000   0.000000   0.000000
    44  H   -0.000000   0.000000   0.000000   0.000000   0.000000   0.000000
    45  C   -0.000136   0.000000  -0.000000  -0.000000   0.000000   0.000000
    46  H    0.000014   0.000000  -0.000000  -0.000000  -0.000000   0.000000
    47  H   -0.000007   0.000000  -0.000000  -0.000000  -0.000000  -0.000000
    48  O    0.000001  -0.000000  -0.000000   0.000000  -0.000000  -0.000000
    49  O    0.000000  -0.000000  -0.000000   0.000000   0.000000   0.000000
    50  N   -0.000004   0.000000  -0.000000  -0.000000   0.000000  -0.000000
              19         20         21         22         23         24
     1  C    0.000014   0.000022  -0.000000  -0.000003  -0.000041  -0.000007
     2  H   -0.000000   0.000000   0.000000  -0.000000   0.000042   0.000007
     3  C   -0.000003  -0.000002  -0.000000  -0.000000  -0.000579   0.000620
     4  H    0.000003   0.000012   0.000001  -0.000003   0.000011  -0.000019
     5  C   -0.000000   0.000000  -0.000000  -0.000000  -0.002472  -0.000670
     6  O    0.000000   0.000000  -0.000000   0.000000  -0.000321   0.000358
     7  C   -0.000420  -0.001034   0.000041   0.000119  -0.000000   0.000007
     8  C    0.000144  -0.000133  -0.000010   0.000033   0.000000  -0.000002
     9  C   -0.001407   0.006638  -0.000405  -0.000399   0.000000  -0.000000
    10  C   -0.000739   0.000133   0.000052  -0.000483  -0.000000  -0.000000
    11  H   -0.000001  -0.000001  -0.000000   0.000004   0.000000  -0.000001
    12  C   -0.094292   0.003568   0.005019  -0.018721  -0.000000  -0.000000
    13  H   -0.001037   0.000005  -0.000322   0.000579  -0.000000  -0.000000
    14  C   -0.011918  -0.001303  -0.000034   0.009696  -0.000000   0.000000
    15  H   -0.000009   0.000001  -0.000000  -0.000003   0.000000  -0.000000
    16  O   -0.005219  -0.000058   0.000015   0.012319   0.000000  -0.000000
    17  H    0.000168  -0.000033  -0.000023   0.000319   0.000000  -0.000000
    18  O    0.270400  -0.038566  -0.023552  -0.034551   0.000000  -0.000000
    19  C    5.183547   0.364781   0.382773   0.370324   0.000000   0.000000
    20  H    0.364781   0.526704  -0.027860  -0.044287  -0.000000   0.000000
    21  H    0.382773  -0.027860   0.463513  -0.028168  -0.000000   0.000000
    22  H    0.370324  -0.044287  -0.028168   0.506068   0.000000  -0.000000
    23  C    0.000000  -0.000000  -0.000000   0.000000   5.171189   0.389617
    24  H    0.000000   0.000000   0.000000  -0.000000   0.389617   0.458437
    25  C   -0.000000  -0.000000   0.000000  -0.000000   0.416085  -0.053297
    26  H    0.000000  -0.000000   0.000000   0.000000  -0.034538   0.005430
    27  C   -0.000000   0.000000   0.000000   0.000000  -0.000640  -0.008940
    28  O    0.000000  -0.000000  -0.000000   0.000000   0.008180   0.000196
    29  C    0.000000  -0.000000  -0.000000   0.000000   0.404708  -0.051089
    30  C   -0.000000   0.000000  -0.000000   0.000000  -0.063291  -0.005744
    31  C   -0.000000   0.000000   0.000000  -0.000000  -0.061336   0.007366
    32  C    0.000000  -0.000000  -0.000000   0.000000   0.009676   0.000864
    33  H   -0.000000  -0.000000  -0.000000  -0.000000  -0.004956   0.004502
    34  C   -0.000000   0.000000   0.000000  -0.000000   0.008491  -0.000131
    35  H   -0.000000   0.000000   0.000000  -0.000000  -0.016714  -0.000006
    36  C    0.000000  -0.000000  -0.000000   0.000000  -0.001137  -0.000035
    37  H    0.000000   0.000000  -0.000000   0.000000  -0.000421  -0.000033
    38  O    0.000000   0.000000   0.000000   0.000000  -0.000002  -0.000000
    39  H    0.000000  -0.000000  -0.000000   0.000000  -0.000006  -0.000000
    40  O    0.000000   0.000000   0.000000   0.000000  -0.000146   0.000002
    41  C    0.000000  -0.000000   0.000000   0.000000   0.000014  -0.000000
    42  H    0.000000   0.000000   0.000000  -0.000000   0.000022   0.000000
    43  H    0.000000   0.000000   0.000000   0.000000  -0.000000   0.000000
    44  H    0.000000  -0.000000   0.000000   0.000000  -0.000003  -0.000000
    45  C   -0.000000   0.000000  -0.000000   0.000000  -0.006969   0.006123
    46  H    0.000000  -0.000000  -0.000000   0.000000  -0.002513   0.001063
    47  H    0.000000   0.000000  -0.000000   0.000000  -0.001036   0.000131
    48  O   -0.000000   0.000000   0.000000  -0.000000  -0.000007   0.000007
    49  O   -0.000000  -0.000000   0.000000  -0.000000   0.000000   0.000000
    50  N    0.000000  -0.000000  -0.000000   0.000000  -0.000001   0.000001
              25         26         27         28         29         30
     1  C   -0.000047   0.000002   0.000301  -0.000011  -0.000002   0.000000
     2  H   -0.000254   0.000001   0.000818  -0.000027   0.000000   0.000001
     3  C    0.000275   0.000048   0.002947  -0.000214  -0.000006  -0.000001
     4  H   -0.000005  -0.000003  -0.000189   0.000008  -0.000001   0.000000
     5  C   -0.002464  -0.000165  -0.020960   0.000730   0.000058  -0.000004
     6  O   -0.000494   0.000476   0.018767  -0.002022   0.000025  -0.000000
     7  C    0.000001   0.000000  -0.000002  -0.000000   0.000000  -0.000000
     8  C    0.000000  -0.000000  -0.000000   0.000000   0.000000   0.000000
     9  C   -0.000000   0.000000   0.000001  -0.000000   0.000000   0.000000
    10  C    0.000000  -0.000000   0.000000  -0.000000  -0.000000   0.000000
    11  H    0.000000  -0.000000   0.000000   0.000000  -0.000000  -0.000000
    12  C   -0.000000  -0.000000  -0.000000  -0.000000   0.000000  -0.000000
    13  H    0.000000   0.000000   0.000001  -0.000000   0.000000  -0.000000
    14  C    0.000000   0.000000   0.000000   0.000000  -0.000000  -0.000000
    15  H   -0.000000   0.000000  -0.000000  -0.000000  -0.000000   0.000000
    16  O   -0.000000   0.000000  -0.000000   0.000000   0.000000  -0.000000
    17  H   -0.000000   0.000000   0.000000  -0.000000  -0.000000   0.000000
    18  O   -0.000000   0.000000  -0.000000  -0.000000   0.000000  -0.000000
    19  C   -0.000000   0.000000  -0.000000   0.000000   0.000000  -0.000000
    20  H   -0.000000  -0.000000   0.000000  -0.000000  -0.000000   0.000000
    21  H    0.000000   0.000000   0.000000  -0.000000  -0.000000  -0.000000
    22  H   -0.000000   0.000000   0.000000   0.000000   0.000000   0.000000
    23  C    0.416085  -0.034538  -0.000640   0.008180   0.404708  -0.063291
    24  H   -0.053297   0.005430  -0.008940   0.000196  -0.051089  -0.005744
    25  C    5.482925   0.348221   0.349945  -0.098730  -0.018639   0.005666
    26  H    0.348221   0.477701  -0.039590   0.015379  -0.014753   0.000024
    27  C    0.349945  -0.039590   4.531025   0.663501   0.002652  -0.000123
    28  O   -0.098730   0.015379   0.663501   7.838977  -0.000189   0.000001
    29  C   -0.018639  -0.014753   0.002652  -0.000189   4.840562   0.509908
    30  C    0.005666   0.000024  -0.000123   0.000001   0.509908   5.096945
    31  C   -0.011819   0.004813  -0.000148  -0.000015   0.434528  -0.088039
    32  C   -0.000582   0.000064   0.000006   0.000000  -0.022220   0.415128
    33  H    0.000535  -0.000009  -0.000070  -0.000000  -0.045649   0.393590
    34  C    0.000376   0.000488  -0.000051  -0.000000  -0.007054  -0.032551
    35  H    0.006948  -0.002815  -0.000090  -0.000182  -0.037616   0.008401
    36  C    0.000031  -0.000165   0.000000  -0.000000  -0.048107   0.004695
    37  H    0.000008   0.000001   0.000000   0.000000   0.004474  -0.025334
    38  O    0.000000   0.000000  -0.000000   0.000000  -0.000454   0.007850
    39  H    0.000000  -0.000000   0.000000   0.000000  -0.000132   0.001471
    40  O   -0.000002  -0.000111  -0.000000   0.000000   0.005264  -0.000266
    41  C   -0.000003   0.000003  -0.000000   0.000000  -0.000422   0.000141
    42  H   -0.000002   0.000013   0.000000   0.000000  -0.001036  -0.000134
    43  H   -0.000000   0.000001  -0.000000  -0.000000   0.000042  -0.000010
    44  H   -0.000000  -0.000003  -0.000000   0.000000   0.000115   0.000030
    45  C   -0.134123   0.015751   0.167718  -0.111318  -0.001978   0.000015
    46  H    0.012038  -0.000569  -0.023222   0.002342   0.000461  -0.000022
    47  H    0.007191  -0.000396  -0.014864   0.017293  -0.000018  -0.000004
    48  O    0.000300   0.000006   0.009065  -0.000898  -0.000000   0.000000
    49  O    0.000000  -0.000000   0.000033  -0.000000   0.000000  -0.000000
    50  N   -0.000001   0.000000  -0.001037   0.000290  -0.000000  -0.000000
              31         32         33         34         35         36
     1  C    0.000000  -0.000000   0.000002   0.000000  -0.000000  -0.000000
     2  H   -0.000000   0.000000  -0.000000  -0.000000  -0.000000   0.000000
     3  C   -0.000000  -0.000000  -0.000001   0.000000  -0.000000  -0.000000
     4  H    0.000000   0.000000   0.000000  -0.000000   0.000000  -0.000000
     5  C   -0.000003  -0.000000  -0.000010   0.000000  -0.000002  -0.000000
     6  O   -0.000001  -0.000000  -0.000002  -0.000000  -0.000002   0.000000
     7  C   -0.000000  -0.000000  -0.000000  -0.000000  -0.000000   0.000000
     8  C   -0.000000   0.000000   0.000000  -0.000000   0.000000   0.000000
     9  C   -0.000000   0.000000  -0.000000  -0.000000  -0.000000   0.000000
    10  C    0.000000   0.000000   0.000000   0.000000   0.000000  -0.000000
    11  H    0.000000  -0.000000   0.000000   0.000000   0.000000  -0.000000
    12  C   -0.000000  -0.000000  -0.000000   0.000000  -0.000000  -0.000000
    13  H   -0.000000  -0.000000   0.000000   0.000000  -0.000000   0.000000
    14  C    0.000000  -0.000000   0.000000   0.000000   0.000000  -0.000000
    15  H   -0.000000   0.000000   0.000000  -0.000000  -0.000000   0.000000
    16  O    0.000000   0.000000  -0.000000   0.000000  -0.000000   0.000000
    17  H    0.000000   0.000000   0.000000   0.000000   0.000000  -0.000000
    18  O   -0.000000   0.000000   0.000000   0.000000  -0.000000   0.000000
    19  C   -0.000000   0.000000  -0.000000  -0.000000  -0.000000   0.000000
    20  H    0.000000  -0.000000  -0.000000   0.000000   0.000000  -0.000000
    21  H    0.000000  -0.000000  -0.000000   0.000000   0.000000  -0.000000
    22  H   -0.000000   0.000000  -0.000000  -0.000000  -0.000000   0.000000
    23  C   -0.061336   0.009676  -0.004956   0.008491  -0.016714  -0.001137
    24  H    0.007366   0.000864   0.004502  -0.000131  -0.000006  -0.000035
    25  C   -0.011819  -0.000582   0.000535   0.000376   0.006948   0.000031
    26  H    0.004813   0.000064  -0.000009   0.000488  -0.002815  -0.000165
    27  C   -0.000148   0.000006  -0.000070  -0.000051  -0.000090   0.000000
    28  O   -0.000015   0.000000  -0.000000  -0.000000  -0.000182  -0.000000
    29  C    0.434528  -0.022220  -0.045649  -0.007054  -0.037616  -0.048107
    30  C   -0.088039   0.415128   0.393590  -0.032551   0.008401   0.004695
[...]
    48  O(17)              0.00893      -5.41536      -1.93234      -1.80637
    49  O(17)              0.00080      -0.48417      -0.17276      -0.16150
    50  N(14)              0.00058       0.18895       0.06742       0.06303
 --------------------------------------------------------
       Center         ----  Spin Dipole Couplings  ----
                      3XX-RR        3YY-RR        3ZZ-RR
 --------------------------------------------------------
     1   Atom        0.000275      0.003873     -0.004148
     2   Atom        0.004338     -0.002649     -0.001690
     3   Atom       -0.004217      0.024901     -0.020684
     4   Atom        0.001868     -0.002138      0.000271
     5   Atom        0.013097     -0.067118      0.054021
     6   Atom       -0.022422      0.413366     -0.390944
     7   Atom        0.000169      0.002956     -0.003126
     8   Atom        0.000039      0.002633     -0.002672
     9   Atom        0.001160      0.000925     -0.002085
    10   Atom        0.000642     -0.000467     -0.000175
    11   Atom        0.000506     -0.000609      0.000103
    12   Atom        0.000926     -0.001000      0.000074
    13   Atom        0.001055     -0.000505     -0.000550
    14   Atom       -0.001087      0.005260     -0.004173
    15   Atom        0.000246     -0.000258      0.000012
    16   Atom       -0.002542      0.009038     -0.006496
    17   Atom       -0.000008     -0.000321      0.000330
    18   Atom        0.000548     -0.000262     -0.000285
    19   Atom        0.000210     -0.000061     -0.000149
    20   Atom        0.000136      0.000077     -0.000213
    21   Atom        0.000162     -0.000034     -0.000129
    22   Atom        0.000146      0.000012     -0.000159
    23   Atom        0.019713     -0.007038     -0.012675
    24   Atom        0.006823      0.002412     -0.009236
    25   Atom        0.017913     -0.012612     -0.005302
    26   Atom        0.004727     -0.001741     -0.002986
    27   Atom        0.015060      0.009717     -0.024777
    28   Atom        0.032885     -0.076304      0.043420
    29   Atom        0.003622     -0.001485     -0.002138
    30   Atom        0.000249      0.000186     -0.000436
    31   Atom        0.001768     -0.000903     -0.000865
    32   Atom        0.000282      0.000178     -0.000460
    33   Atom       -0.000151      0.001225     -0.001075
    34   Atom        0.000847     -0.000049     -0.000798
    35   Atom        0.001839     -0.000845     -0.000993
    36   Atom       -0.000081     -0.000579      0.000661
    37   Atom        0.000083      0.000277     -0.000360
    38   Atom       -0.000536     -0.000828      0.001364
    39   Atom        0.000119      0.000107     -0.000226
    40   Atom        0.000701     -0.000282     -0.000419
    41   Atom        0.000412     -0.000187     -0.000225
    42   Atom        0.000463     -0.000235     -0.000228
    43   Atom        0.000342     -0.000163     -0.000179
    44   Atom        0.000314     -0.000134     -0.000181
    45   Atom       -0.169075      0.563170     -0.394095
    46   Atom       -0.043650     -0.003297      0.046947
    47   Atom       -0.006034      0.015739     -0.009705
    48   Atom       -0.008015      0.048400     -0.040385
    49   Atom       -0.003102     -0.008347      0.011449
    50   Atom       -0.000101      0.003694     -0.003593
 --------------------------------------------------------
                        XY            XZ            YZ
 --------------------------------------------------------
     1   Atom        0.005853      0.002120      0.000389
     2   Atom        0.004968      0.005273      0.003090
     3   Atom       -0.018072     -0.003812     -0.003576
     4   Atom        0.002628     -0.003651     -0.001543
     5   Atom        0.035780     -0.013980      0.014124
     6   Atom       -0.585382     -0.064937      0.115351
     7   Atom        0.000050      0.000796      0.000575
     8   Atom       -0.002035      0.000785      0.000321
     9   Atom       -0.000968     -0.000323      0.000279
    10   Atom        0.000664      0.000337      0.000114
    11   Atom        0.000823      0.000920      0.000442
    12   Atom        0.000978      0.000099     -0.000109
    13   Atom        0.001114     -0.000545     -0.000278
    14   Atom       -0.004041     -0.000123      0.000673
    15   Atom        0.000351      0.000313      0.000153
    16   Atom       -0.007311     -0.000131      0.000759
    17   Atom        0.000200      0.000381      0.000160
    18   Atom        0.000371     -0.000151     -0.000134
    19   Atom        0.000294     -0.000086     -0.000084
    20   Atom        0.000393     -0.000090     -0.000125
    21   Atom        0.000242     -0.000107     -0.000084
    22   Atom        0.000287     -0.000043     -0.000091
    23   Atom       -0.000766     -0.008543      0.001712
    24   Atom       -0.010772     -0.001995      0.004574
    25   Atom        0.002906     -0.011475      0.000388
    26   Atom        0.001785      0.000519      0.000944
    27   Atom        0.006268      0.001742      0.009677
    28   Atom        0.096103      0.193025      0.081803
    29   Atom       -0.002875     -0.002220      0.000809
    30   Atom       -0.001544     -0.000547      0.000392
    31   Atom       -0.001272      0.001261     -0.000391
    32   Atom       -0.000743     -0.000155      0.000125
    33   Atom       -0.001565     -0.000406      0.000688
    34   Atom       -0.000818      0.000257     -0.000145
    35   Atom       -0.000296      0.000170      0.000133
    36   Atom       -0.000538     -0.000236     -0.000051
    37   Atom       -0.000526     -0.000108      0.000144
    38   Atom       -0.000229     -0.000573     -0.000358
    39   Atom       -0.000280     -0.000043      0.000059
    40   Atom       -0.000572      0.000332     -0.000252
    41   Atom       -0.000139     -0.000057      0.000015
    42   Atom       -0.000105     -0.000157      0.000020
    43   Atom       -0.000075     -0.000025      0.000003
    44   Atom       -0.000156     -0.000078      0.000021
    45   Atom       -0.565810      0.156667     -0.285060
    46   Atom       -0.012260      0.025665      0.030710
    47   Atom       -0.031750      0.022052     -0.031557
    48   Atom       -0.101522      0.062165     -0.082953
    49   Atom       -0.007344     -0.014912      0.001055
    50   Atom       -0.005880     -0.001203     -0.002214
 --------------------------------------------------------


 ---------------------------------------------------------------------------------
              Anisotropic Spin Dipole Couplings in Principal Axis System
 ---------------------------------------------------------------------------------

       Atom             a.u.   MegaHertz   Gauss  10(-4) cm-1        Axes

              Baa    -0.0057    -0.761    -0.271    -0.254 -0.5893  0.3315  0.7368
     1 C(13)  Bbb    -0.0027    -0.366    -0.131    -0.122  0.5395 -0.5174  0.6643
              Bcc     0.0084     1.127     0.402     0.376  0.6014  0.7889  0.1261
 
              Baa    -0.0054    -2.869    -1.024    -0.957 -0.2222  0.8801 -0.4197
     2 H(1)   Bbb    -0.0047    -2.512    -0.896    -0.838 -0.5804  0.2265  0.7822
              Bcc     0.0101     5.380     1.920     1.795  0.7835  0.4174  0.4604
 
              Baa    -0.0231    -3.106    -1.108    -1.036  0.3826  0.2109  0.8996
     3 C(13)  Bbb    -0.0105    -1.403    -0.500    -0.468  0.8185  0.3743 -0.4358
              Bcc     0.0336     4.508     1.609     1.504 -0.4286  0.9030 -0.0294
 
              Baa    -0.0035    -1.857    -0.662    -0.619 -0.5241  0.8352 -0.1665
     4 H(1)   Bbb    -0.0025    -1.310    -0.467    -0.437  0.4202  0.4236  0.8025
              Bcc     0.0059     3.166     1.130     1.056  0.7408  0.3506 -0.5730
 
              Baa    -0.0832   -11.162    -3.983    -3.723 -0.3621  0.9228 -0.1319
     5 C(13)  Bbb     0.0247     3.321     1.185     1.108  0.8914  0.3842  0.2404
              Bcc     0.0584     7.841     2.798     2.615 -0.2725  0.0305  0.9617
 
              Baa    -0.4344    31.434    11.216    10.485  0.7328  0.5588 -0.3882
     6 O(17)  Bbb    -0.3999    28.933    10.324     9.651  0.3769  0.1415  0.9154
              Bcc     0.8343   -60.367   -21.540   -20.136 -0.5665  0.8171  0.1070
 
              Baa    -0.0034    -0.450    -0.161    -0.150 -0.2181 -0.0868  0.9721
     7 C(13)  Bbb     0.0003     0.046     0.016     0.015  0.9749 -0.0655  0.2129
              Bcc     0.0030     0.405     0.144     0.135  0.0452  0.9941  0.0989
 
              Baa    -0.0030    -0.407    -0.145    -0.136 -0.3529 -0.1787  0.9185
     8 C(13)  Bbb    -0.0007    -0.096    -0.034    -0.032  0.8013  0.4491  0.3952
              Bcc     0.0038     0.503     0.180     0.168 -0.4831  0.8754 -0.0153
 
              Baa    -0.0021    -0.286    -0.102    -0.095  0.0782 -0.0660  0.9948
     9 C(13)  Bbb     0.0001     0.009     0.003     0.003  0.6627  0.7489 -0.0024
              Bcc     0.0021     0.277     0.099     0.092  0.7448 -0.6594 -0.1023
 
              Baa    -0.0008    -0.105    -0.037    -0.035 -0.4362  0.8968  0.0738
    10 C(13)  Bbb    -0.0003    -0.037    -0.013    -0.012 -0.2187 -0.1852  0.9581
              Bcc     0.0011     0.142     0.051     0.047  0.8729  0.4018  0.2769
 
              Baa    -0.0010    -0.559    -0.200    -0.187 -0.4968  0.8655  0.0647
    11 H(1)   Bbb    -0.0006    -0.308    -0.110    -0.103 -0.4570 -0.3243  0.8282
              Bcc     0.0016     0.867     0.310     0.289  0.7378  0.3819  0.5566
 
              Baa    -0.0014    -0.191    -0.068    -0.064 -0.3863  0.9177  0.0925
    12 C(13)  Bbb     0.0001     0.011     0.004     0.004 -0.0004 -0.1005  0.9949
              Bcc     0.0013     0.179     0.064     0.060  0.9224  0.3843  0.0392
 
              Baa    -0.0011    -0.579    -0.207    -0.193 -0.4640  0.8857 -0.0119
    13 H(1)   Bbb    -0.0007    -0.378    -0.135    -0.126  0.2183  0.1273  0.9676
              Bcc     0.0018     0.958     0.342     0.319  0.8585  0.4464 -0.2524
 
              Baa    -0.0042    -0.569    -0.203    -0.190 -0.1127 -0.1179  0.9866
    14 C(13)  Bbb    -0.0030    -0.406    -0.145    -0.135  0.8931  0.4233  0.1526
              Bcc     0.0073     0.975     0.348     0.325 -0.4356  0.8983  0.0576
 
              Baa    -0.0004    -0.234    -0.083    -0.078 -0.4637  0.8857  0.0208
    15 H(1)   Bbb    -0.0002    -0.100    -0.036    -0.033 -0.4299 -0.2454  0.8689
              Bcc     0.0006     0.333     0.119     0.111  0.7747  0.3940  0.4946
 
              Baa    -0.0066     0.478     0.171     0.160 -0.3182 -0.1936  0.9281
    16 O(17)  Bbb    -0.0060     0.434     0.155     0.145  0.8425  0.3911  0.3704
              Bcc     0.0126    -0.912    -0.325    -0.304 -0.4347  0.8997  0.0387
 
              Baa    -0.0004    -0.224    -0.080    -0.075 -0.4759  0.8778  0.0541
    17 H(1)   Bbb    -0.0002    -0.117    -0.042    -0.039  0.6888  0.4103 -0.5976
              Bcc     0.0006     0.341     0.122     0.114  0.5468  0.2471  0.7999
 
              Baa    -0.0004     0.032     0.011     0.011 -0.2434  0.8445  0.4771
    18 O(17)  Bbb    -0.0003     0.020     0.007     0.007  0.3308 -0.3901  0.8593
              Bcc     0.0007    -0.053    -0.019    -0.018  0.9118  0.3670 -0.1844
 
              Baa    -0.0003    -0.034    -0.012    -0.011 -0.4749  0.8347  0.2786
    19 C(13)  Bbb    -0.0002    -0.022    -0.008    -0.007  0.3177 -0.1326  0.9389
              Bcc     0.0004     0.057     0.020     0.019  0.8207  0.5344 -0.2022
 
              Baa    -0.0003    -0.161    -0.058    -0.054 -0.5451  0.7103  0.4453
    20 H(1)   Bbb    -0.0002    -0.122    -0.044    -0.041  0.4407 -0.2091  0.8730
              Bcc     0.0005     0.283     0.101     0.094  0.7132  0.6721 -0.1991
 
              Baa    -0.0002    -0.107    -0.038    -0.036 -0.4801  0.8355  0.2673
    21 H(1)   Bbb    -0.0002    -0.087    -0.031    -0.029  0.3672 -0.0852  0.9262
              Bcc     0.0004     0.194     0.069     0.065  0.7966  0.5428 -0.2659
 
              Baa    -0.0002    -0.129    -0.046    -0.043 -0.4652  0.7108  0.5275
    22 H(1)   Bbb    -0.0001    -0.078    -0.028    -0.026  0.4445 -0.3277  0.8337
              Bcc     0.0004     0.207     0.074     0.069  0.7655  0.6224 -0.1635
 
              Baa    -0.0151    -2.021    -0.721    -0.674  0.2308 -0.1819  0.9558
    23 C(13)  Bbb    -0.0068    -0.914    -0.326    -0.305  0.0822  0.9825  0.1671
              Bcc     0.0219     2.935     1.047     0.979  0.9695 -0.0400 -0.2417
 
              Baa    -0.0111    -5.912    -2.110    -1.972 -0.1583 -0.4280  0.8898
    24 H(1)   Bbb    -0.0053    -2.832    -1.010    -0.945  0.6396  0.6421  0.4227
              Bcc     0.0164     8.744     3.120     2.917  0.7522 -0.6361 -0.1721
 
              Baa    -0.0134    -1.801    -0.643    -0.601 -0.2095  0.9168 -0.3400
    25 C(13)  Bbb    -0.0094    -1.260    -0.450    -0.420  0.3204  0.3929  0.8619
              Bcc     0.0228     3.061     1.092     1.021  0.9238  0.0717 -0.3761
 
              Baa    -0.0035    -1.876    -0.670    -0.626  0.0572 -0.5130  0.8565
    26 H(1)   Bbb    -0.0017    -0.927    -0.331    -0.309 -0.2669  0.8188  0.5082
              Bcc     0.0053     2.803     1.000     0.935  0.9620  0.2577  0.0901
 
              Baa    -0.0273    -3.664    -1.308    -1.222 -0.0024 -0.2525  0.9676
    27 C(13)  Bbb     0.0070     0.939     0.335     0.313 -0.6279  0.7534  0.1950
              Bcc     0.0203     2.725     0.972     0.909  0.7783  0.6071  0.1604
 
              Baa    -0.1583    11.456     4.088     3.821  0.7480 -0.2731 -0.6049
    28 O(17)  Bbb    -0.1178     8.522     3.041     2.843 -0.0208  0.9014 -0.4326
              Bcc     0.2761   -19.978    -7.129    -6.664  0.6634  0.3361  0.6685
 
              Baa    -0.0030    -0.400    -0.143    -0.134  0.4592  0.4760  0.7500
    29 C(13)  Bbb    -0.0026    -0.355    -0.127    -0.118  0.1518  0.7898 -0.5943
              Bcc     0.0056     0.755     0.270     0.252  0.8752 -0.3867 -0.2905
 
              Baa    -0.0013    -0.180    -0.064    -0.060  0.7138  0.6874  0.1340
    30 C(13)  Bbb    -0.0006    -0.082    -0.029    -0.027  0.0955 -0.2851  0.9537
              Bcc     0.0019     0.261     0.093     0.087  0.6938 -0.6680 -0.2691
 
              Baa    -0.0015    -0.199    -0.071    -0.066  0.4805  0.6849 -0.5478
    31 C(13)  Bbb    -0.0013    -0.171    -0.061    -0.057 -0.0473  0.6439  0.7636
              Bcc     0.0028     0.370     0.132     0.123  0.8757 -0.3410  0.3418
 
              Baa    -0.0005    -0.070    -0.025    -0.023  0.6683  0.6440  0.3723
    32 C(13)  Bbb    -0.0005    -0.065    -0.023    -0.022 -0.1645 -0.3601  0.9183
              Bcc     0.0010     0.134     0.048     0.045  0.7255 -0.6749 -0.1347
 
              Baa    -0.0013    -0.677    -0.242    -0.226 -0.1711 -0.3601  0.9171
    33 H(1)   Bbb    -0.0012    -0.619    -0.221    -0.206  0.8299  0.4491  0.3312
              Bcc     0.0024     1.296     0.462     0.432 -0.5311  0.8177  0.2220
 
              Baa    -0.0008    -0.112    -0.040    -0.038 -0.1264  0.0509  0.9907
    34 C(13)  Bbb    -0.0005    -0.072    -0.026    -0.024  0.5068  0.8618  0.0203
              Bcc     0.0014     0.184     0.066     0.061  0.8528 -0.5046  0.1347
 
              Baa    -0.0011    -0.588    -0.210    -0.196 -0.1034 -0.5489  0.8295
    35 H(1)   Bbb    -0.0008    -0.414    -0.148    -0.138  0.0578  0.8292  0.5559
              Bcc     0.0019     1.003     0.358     0.334  0.9930 -0.1054  0.0540
 
              Baa    -0.0009    -0.126    -0.045    -0.042  0.5482  0.8295  0.1072
    36 C(13)  Bbb     0.0002     0.027     0.010     0.009  0.7660 -0.5494  0.3337
              Bcc     0.0007     0.099     0.035     0.033 -0.3357  0.1008  0.9366
 
              Baa    -0.0004    -0.209    -0.075    -0.070 -0.0845 -0.2736  0.9581
    37 H(1)   Bbb    -0.0004    -0.188    -0.067    -0.063  0.7714  0.5907  0.2367
              Bcc     0.0007     0.397     0.142     0.133 -0.6307  0.7591  0.1611
 
              Baa    -0.0011     0.080     0.028     0.027  0.5652  0.7876  0.2456
    38 O(17)  Bbb    -0.0005     0.033     0.012     0.011  0.7863 -0.6043  0.1286
              Bcc     0.0016    -0.113    -0.040    -0.038 -0.2497 -0.1204  0.9608
 
              Baa    -0.0002    -0.126    -0.045    -0.042 -0.0369 -0.1981  0.9795
    39 H(1)   Bbb    -0.0002    -0.088    -0.031    -0.029  0.7047  0.6898  0.1661
              Bcc     0.0004     0.214     0.076     0.071  0.7086 -0.6964 -0.1142
 
              Baa    -0.0006     0.045     0.016     0.015  0.1559  0.7405  0.6537
    40 O(17)  Bbb    -0.0005     0.033     0.012     0.011 -0.4674 -0.5277  0.7093
              Bcc     0.0011    -0.078    -0.028    -0.026  0.8702 -0.4161  0.2638
 
              Baa    -0.0002    -0.031    -0.011    -0.010  0.0520 -0.1649  0.9849
    41 C(13)  Bbb    -0.0002    -0.029    -0.010    -0.010  0.2261  0.9626  0.1493
              Bcc     0.0004     0.060     0.021     0.020  0.9727 -0.2149 -0.0873
 
              Baa    -0.0003    -0.140    -0.050    -0.047  0.2388  0.2469  0.9391
    42 H(1)   Bbb    -0.0002    -0.133    -0.048    -0.044  0.0810  0.9587 -0.2727
              Bcc     0.0005     0.273     0.097     0.091  0.9677 -0.1412 -0.2090
 
              Baa    -0.0002    -0.096    -0.034    -0.032  0.0660  0.1358  0.9885
    43 H(1)   Bbb    -0.0002    -0.093    -0.033    -0.031  0.1355  0.9803 -0.1437
              Bcc     0.0004     0.189     0.067     0.063  0.9886 -0.1434 -0.0463
 
              Baa    -0.0002    -0.103    -0.037    -0.034  0.2091  0.2024  0.9567
    44 H(1)   Bbb    -0.0002    -0.097    -0.035    -0.032  0.2532  0.9338 -0.2528
              Bcc     0.0004     0.200     0.071     0.067  0.9446 -0.2951 -0.1440
 
              Baa    -0.4773   -64.049   -22.854   -21.364  0.8731  0.3975 -0.2823
    45 C(13)  Bbb    -0.4724   -63.394   -22.620   -21.146  0.1475  0.3366  0.9300
              Bcc     0.9497   127.443    45.475    42.510 -0.4647  0.8537 -0.2353
 
              Baa    -0.0584   -31.138   -11.111   -10.386  0.8706  0.3728 -0.3209
    46 H(1)   Bbb    -0.0063    -3.354    -1.197    -1.119 -0.4607  0.8467 -0.2663
              Bcc     0.0646    34.491    12.307    11.505  0.1724  0.3797  0.9089
 
              Baa    -0.0311   -16.589    -5.919    -5.534 -0.1610  0.4741  0.8656
    47 H(1)   Bbb    -0.0287   -15.292    -5.457    -5.101  0.8470  0.5166 -0.1254
              Bcc     0.0598    31.882    11.376    10.635 -0.5066  0.7130 -0.4848
 
              Baa    -0.0903     6.532     2.331     2.179 -0.1617  0.4167  0.8945
    48 O(17)  Bbb    -0.0851     6.158     2.197     2.054  0.8230  0.5571 -0.1107
              Bcc     0.1754   -12.689    -4.528    -4.233 -0.5445  0.7183 -0.4331
 
              Baa    -0.0166     1.202     0.429     0.401  0.7199  0.5933  0.3602
    49 O(17)  Bbb    -0.0049     0.357     0.128     0.119 -0.4290  0.7883 -0.4411
              Bcc     0.0216    -1.560    -0.557    -0.520 -0.5456  0.1630  0.8220
 
              Baa    -0.0063    -0.244    -0.087    -0.081  0.5844  0.4862  0.6497
    50 N(14)  Bbb    -0.0017    -0.067    -0.024    -0.022 -0.5759 -0.3156  0.7541
              Bcc     0.0081     0.312     0.111     0.104 -0.5717  0.8149 -0.0956
 

 ---------------------------------------------------------------------------------


 This type of calculation cannot be archived.


 IT CANNOT BE MY BEAUTY, FOR I HAVE NONE; AND IT CANNOT BE MY WIT,
 FOR HE HAS NOT ENOUGH TO KNOW THAT I HAVE ANY.
 -- CATHARINE SEDLEY, PUZZLED ABOUT WHY SHE WAS MISTRESS TO JAMES II
 Job cpu time:       0 days 13 hours 21 minutes 55.7 seconds.
 Elapsed time:       0 days 13 hours 23 minutes  7.0 seconds.
 File lengths (MBytes):  RWF=   3761 Int=      0 D2E=      0 Chk=     56 Scr=      1
 Normal termination of Gaussian 16 at Sat Nov  2 02:03:32 2024.
