 Entering Gaussian System, Link 0=g16
 Initial command:
 /sw/cluster/pub/apps//g16/l1.exe "/data/mmaximo/25380/Gau-22122.inp" -scrdir="/data/mmaximo/25380/"
 Entering Link 1 = /sw/cluster/pub/apps//g16/l1.exe PID=     22123.
  
 Copyright (c) 1988,1990,1992,1993,1995,1998,2003,2009,2016,
            Gaussian, Inc.  All Rights Reserved.
  
 This is part of the Gaussian(R) 16 program.  It is based on
 the Gaussian(R) 09 system (copyright 2009, Gaussian, Inc.),
 the Gaussian(R) 03 system (copyright 2003, Gaussian, Inc.),
 the Gaussian(R) 98 system (copyright 1998, Gaussian, Inc.),
 the Gaussian(R) 94 system (copyright 1995, Gaussian, Inc.),
 the Gaussian 92(TM) system (copyright 1992, Gaussian, Inc.),
 the Gaussian 90(TM) system (copyright 1990, Gaussian, Inc.),
 the Gaussian 88(TM) system (copyright 1988, Gaussian, Inc.),
 the Gaussian 86(TM) system (copyright 1986, Carnegie Mellon
 University), and the Gaussian 82(TM) system (copyright 1983,
 Carnegie Mellon University). Gaussian is a federally registered
 trademark of Gaussian, Inc.
  
 This software contains proprietary and confidential information,
 including trade secrets, belonging to Gaussian, Inc.
  
 This software is provided under written license and may be
 used, copied, transmitted, or stored only in accord with that
 written license.
  
 The following legend is applicable only to US Government
 contracts under FAR:
  
                    RESTRICTED RIGHTS LEGEND
  
 Use, reproduction and disclosure by the US Government is
 subject to restrictions as set forth in subparagraphs (a)
 and (c) of the Commercial Computer Software - Restricted
 Rights clause in FAR 52.227-19.
  
 Gaussian, Inc.
 340 Quinnipiac St., Bldg. 40, Wallingford CT 06492
  
  
 ---------------------------------------------------------------
 Warning -- This program may not be used in any manner that
 competes with the business of Gaussian, Inc. or will provide
 assistance to any competitor of Gaussian, Inc.  The licensee
 of this program is prohibited from giving any competitor of
 Gaussian, Inc. access to this program.  By using this program,
 the user acknowledges that Gaussian, Inc. is engaged in the
 business of creating and licensing software in the field of
 computational chemistry and represents and warrants to the
 licensee that it is not a competitor of Gaussian, Inc. and that
 it will not use this program in any manner prohibited above.
 ---------------------------------------------------------------
  

 Cite this work as:
 Gaussian 16, Revision A.03,
 M. J. Frisch, G. W. Trucks, H. B. Schlegel, G. E. Scuseria, 
 M. A. Robb, J. R. Cheeseman, G. Scalmani, V. Barone, 
 G. A. Petersson, H. Nakatsuji, X. Li, M. Caricato, A. V. Marenich, 
 J. Bloino, B. G. Janesko, R. Gomperts, B. Mennucci, H. P. Hratchian, 
 J. V. Ortiz, A. F. Izmaylov, J. L. Sonnenberg, D. Williams-Young, 
 F. Ding, F. Lipparini, F. Egidi, J. Goings, B. Peng, A. Petrone, 
 T. Henderson, D. Ranasinghe, V. G. Zakrzewski, J. Gao, N. Rega, 
 G. Zheng, W. Liang, M. Hada, M. Ehara, K. Toyota, R. Fukuda, 
 J. Hasegawa, M. Ishida, T. Nakajima, Y. Honda, O. Kitao, H. Nakai, 
 T. Vreven, K. Throssell, J. A. Montgomery, Jr., J. E. Peralta, 
 F. Ogliaro, M. J. Bearpark, J. J. Heyd, E. N. Brothers, K. N. Kudin, 
 V. N. Staroverov, T. A. Keith, R. Kobayashi, J. Normand, 
 K. Raghavachari, A. P. Rendell, J. C. Burant, S. S. Iyengar, 
 J. Tomasi, M. Cossi, J. M. Millam, M. Klene, C. Adamo, R. Cammi, 
 J. W. Ochterski, R. L. Martin, K. Morokuma, O. Farkas, 
 J. B. Foresman, and D. J. Fox, Gaussian, Inc., Wallingford CT, 2016.
 
 ******************************************
 Gaussian 16:  ES64L-G16RevA.03 25-Dec-2016
                 5-Nov-2024 
 ******************************************
 %chk=CURCUMIN-OPT-FREQ-Prod-B3LYP-6-311G-D-298.chk
 ----------------------------------------------------------------------
 # opt=(calcfc) freq=noraman b3lyp/6-311g(d) scrf=(smd,solvent=generic,
 read) temperature=298.15 SCF=(MaxCycle=500)
 ----------------------------------------------------------------------
 1/10=4,18=20,19=15,26=3,38=1,40=2,112=298150/1,3;
 2/9=110,12=2,17=6,18=5,40=1/2;
 3/5=4,6=6,7=1,11=2,25=1,30=1,70=32203,71=2,72=-2,74=-5,140=1/1,2,3;
 4//1;
 5/5=2,7=500,38=5/2;
 8/6=4,10=90,11=11/1;
 11/6=1,8=1,9=11,15=111,16=1/1,2,10;
 10/6=1,13=1/2;
 6/7=2,8=2,9=2,10=2,28=1/1;
 7/10=1,18=20,25=1/1,2,3,16;
 1/10=4,18=20,19=15,26=3/3(2);
 2/9=110/2;
 99//99;
 2/9=110/2;
 3/5=4,6=6,7=1,11=2,25=1,30=1,70=32205,71=1,72=-2,74=-5/1,2,3;
 4/5=5,16=3,69=1/1;
 5/5=2,7=500,38=5/2;
 7//1,2,3,16;
 1/18=20,19=15,26=3/3(-5);
 2/9=110/2;
 6/7=2,8=2,9=2,10=2,19=2,28=1/1;
 99/9=1/99;
 ---
 XXX
 ---
 Symbolic Z-matrix:
 Charge =  0 Multiplicity = 2
 C                    -2.51244   0.25756  -0.19884 
 H                    -2.00522   0.53756  -1.11867 
 C                    -1.92259   0.53642   0.98299 
 H                    -2.40956   0.28852   1.92157 
 C                    -0.61666   1.18372   1.17477 
 O                    -0.20096   1.42735   2.31458 
 C                    -3.79704  -0.39592  -0.40784 
 C                    -4.25076  -0.59256  -1.7219 
 C                    -4.61082  -0.85923   0.64566 
 C                    -5.468    -1.21114  -1.9761 
 H                    -3.64552  -0.24939  -2.55483 
 C                    -5.8269   -1.47564   0.4083 
 H                    -4.31219  -0.73489   1.68032 
 C                    -6.26999  -1.65103  -0.92248 
 H                    -5.80958  -1.34384  -2.99928 
 O                    -7.47965  -2.2352   -1.10953 
 H                    -7.67377  -2.2906   -2.05598 
 O                    -6.60953  -1.84307   1.46996 
 C                    -6.77154  -3.25645   1.66852 
 H                    -5.79963  -3.7391    1.81447 
 H                    -7.36809  -3.36671   2.5736 
 H                    -7.29344  -3.72188   0.83052 
 C                     2.80306   0.21429  -0.09983 
 H                     1.86831  -0.30709  -0.29275 
 C                     2.75518   1.53841   0.16746 
 H                     3.6455    2.1278    0.3635 
 C                     1.50201   2.26484   0.23781 
 O                     1.43603   3.47294   0.45021 
 C                     3.98056  -0.62546  -0.14569 
 C                     3.84953  -1.97877  -0.493 
 C                     5.26354  -0.1372    0.16439 
 C                     4.95695  -2.81512  -0.52207 
 H                     2.87052  -2.37942  -0.73463 
 C                     6.3732   -0.95811   0.14528 
 H                     5.41702   0.89717   0.44812 
 C                     6.22184  -2.32079  -0.19884 
 H                     4.84496  -3.86477  -0.78065 
 O                     7.33288  -3.09563  -0.18031 
 H                     7.10448  -4.00383  -0.42453 
 O                     7.58422  -0.44848   0.52615 
 C                     8.56245  -0.32655  -0.5182 
 H                     8.1879    0.31246  -1.32455 
 H                     9.43367   0.14228  -0.06191 
 H                     8.84323  -1.30194  -0.91958 
 C                     0.23592   1.4894    0.02996 
 H                     0.05391   1.04072  -0.94098 
 H                    -0.62229   3.04826  -0.84767 
 O                    -1.29821   3.60513  -1.27666 
 O                    -2.7258    4.99551  -0.51827 
 N                    -1.96281   4.1763   -0.17132 
 
 Add virtual bond connecting atoms H47        and C45        Dist= 3.75D+00.
 Add virtual bond connecting atoms H47        and H46        Dist= 4.01D+00.

 GradGradGradGradGradGradGradGradGradGradGradGradGradGradGradGradGradGrad
 Berny optimization.
 Initialization pass.
                           ----------------------------
                           !    Initial Parameters    !
                           ! (Angstroms and Degrees)  !
 --------------------------                            --------------------------
 ! Name  Definition              Value          Derivative Info.                !
 --------------------------------------------------------------------------------
 ! R1    R(1,2)                  1.0871         calculate D2E/DX2 analytically  !
 ! R2    R(1,3)                  1.35           calculate D2E/DX2 analytically  !
 ! R3    R(1,7)                  1.4563         calculate D2E/DX2 analytically  !
 ! R4    R(3,4)                  1.0861         calculate D2E/DX2 analytically  !
 ! R5    R(3,5)                  1.4701         calculate D2E/DX2 analytically  !
 ! R6    R(5,6)                  1.2375         calculate D2E/DX2 analytically  !
 ! R7    R(5,45)                 1.4598         calculate D2E/DX2 analytically  !
 ! R8    R(7,8)                  1.404          calculate D2E/DX2 analytically  !
 ! R9    R(7,9)                  1.4095         calculate D2E/DX2 analytically  !
 ! R10   R(8,10)                 1.3889         calculate D2E/DX2 analytically  !
 ! R11   R(8,11)                 1.0853         calculate D2E/DX2 analytically  !
 ! R12   R(9,12)                 1.3839         calculate D2E/DX2 analytically  !
 ! R13   R(9,13)                 1.0841         calculate D2E/DX2 analytically  !
 ! R14   R(10,14)                1.3953         calculate D2E/DX2 analytically  !
 ! R15   R(10,15)                1.0868         calculate D2E/DX2 analytically  !
 ! R16   R(12,14)                1.4135         calculate D2E/DX2 analytically  !
 ! R17   R(12,18)                1.3692         calculate D2E/DX2 analytically  !
 ! R18   R(14,16)                1.3563         calculate D2E/DX2 analytically  !
 ! R19   R(16,17)                0.9677         calculate D2E/DX2 analytically  !
 ! R20   R(18,19)                1.4364         calculate D2E/DX2 analytically  !
 ! R21   R(19,20)                1.0949         calculate D2E/DX2 analytically  !
 ! R22   R(19,21)                1.0896         calculate D2E/DX2 analytically  !
 ! R23   R(19,22)                1.0914         calculate D2E/DX2 analytically  !
 ! R24   R(23,24)                1.0876         calculate D2E/DX2 analytically  !
 ! R25   R(23,25)                1.3517         calculate D2E/DX2 analytically  !
 ! R26   R(23,29)                1.447          calculate D2E/DX2 analytically  !
 ! R27   R(25,26)                1.0856         calculate D2E/DX2 analytically  !
 ! R28   R(25,27)                1.4502         calculate D2E/DX2 analytically  !
 ! R29   R(27,28)                1.2284         calculate D2E/DX2 analytically  !
 ! R30   R(27,45)                1.4992         calculate D2E/DX2 analytically  !
 ! R31   R(29,30)                1.4033         calculate D2E/DX2 analytically  !
 ! R32   R(29,31)                1.4073         calculate D2E/DX2 analytically  !
 ! R33   R(30,32)                1.3881         calculate D2E/DX2 analytically  !
 ! R34   R(30,33)                1.0851         calculate D2E/DX2 analytically  !
 ! R35   R(31,34)                1.3804         calculate D2E/DX2 analytically  !
 ! R36   R(31,35)                1.0835         calculate D2E/DX2 analytically  !
 ! R37   R(32,36)                1.396          calculate D2E/DX2 analytically  !
 ! R38   R(32,37)                1.0868         calculate D2E/DX2 analytically  !
 ! R39   R(34,36)                1.4136         calculate D2E/DX2 analytically  !
 ! R40   R(34,40)                1.368          calculate D2E/DX2 analytically  !
 ! R41   R(36,38)                1.3547         calculate D2E/DX2 analytically  !
 ! R42   R(38,39)                0.9678         calculate D2E/DX2 analytically  !
 ! R43   R(40,41)                1.4361         calculate D2E/DX2 analytically  !
 ! R44   R(41,42)                1.0949         calculate D2E/DX2 analytically  !
 ! R45   R(41,43)                1.0895         calculate D2E/DX2 analytically  !
 ! R46   R(41,44)                1.0915         calculate D2E/DX2 analytically  !
 ! R47   R(45,46)                1.085          calculate D2E/DX2 analytically  !
 ! R48   R(45,47)                1.9841         calculate D2E/DX2 analytically  !
 ! R49   R(46,47)                2.1204         calculate D2E/DX2 analytically  !
 ! R50   R(47,48)                0.9752         calculate D2E/DX2 analytically  !
 ! R51   R(48,50)                1.4106         calculate D2E/DX2 analytically  !
 ! R52   R(49,50)                1.172          calculate D2E/DX2 analytically  !
 ! A1    A(2,1,3)              118.926          calculate D2E/DX2 analytically  !
 ! A2    A(2,1,7)              113.9353         calculate D2E/DX2 analytically  !
 ! A3    A(3,1,7)              127.1385         calculate D2E/DX2 analytically  !
 ! A4    A(1,3,4)              120.8977         calculate D2E/DX2 analytically  !
 ! A5    A(1,3,5)              126.3916         calculate D2E/DX2 analytically  !
 ! A6    A(4,3,5)              112.71           calculate D2E/DX2 analytically  !
 ! A7    A(3,5,6)              120.3484         calculate D2E/DX2 analytically  !
 ! A8    A(3,5,45)             120.5785         calculate D2E/DX2 analytically  !
 ! A9    A(6,5,45)             119.0075         calculate D2E/DX2 analytically  !
 ! A10   A(1,7,8)              118.8302         calculate D2E/DX2 analytically  !
 ! A11   A(1,7,9)              123.3319         calculate D2E/DX2 analytically  !
 ! A12   A(8,7,9)              117.8342         calculate D2E/DX2 analytically  !
 ! A13   A(7,8,10)             121.1248         calculate D2E/DX2 analytically  !
 ! A14   A(7,8,11)             119.5902         calculate D2E/DX2 analytically  !
 ! A15   A(10,8,11)            119.2833         calculate D2E/DX2 analytically  !
 ! A16   A(7,9,12)             121.7055         calculate D2E/DX2 analytically  !
 ! A17   A(7,9,13)             121.1057         calculate D2E/DX2 analytically  !
 ! A18   A(12,9,13)            117.1846         calculate D2E/DX2 analytically  !
 ! A19   A(8,10,14)            120.3958         calculate D2E/DX2 analytically  !
 ! A20   A(8,10,15)            120.142          calculate D2E/DX2 analytically  !
 ! A21   A(14,10,15)           119.4568         calculate D2E/DX2 analytically  !
 ! A22   A(9,12,14)            119.4847         calculate D2E/DX2 analytically  !
 ! A23   A(9,12,18)            119.2641         calculate D2E/DX2 analytically  !
 ! A24   A(14,12,18)           121.167          calculate D2E/DX2 analytically  !
 ! A25   A(10,14,12)           119.448          calculate D2E/DX2 analytically  !
 ! A26   A(10,14,16)           122.9762         calculate D2E/DX2 analytically  !
 ! A27   A(12,14,16)           117.5719         calculate D2E/DX2 analytically  !
 ! A28   A(14,16,17)           109.7826         calculate D2E/DX2 analytically  !
 ! A29   A(12,18,19)           115.8306         calculate D2E/DX2 analytically  !
 ! A30   A(18,19,20)           110.6119         calculate D2E/DX2 analytically  !
 ! A31   A(18,19,21)           106.0305         calculate D2E/DX2 analytically  !
 ! A32   A(18,19,22)           111.5548         calculate D2E/DX2 analytically  !
 ! A33   A(20,19,21)           109.3087         calculate D2E/DX2 analytically  !
 ! A34   A(20,19,22)           109.8055         calculate D2E/DX2 analytically  !
 ! A35   A(21,19,22)           109.44           calculate D2E/DX2 analytically  !
 ! A36   A(24,23,25)           118.3106         calculate D2E/DX2 analytically  !
 ! A37   A(24,23,29)           114.5555         calculate D2E/DX2 analytically  !
 ! A38   A(25,23,29)           127.1286         calculate D2E/DX2 analytically  !
 ! A39   A(23,25,26)           122.5827         calculate D2E/DX2 analytically  !
 ! A40   A(23,25,27)           122.0666         calculate D2E/DX2 analytically  !
 ! A41   A(26,25,27)           115.34           calculate D2E/DX2 analytically  !
 ! A42   A(25,27,28)           123.1912         calculate D2E/DX2 analytically  !
 ! A43   A(25,27,45)           117.6435         calculate D2E/DX2 analytically  !
 ! A44   A(28,27,45)           119.1641         calculate D2E/DX2 analytically  !
 ! A45   A(23,29,30)           119.4416         calculate D2E/DX2 analytically  !
 ! A46   A(23,29,31)           122.244          calculate D2E/DX2 analytically  !
 ! A47   A(30,29,31)           118.3092         calculate D2E/DX2 analytically  !
 ! A48   A(29,30,32)           120.7812         calculate D2E/DX2 analytically  !
 ! A49   A(29,30,33)           119.6992         calculate D2E/DX2 analytically  !
 ! A50   A(32,30,33)           119.5179         calculate D2E/DX2 analytically  !
 ! A51   A(29,31,34)           121.5646         calculate D2E/DX2 analytically  !
 ! A52   A(29,31,35)           121.2008         calculate D2E/DX2 analytically  !
 ! A53   A(34,31,35)           117.2234         calculate D2E/DX2 analytically  !
 ! A54   A(30,32,36)           120.3104         calculate D2E/DX2 analytically  !
 ! A55   A(30,32,37)           120.3113         calculate D2E/DX2 analytically  !
 ! A56   A(36,32,37)           119.3705         calculate D2E/DX2 analytically  !
 ! A57   A(31,34,36)           119.377          calculate D2E/DX2 analytically  !
 ! A58   A(31,34,40)           119.093          calculate D2E/DX2 analytically  !
 ! A59   A(36,34,40)           121.4457         calculate D2E/DX2 analytically  !
 ! A60   A(32,36,34)           119.6526         calculate D2E/DX2 analytically  !
 ! A61   A(32,36,38)           122.94           calculate D2E/DX2 analytically  !
 ! A62   A(34,36,38)           117.402          calculate D2E/DX2 analytically  !
 ! A63   A(36,38,39)           109.8616         calculate D2E/DX2 analytically  !
 ! A64   A(34,40,41)           115.6051         calculate D2E/DX2 analytically  !
 ! A65   A(40,41,42)           110.6146         calculate D2E/DX2 analytically  !
 ! A66   A(40,41,43)           106.0611         calculate D2E/DX2 analytically  !
 ! A67   A(40,41,44)           111.5167         calculate D2E/DX2 analytically  !
 ! A68   A(42,41,43)           109.3198         calculate D2E/DX2 analytically  !
 ! A69   A(42,41,44)           109.7992         calculate D2E/DX2 analytically  !
 ! A70   A(43,41,44)           109.442          calculate D2E/DX2 analytically  !
 ! A71   A(5,45,27)            119.5269         calculate D2E/DX2 analytically  !
 ! A72   A(5,45,46)            121.1469         calculate D2E/DX2 analytically  !
 ! A73   A(5,45,47)            104.9978         calculate D2E/DX2 analytically  !
 ! A74   A(27,45,46)           118.663          calculate D2E/DX2 analytically  !
 ! A75   A(27,45,47)            91.1595         calculate D2E/DX2 analytically  !
 ! A76   A(45,47,48)           160.5642         calculate D2E/DX2 analytically  !
 ! A77   A(46,47,48)           137.9288         calculate D2E/DX2 analytically  !
 ! A78   A(47,48,50)           102.303          calculate D2E/DX2 analytically  !
 ! A79   A(48,50,49)           110.9639         calculate D2E/DX2 analytically  !
 ! D1    D(2,1,3,4)            178.7932         calculate D2E/DX2 analytically  !
 ! D2    D(2,1,3,5)             -0.8809         calculate D2E/DX2 analytically  !
 ! D3    D(7,1,3,4)             -1.0767         calculate D2E/DX2 analytically  !
 ! D4    D(7,1,3,5)            179.2492         calculate D2E/DX2 analytically  !
 ! D5    D(2,1,7,8)             -0.2882         calculate D2E/DX2 analytically  !
 ! D6    D(2,1,7,9)            178.9898         calculate D2E/DX2 analytically  !
 ! D7    D(3,1,7,8)            179.5872         calculate D2E/DX2 analytically  !
 ! D8    D(3,1,7,9)             -1.1348         calculate D2E/DX2 analytically  !
 ! D9    D(1,3,5,6)            177.5553         calculate D2E/DX2 analytically  !
 ! D10   D(1,3,5,45)            -5.419          calculate D2E/DX2 analytically  !
 ! D11   D(4,3,5,6)             -2.1415         calculate D2E/DX2 analytically  !
 ! D12   D(4,3,5,45)           174.8842         calculate D2E/DX2 analytically  !
 ! D13   D(3,5,45,27)          174.239          calculate D2E/DX2 analytically  !
 ! D14   D(3,5,45,46)          -15.2194         calculate D2E/DX2 analytically  !
 ! D15   D(3,5,45,47)           74.1127         calculate D2E/DX2 analytically  !
 ! D16   D(6,5,45,27)           -8.6959         calculate D2E/DX2 analytically  !
 ! D17   D(6,5,45,46)          161.8457         calculate D2E/DX2 analytically  !
 ! D18   D(6,5,45,47)         -108.8222         calculate D2E/DX2 analytically  !
 ! D19   D(1,7,8,10)           179.9607         calculate D2E/DX2 analytically  !
 ! D20   D(1,7,8,11)            -0.5203         calculate D2E/DX2 analytically  !
 ! D21   D(9,7,8,10)             0.6428         calculate D2E/DX2 analytically  !
 ! D22   D(9,7,8,11)          -179.8382         calculate D2E/DX2 analytically  !
 ! D23   D(1,7,9,12)           179.9761         calculate D2E/DX2 analytically  !
 ! D24   D(1,7,9,13)             0.738          calculate D2E/DX2 analytically  !
 ! D25   D(8,7,9,12)            -0.7392         calculate D2E/DX2 analytically  !
 ! D26   D(8,7,9,13)          -179.9772         calculate D2E/DX2 analytically  !
 ! D27   D(7,8,10,14)            0.0694         calculate D2E/DX2 analytically  !
 ! D28   D(7,8,10,15)          179.2197         calculate D2E/DX2 analytically  !
 ! D29   D(11,8,10,14)        -179.451          calculate D2E/DX2 analytically  !
 ! D30   D(11,8,10,15)          -0.3008         calculate D2E/DX2 analytically  !
 ! D31   D(7,9,12,14)            0.1215         calculate D2E/DX2 analytically  !
 ! D32   D(7,9,12,18)         -176.5812         calculate D2E/DX2 analytically  !
 ! D33   D(13,9,12,14)         179.3881         calculate D2E/DX2 analytically  !
 ! D34   D(13,9,12,18)           2.6855         calculate D2E/DX2 analytically  !
 ! D35   D(8,10,14,12)          -0.7038         calculate D2E/DX2 analytically  !
 ! D36   D(8,10,14,16)         178.5541         calculate D2E/DX2 analytically  !
 ! D37   D(15,10,14,12)       -179.8599         calculate D2E/DX2 analytically  !
 ! D38   D(15,10,14,16)         -0.6019         calculate D2E/DX2 analytically  !
 ! D39   D(9,12,14,10)           0.6077         calculate D2E/DX2 analytically  !
 ! D40   D(9,12,14,16)        -178.6901         calculate D2E/DX2 analytically  !
 ! D41   D(18,12,14,10)        177.2459         calculate D2E/DX2 analytically  !
 ! D42   D(18,12,14,16)         -2.0519         calculate D2E/DX2 analytically  !
 ! D43   D(9,12,18,19)        -112.516          calculate D2E/DX2 analytically  !
 ! D44   D(14,12,18,19)         70.8385         calculate D2E/DX2 analytically  !
 ! D45   D(10,14,16,17)          0.1454         calculate D2E/DX2 analytically  !
 ! D46   D(12,14,16,17)        179.4164         calculate D2E/DX2 analytically  !
 ! D47   D(12,18,19,20)         58.5851         calculate D2E/DX2 analytically  !
 ! D48   D(12,18,19,21)        176.9855         calculate D2E/DX2 analytically  !
 ! D49   D(12,18,19,22)        -63.9483         calculate D2E/DX2 analytically  !
 ! D50   D(24,23,25,26)       -179.5878         calculate D2E/DX2 analytically  !
 ! D51   D(24,23,25,27)          1.6602         calculate D2E/DX2 analytically  !
 ! D52   D(29,23,25,26)          1.2944         calculate D2E/DX2 analytically  !
 ! D53   D(29,23,25,27)       -177.4577         calculate D2E/DX2 analytically  !
 ! D54   D(24,23,29,30)          3.3537         calculate D2E/DX2 analytically  !
 ! D55   D(24,23,29,31)       -175.8008         calculate D2E/DX2 analytically  !
 ! D56   D(25,23,29,30)       -177.5001         calculate D2E/DX2 analytically  !
 ! D57   D(25,23,29,31)          3.3453         calculate D2E/DX2 analytically  !
 ! D58   D(23,25,27,28)       -178.3598         calculate D2E/DX2 analytically  !
 ! D59   D(23,25,27,45)          1.2304         calculate D2E/DX2 analytically  !
 ! D60   D(26,25,27,28)          2.8037         calculate D2E/DX2 analytically  !
 ! D61   D(26,25,27,45)       -177.6061         calculate D2E/DX2 analytically  !
 ! D62   D(25,27,45,5)         105.7472         calculate D2E/DX2 analytically  !
 ! D63   D(25,27,45,46)        -65.0295         calculate D2E/DX2 analytically  !
 ! D64   D(25,27,45,47)       -146.2579         calculate D2E/DX2 analytically  !
 ! D65   D(28,27,45,5)         -74.6455         calculate D2E/DX2 analytically  !
 ! D66   D(28,27,45,46)        114.5778         calculate D2E/DX2 analytically  !
 ! D67   D(28,27,45,47)         33.3494         calculate D2E/DX2 analytically  !
 ! D68   D(23,29,30,32)       -178.8243         calculate D2E/DX2 analytically  !
 ! D69   D(23,29,30,33)          0.7079         calculate D2E/DX2 analytically  !
 ! D70   D(31,29,30,32)          0.3635         calculate D2E/DX2 analytically  !
 ! D71   D(31,29,30,33)        179.8957         calculate D2E/DX2 analytically  !
 ! D72   D(23,29,31,34)        178.5195         calculate D2E/DX2 analytically  !
 ! D73   D(23,29,31,35)         -0.224          calculate D2E/DX2 analytically  !
 ! D74   D(30,29,31,34)         -0.6442         calculate D2E/DX2 analytically  !
 ! D75   D(30,29,31,35)       -179.3877         calculate D2E/DX2 analytically  !
 ! D76   D(29,30,32,36)          0.2892         calculate D2E/DX2 analytically  !
 ! D77   D(29,30,32,37)        179.2712         calculate D2E/DX2 analytically  !
 ! D78   D(33,30,32,36)       -179.2437         calculate D2E/DX2 analytically  !
 ! D79   D(33,30,32,37)         -0.2617         calculate D2E/DX2 analytically  !
 ! D80   D(29,31,34,36)          0.2658         calculate D2E/DX2 analytically  !
 ! D81   D(29,31,34,40)       -176.445          calculate D2E/DX2 analytically  !
 ! D82   D(35,31,34,36)        179.0572         calculate D2E/DX2 analytically  !
 ! D83   D(35,31,34,40)          2.3463         calculate D2E/DX2 analytically  !
 ! D84   D(30,32,36,34)         -0.6751         calculate D2E/DX2 analytically  !
 ! D85   D(30,32,36,38)        178.4571         calculate D2E/DX2 analytically  !
 ! D86   D(37,32,36,34)       -179.6666         calculate D2E/DX2 analytically  !
 ! D87   D(37,32,36,38)         -0.5345         calculate D2E/DX2 analytically  !
 ! D88   D(31,34,36,32)          0.399          calculate D2E/DX2 analytically  !
 ! D89   D(31,34,36,38)       -178.7806         calculate D2E/DX2 analytically  !
 ! D90   D(40,34,36,32)        177.0299         calculate D2E/DX2 analytically  !
 ! D91   D(40,34,36,38)         -2.1496         calculate D2E/DX2 analytically  !
 ! D92   D(31,34,40,41)       -112.1415         calculate D2E/DX2 analytically  !
 ! D93   D(36,34,40,41)         71.2182         calculate D2E/DX2 analytically  !
 ! D94   D(32,36,38,39)          0.3693         calculate D2E/DX2 analytically  !
 ! D95   D(34,36,38,39)        179.5197         calculate D2E/DX2 analytically  !
 ! D96   D(34,40,41,42)         58.3722         calculate D2E/DX2 analytically  !
 ! D97   D(34,40,41,43)        176.8051         calculate D2E/DX2 analytically  !
 ! D98   D(34,40,41,44)        -64.1285         calculate D2E/DX2 analytically  !
 ! D99   D(5,45,47,48)         -55.0149         calculate D2E/DX2 analytically  !
 ! D100  D(27,45,47,48)       -176.0618         calculate D2E/DX2 analytically  !
 ! D101  D(45,47,48,50)         85.4795         calculate D2E/DX2 analytically  !
 ! D102  D(46,47,48,50)        128.7677         calculate D2E/DX2 analytically  !
 ! D103  D(47,48,50,49)        172.3995         calculate D2E/DX2 analytically  !
 --------------------------------------------------------------------------------
 Trust Radius=3.00D-01 FncErr=1.00D-07 GrdErr=1.00D-06 EigMax=2.50D+02 EigMin=1.00D-04
 Number of steps in this run=    244 maximum allowed number of steps=    300.
 GradGradGradGradGradGradGradGradGradGradGradGradGradGradGradGradGradGrad

                          Input orientation:                          
 ---------------------------------------------------------------------
 Center     Atomic      Atomic             Coordinates (Angstroms)
 Number     Number       Type             X           Y           Z
 ---------------------------------------------------------------------
      1          6           0       -2.512435    0.257557   -0.198835
      2          1           0       -2.005215    0.537564   -1.118670
      3          6           0       -1.922590    0.536421    0.982985
      4          1           0       -2.409555    0.288520    1.921565
      5          6           0       -0.616659    1.183724    1.174768
      6          8           0       -0.200957    1.427353    2.314580
      7          6           0       -3.797038   -0.395915   -0.407841
      8          6           0       -4.250757   -0.592563   -1.721900
      9          6           0       -4.610817   -0.859226    0.645659
     10          6           0       -5.467996   -1.211138   -1.976096
     11          1           0       -3.645519   -0.249394   -2.554829
     12          6           0       -5.826897   -1.475644    0.408304
     13          1           0       -4.312187   -0.734885    1.680324
     14          6           0       -6.269988   -1.651025   -0.922475
     15          1           0       -5.809575   -1.343844   -2.999280
     16          8           0       -7.479649   -2.235200   -1.109534
     17          1           0       -7.673774   -2.290601   -2.055983
     18          8           0       -6.609526   -1.843074    1.469961
     19          6           0       -6.771542   -3.256451    1.668521
     20          1           0       -5.799630   -3.739096    1.814474
     21          1           0       -7.368094   -3.366712    2.573599
     22          1           0       -7.293444   -3.721877    0.830521
     23          6           0        2.803064    0.214290   -0.099832
     24          1           0        1.868309   -0.307088   -0.292745
     25          6           0        2.755182    1.538408    0.167461
     26          1           0        3.645499    2.127796    0.363498
     27          6           0        1.502006    2.264837    0.237806
     28          8           0        1.436030    3.472935    0.450206
     29          6           0        3.980556   -0.625460   -0.145689
     30          6           0        3.849531   -1.978770   -0.492998
     31          6           0        5.263539   -0.137203    0.164389
     32          6           0        4.956954   -2.815121   -0.522071
     33          1           0        2.870520   -2.379423   -0.734625
     34          6           0        6.373202   -0.958106    0.145275
     35          1           0        5.417022    0.897171    0.448120
     36          6           0        6.221843   -2.320790   -0.198841
     37          1           0        4.844963   -3.864771   -0.780651
     38          8           0        7.332881   -3.095625   -0.180312
     39          1           0        7.104484   -4.003834   -0.424525
     40          8           0        7.584221   -0.448482    0.526150
     41          6           0        8.562452   -0.326554   -0.518199
     42          1           0        8.187896    0.312457   -1.324549
     43          1           0        9.433670    0.142276   -0.061906
     44          1           0        8.843229   -1.301938   -0.919575
     45          6           0        0.235922    1.489403    0.029957
     46          1           0        0.053905    1.040716   -0.940979
     47          1           0       -0.622291    3.048260   -0.847669
     48          8           0       -1.298214    3.605133   -1.276656
     49          8           0       -2.725802    4.995507   -0.518271
     50          7           0       -1.962814    4.176304   -0.171317
 ---------------------------------------------------------------------
                    Distance matrix (angstroms):
                    1          2          3          4          5
     1  C    0.000000
     2  H    1.087094   0.000000
     3  C    1.349956   2.103279   0.000000
     4  H    2.123120   3.077100   1.086058   0.000000
     5  C    2.517645   2.757801   1.470115   2.138591   0.000000
     6  O    3.609516   3.979231   2.351792   2.515811   1.237471
     7  C    1.456336   2.141796   2.513405   2.796371   3.887766
     8  C    2.462559   2.585253   3.743176   4.176263   4.975193
     9  C    2.522614   3.442825   3.047652   2.791202   4.517400
    10  C    3.748475   3.972907   4.937613   5.176369   6.260893
    11  H    2.663003   2.317855   4.012744   4.674940   5.013752
    12  C    3.789230   4.581475   4.429704   4.132851   5.899685
    13  H    2.784832   3.843906   2.795116   2.173836   4.194470
    14  C    4.276160   4.797573   5.226430   5.172363   6.662909
    15  H    4.612820   4.642149   5.873881   6.199957   7.125844
    16  O    5.631734   6.136590   6.552971   6.423595   8.000482
    17  H    6.048267   6.403876   7.092496   7.084120   8.503620
    18  O    4.897314   5.793801   5.278874   4.731532   6.720350
    19  C    5.828830   6.699318   6.194205   5.626525   7.605362
    20  H    5.552684   6.425787   5.831197   5.265526   7.176808
    21  H    6.663268   7.591883   6.886074   6.194593   8.261057
    22  H    6.305039   7.064528   6.855831   6.412958   8.292339
    23  C    5.316597   4.925656   4.858813   5.591328   3.776098
    24  H    4.417982   4.049664   4.087776   4.853662   3.248258
    25  C    5.433465   5.031620   4.852897   5.595856   3.536917
    26  H    6.460198   6.054439   5.824075   6.517222   4.440205
    27  C    4.509497   4.138127   3.907758   4.694804   2.556452
    28  O    5.133253   4.787478   4.493028   5.205182   3.158957
    29  C    6.552975   6.174850   6.121356   6.778084   5.113818
    30  C    6.749985   6.403238   6.467000   7.081446   5.720985
    31  C    7.794456   7.411905   7.263905   7.883228   6.110846
    32  C    8.083168   7.750369   7.799112   8.358792   7.066483
    33  H    6.018051   5.694655   5.867387   6.484787   5.338747
    34  C    8.975009   8.604212   8.470864   9.046884   7.382781
    35  H    7.981475   7.594324   7.367912   7.987290   6.084031
    36  C    9.106892   8.757897   8.711610   9.263134   7.805993
    37  H    8.453603   8.149831   8.263212   8.785205   7.690272
    38  O   10.400693  10.063827  10.010433  10.525464   9.129308
    39  H   10.521194  10.202585  10.202111  10.697915   9.438461
    40  O   10.147244   9.779315   9.568604  10.117604   8.386849
    41  C   11.094877  10.619927  10.627059  11.256807   9.455324
    42  H   10.759523  10.197675  10.372888  11.083492   9.193796
    43  H   11.947446  11.494394  11.411038  12.009060  10.179543
    44  H   11.484886  11.005096  11.086125  11.714384  10.002713
    45  C    3.020473   2.692218   2.544722   3.466821   1.459769
    46  H    2.783921   2.127137   2.804012   3.850791   2.224071
    47  H    3.432441   2.879152   3.369185   4.298736   2.750778
    48  O    3.720524   3.151950   3.861712   4.739580   3.512438
    49  O    4.753497   4.555544   4.773088   5.311171   4.673816
    50  N    3.957198   3.760280   3.818741   4.437860   3.546775
                    6          7          8          9         10
     6  O    0.000000
     7  C    4.864944   0.000000
     8  C    6.064166   1.404024   0.000000
     9  C    5.240287   1.409523   2.409583   0.000000
    10  C    7.287883   2.432306   1.388856   2.780683   0.000000
    11  H    6.195775   2.157309   1.085287   3.398061   2.140399
    12  C    6.611541   2.439720   2.793174   1.383893   2.425724
    13  H    4.688258   2.177318   3.405754   1.084054   3.864210
    14  C    7.535786   2.820573   2.415930   2.416369   1.395281
    15  H    8.208120   3.415323   2.150822   3.867487   1.086827
    16  O    8.838451   4.175759   3.674097   3.633759   2.417929
    17  H    9.421677   4.619014   3.835621   4.327749   2.457047
    18  O    7.244227   3.678383   4.161195   2.375346   3.684799
    19  C    8.094937   4.619699   4.994558   3.385508   4.377873
    20  H    7.634621   4.486192   4.980524   3.327620   4.568257
    21  H    8.626587   5.519697   5.988740   4.196071   5.381133
    22  H    8.889340   4.982009   5.056224   3.927522   4.184874
    23  C    4.040427   6.635402   7.282754   7.528202   8.600154
    24  H    3.753437   5.667212   6.290226   6.569972   7.581052
    25  C    3.655299   6.855958   7.562665   7.761138   8.931713
    26  H    4.369504   7.896546   8.608141   8.784570   9.983886
    27  C    2.813264   5.964590   6.715613   6.876970   8.097203
    28  O    3.215591   6.564240   7.320237   7.441114   8.688674
    29  C    5.268018   7.785395   8.380933   8.630908   9.642020
    30  C    5.990878   7.809142   8.309418   8.609727   9.466000
    31  C    6.077160   9.082314   9.710163   9.912409  10.995493
    32  C    7.255978   9.082840   9.547842   9.835210  10.647372
    33  H    5.763954   6.964009   7.408115   7.758001   8.510992
    34  C    7.322286  10.200773  10.792982  10.995855  12.032382
    35  H    5.943606   9.343642  10.019693  10.182412  11.349247
    36  C    7.849727  10.204254  10.722958  10.963388  11.876123
    37  H    7.940298   9.319664   9.712127  10.023943  10.715782
    38  O    9.134579  11.454925  11.950836  12.179312  13.062870
    39  H    9.506311  11.483054  11.927340  12.177115  12.972038
    40  O    8.205257  11.419639  12.047456  12.202538  13.311771
    41  C    9.375402  12.360177  12.872373  13.235306  14.133698
    42  H    9.211900  12.040797  12.477862  13.002370  13.756062
    43  H   10.006255  13.246168  13.804315  14.097917  15.084943
    44  H    9.985294  12.683024  13.137709  13.552022  14.350458
    45  C    2.326847   4.473350   5.247273   5.420888   6.622073
    46  H    3.288329   4.144624   4.669856   5.280798   6.052578
    47  H    3.578363   4.704764   5.213985   5.779863   6.549555
    48  O    4.340930   4.796597   5.151350   5.882103   6.408804
    49  O    5.208801   5.497924   5.916142   6.259865   6.940268
    50  N    4.103725   4.932090   5.511904   5.747689   6.675931
                   11         12         13         14         15
    11  H    0.000000
    12  C    3.878435   0.000000
    13  H    4.314704   2.112133   0.000000
    14  C    3.393669   1.413528   3.383321   0.000000
    15  H    2.465461   3.410176   4.950929   2.149293   0.000000
    16  O    4.553335   2.369039   4.479628   1.356293   2.674846
    17  H    4.543370   3.185564   5.261227   1.914292   2.293773
    18  O    5.246340   1.369171   2.559317   2.424029   4.567633
    19  C    6.054015   2.377346   3.522337   3.089047   5.135349
    20  H    5.992414   2.664821   3.354961   3.474502   5.376761
    21  H    7.062295   3.261890   4.130741   4.046227   6.130086
    22  H    6.068450   2.715620   4.304902   2.899808   4.745976
    23  C    6.915652   8.808536   7.395721   9.299270   9.220202
    24  H    5.960088   7.814934   6.501888   8.272521   8.206711
    25  C    7.181648   9.099154   7.576564   9.634009   9.575525
    26  H    8.205279  10.134746   8.558840  10.688784  10.618803
    27  C    6.373161   8.230011   6.699555   8.779756   8.772715
    28  O    6.979119   8.788646   7.229173   9.355316   9.359439
    29  C    8.006398   9.859810   8.492107  10.330965  10.222804
    30  C    7.963521   9.731328   8.537225  10.133930   9.999145
    31  C    9.315474  11.173571   9.713383  11.683115  11.579233
    32  C    9.204217  10.906477   9.751661  11.294232  11.145374
    33  H    7.092879   8.818626   7.754209   9.171409   9.030235
    34  C   10.400366  12.213904  10.797395  12.707104  12.587973
    35  H    9.615714  11.491630   9.941803  12.039852  11.955885
    36  C   10.354042  12.093595  10.817215  12.530685  12.391606
    37  H    9.397177  11.000461   9.985288  11.334148  11.171238
    38  O   11.587261  13.272173  12.026748  13.699479  13.555053
    39  H   11.584325  13.202498  12.060547  13.588972  13.434204
    40  O   11.646421  13.450912  11.955696  13.981550  13.878908
    41  C   12.376929  14.464860  13.067386  14.896944  14.620048
    42  H   11.910457  14.234272  12.898770  14.596141  14.194268
    43  H   13.320407  15.353295  13.883564  15.829131  15.594654
    44  H   12.639254  14.731125  13.421848  15.117248  14.799716
    45  C    4.976959   6.759617   5.325079   7.286719   7.331548
    46  H    4.237291   6.537313   5.393213   6.872949   6.656059
    47  H    4.788405   7.009358   5.858180   7.347473   7.129370
    48  O    4.690517   7.011587   6.055041   7.243699   6.914636
    49  O    5.701091   7.235408   6.339387   7.543277   7.473449
    50  N    5.300889   6.871071   5.750470   7.285173   7.298423
                   16         17         18         19         20
    16  O    0.000000
    17  H    0.967739   0.000000
    18  O    2.750395   3.710146   0.000000
    19  C    3.043347   3.952065   1.436423   0.000000
    20  H    3.692423   4.537730   2.090340   1.094925   0.000000
    21  H    3.854638   4.762823   2.028525   1.089586   1.781859
    22  H    2.451264   3.244242   2.099173   1.091443   1.788838
    23  C   10.618554  10.948294   9.761857  10.336643   9.659201
    24  H    9.579618   9.904276   8.794320   9.337683   8.661197
    25  C   10.982832  11.329966  10.041349  10.770438  10.185750
    26  H   12.040535  12.389595  11.052493  11.798642  11.213216
    27  C   10.135866  10.498020   9.175516  10.049038   9.583683
    28  O   10.700697  11.067423   9.696949  10.683312  10.306764
    29  C   11.612776  11.926664  10.781593  11.217000  10.449354
    30  C   11.348841  11.633001  10.642532  10.913836  10.076184
    31  C   12.977415  13.301926  12.065827  12.523390  11.751175
    32  C   12.463969  12.734335  11.776949  11.939476  11.046143
    33  H   10.357961  10.627136   9.747776   9.975653   9.138825
    34  C   13.968071  14.280708  13.080107  13.430821  12.597538
    35  H   13.362715  13.704064  12.377034  12.934568  12.213729
    36  C   13.731991  14.019203  12.948249  13.160188  12.271139
    37  H   12.436226  12.681611  11.847271  11.887459  10.957090
    38  O   14.866568  15.144831  14.095496  14.225990  13.298724
    39  H   14.706945  14.966420  14.011853  14.052883  13.099594
    40  O   15.257392  15.584198  14.293289  14.672342  13.842521
    41  C   16.166064  16.426725  15.376655  15.763801  14.945106
    42  H   15.874784  16.090478  15.212472  15.667813  14.896960
    43  H   17.111700  17.394248  16.237992  16.647961  15.831591
    44  H   16.350639  16.585544  15.645777  15.948023  15.093975
    45  C    8.642982   9.011263   7.748495   8.620474   8.182273
    46  H    8.216719   8.488694   7.650503   8.477138   8.043817
    47  H    8.660651   8.926750   8.071155   9.159360   8.942038
    48  O    8.505737   8.718646   8.089308   9.258117   9.151805
    49  O    8.673625   8.940601   8.111878   9.446951   9.549000
    50  N    8.510176   8.831075   7.779373   9.041831   9.017654
                   21         22         23         24         25
    21  H    0.000000
    22  H    1.780459   0.000000
    23  C   11.109602  10.876509   0.000000
    24  H   10.143390   9.841759   1.087574   0.000000
    25  C   11.503496  11.361564   1.351676   2.098616   0.000000
    26  H   12.504935  12.413592   2.141466   3.085080   1.085575
    27  C   10.763315  10.656078   2.451835   2.651502   1.450206
    28  O   11.349104  11.318731   3.576324   3.876521   2.358496
    29  C   11.987529  11.732172   1.446987   2.141162   2.506378
    30  C   11.711768  11.355880   2.461541   2.599974   3.742238
    31  C   13.258664  13.075605   2.499459   3.430076   3.016544
    32  C   12.719836  12.358154   3.740970   3.985291   4.927116
    33  H   10.805013  10.371019   2.671116   2.343983   4.021997
    34  C   14.160556  13.960129   3.765697   4.572718   4.395810
    35  H   13.643957  13.529146   2.756693   3.820011   2.752335
    36  C   13.909233  13.626651   4.257286   4.797611   5.200512
    37  H   12.675086  12.245702   4.612115   4.664293   5.870302
    38  O   14.959150  14.674582   5.610816   6.135970   6.523077
    39  H   14.793586  14.455275   6.033259   6.410993   7.069888
    40  O   15.371397  15.236557   4.867297   5.776005   5.234120
    41  C   16.510120  16.271346   5.799836   6.697967   6.137801
    42  H   16.453591  16.142864   5.523222   6.433167   5.765712
    43  H   17.365430  17.190825   6.631106   7.582210   6.826712
    44  H   16.711450  16.410702   6.281283   7.073341   6.805404
    45  C    9.374061   9.191828   2.869316   2.448715   2.523486
    46  H    9.320072   8.933311   2.991385   2.351350   2.961965
    47  H    9.917802   9.651702   4.508182   4.215375   3.836335
    48  O   10.013717   9.698869   5.450065   5.128394   4.773557
    49  O   10.051728   9.933548   7.321440   7.019561   6.516360
    50  N    9.677226   9.581261   6.198085   5.898564   5.415972
                   26         27         28         29         30
    26  H    0.000000
    27  C    2.151544   0.000000
    28  O    2.588179   1.228400   0.000000
    29  C    2.819921   3.826760   4.860714   0.000000
    30  C    4.199893   4.904401   6.036200   1.403296   0.000000
    31  C    2.790684   4.463666   5.269214   1.407334   2.413078
    32  C    5.190046   6.190319   7.271993   2.426856   1.388061
    33  H    4.703349   4.938381   6.140984   2.157640   1.085066
    34  C    4.124412   5.841616   6.640992   2.433119   2.796080
    35  H    2.158678   4.152360   4.741610   2.175879   3.407898
    36  C    5.171430   6.595112   7.542713   2.810754   2.414823
    37  H    6.217608   7.055828   8.183994   3.412259   2.151890
    38  O    6.416903   7.931487   8.849655   4.164252   3.671357
    39  H    7.083957   8.433426   9.423301   4.609782   3.834096
    40  O    4.709267   6.666227   7.292704   3.670026   4.162734
    41  C    5.565757   7.558885   8.133868   4.606721   4.994204
    42  H    5.174778   7.138198   7.663294   4.468905   4.976204
    43  H    6.134018   8.216227   8.678582   5.507530   5.988930
    44  H    6.358125   8.243480   8.918650   4.970122   5.057380
    45  C    3.484826   1.499156   2.356113   4.304159   5.035859
    46  H    3.972776   2.232712   3.124317   4.339034   4.870807
    47  H    4.530807   2.510905   2.470124   5.930868   6.737508
    48  O    5.414141   3.454160   3.236606   6.858747   7.635010
    49  O    7.042355   5.089457   4.536190   8.758386   9.585206
    50  N    5.994630   3.978199   3.526069   7.640762   8.471822
                   31         32         33         34         35
    31  C    0.000000
    32  C    2.781450   0.000000
    33  H    3.400341   2.142013   0.000000
    34  C    1.380434   2.428912   3.881127   0.000000
    35  H    1.083508   3.864459   4.315047   2.109040   0.000000
    36  C    2.412122   1.395989   3.394388   1.413589   3.379581
    37  H    3.868213   1.086817   2.471194   3.411972   4.951083
    38  O    3.626742   2.416715   4.553337   2.365582   4.473015
    39  H    4.322815   2.456509   4.545473   3.183694   5.256319
    40  O    2.369247   3.688127   5.247577   1.367973   2.552180
    41  C    3.374108   4.380936   6.054684   2.373156   3.510699
    42  H    3.312249   4.567790   5.989050   2.658539   3.340956
    43  H    4.185608   5.385066   7.063034   3.258869   4.118671
    44  H    3.917367   4.189375   6.071938   2.711671   4.294830
    45  C    5.285911   6.412629   4.742732   6.608313   5.231577
    46  H    5.454321   6.251628   4.435454   6.716305   5.541951
    47  H    6.768636   8.100199   6.455405   8.122428   6.540608
    48  O    7.690143   8.995342   7.313484   9.038565   7.443272
    49  O    9.520520  10.955851   9.260412  10.893928   9.167107
    50  N    8.422542   9.843081   8.164312   9.795487   8.099284
                   36         37         38         39         40
    36  C    0.000000
    37  H    2.148995   0.000000
    38  O    1.354665   2.672401   0.000000
    39  H    1.913799   2.291637   0.967806   0.000000
    40  O    2.426360   4.569715   2.751295   3.711396   0.000000
    41  C    3.091507   5.138831   3.048568   3.956872   1.436129
    42  H    3.473697   5.377756   3.695315   4.540286   2.090105
    43  H    4.049849   6.134269   3.861520   4.769363   2.028612
    44  H    2.903305   4.751162   2.458653   3.250931   2.098478
    45  C    7.099378   7.111085   8.451835   8.806779   7.615714
    46  H    7.063565   6.858844   8.406630   8.684749   7.815103
    47  H    8.722949   8.813930  10.073602  10.469677   9.025598
    48  O    9.634807   9.684220  10.981709  11.367842   9.928724
    49  O   11.562465  11.657180  12.913471  13.327845  11.705742
    50  N   10.449957  10.553483  11.802160  12.214527  10.631133
                   41         42         43         44         45
    41  C    0.000000
    42  H    1.094910   0.000000
    43  H    1.089507   1.781904   0.000000
    44  H    1.091473   1.788781   1.780441   0.000000
    45  C    8.539864   8.151919   9.296330   9.098293   0.000000
    46  H    8.628067   8.175530   9.463612   9.096192   1.084973
    47  H    9.790680   9.237501  10.496881  10.417555   1.984135
    48  O   10.642657  10.041429  11.341972  11.271900   2.921836
    49  O   12.479944  11.903354  13.100186  13.178063   4.622243
    50  N   11.453265  10.922279  12.089880  12.138434   3.477699
                   46         47         48         49         50
    46  H    0.000000
    47  H    2.120420   0.000000
    48  O    2.918414   0.975197   0.000000
    49  O    4.852404   2.885313   2.132204   0.000000
    50  N    3.806763   1.878014   1.410569   1.172016   0.000000
 Stoichiometry    C21H20NO8(2)
 Framework group  C1[X(C21H20NO8)]
 Deg. of freedom   144
 Full point group                 C1      NOp   1
 Largest Abelian subgroup         C1      NOp   1
 Largest concise Abelian subgroup C1      NOp   1
                         Standard orientation:                         
 ---------------------------------------------------------------------
 Center     Atomic      Atomic             Coordinates (Angstroms)
 Number     Number       Type             X           Y           Z
 ---------------------------------------------------------------------
      1          6           0       -2.525498    0.294303   -0.184956
      2          1           0       -2.019193    0.579272   -1.103771
      3          6           0       -1.936280    0.570282    0.997853
      4          1           0       -2.422418    0.317404    1.935534
      5          6           0       -0.632151    1.220519    1.191960
      6          8           0       -0.216982    1.460934    2.332649
      7          6           0       -3.808284   -0.361976   -0.396313
      8          6           0       -4.261626   -0.554848   -1.711061
      9          6           0       -4.620612   -0.831624    0.655500
     10          6           0       -5.477153   -1.175867   -1.967481
     11          1           0       -3.657470   -0.206776   -2.542740
     12          6           0       -5.834983   -1.450548    0.415929
     13          1           0       -4.322193   -0.710421    1.690598
     14          6           0       -6.277760   -1.622059   -0.915459
     15          1           0       -5.818495   -1.305600   -2.991125
     16          8           0       -7.485796   -2.208915   -1.104612
     17          1           0       -7.679893   -2.261224   -2.051242
     18          8           0       -6.616430   -1.824259    1.476263
     19          6           0       -6.774439   -3.238840    1.669408
     20          1           0       -5.801152   -3.719303    1.813383
     21          1           0       -7.370555   -3.354259    2.574130
     22          1           0       -7.295142   -3.702509    0.829690
     23          6           0        2.790115    0.265627   -0.086785
     24          1           0        1.856806   -0.257636   -0.281584
     25          6           0        2.738541    1.588568    0.185603
     26          1           0        3.627221    2.179703    0.383793
     27          6           0        1.483334    2.311189    0.258897
     28          8           0        1.413985    3.518271    0.475949
     29          6           0        3.969961   -0.570620   -0.136017
     30          6           0        3.842700   -1.922949   -0.488510
     31          6           0        5.251606   -0.079947    0.175775
     32          6           0        4.952470   -2.756059   -0.520937
     33          1           0        2.864789   -2.325426   -0.731554
     34          6           0        6.363574   -0.897642    0.153367
     35          1           0        5.402214    0.953756    0.463462
     36          6           0        6.216006   -2.259414   -0.195967
     37          1           0        4.843401   -3.805019   -0.783537
     38          8           0        7.329224   -3.031182   -0.180556
     39          1           0        7.103353   -3.939085   -0.428230
     40          8           0        7.573205   -0.386077    0.536047
     41          6           0        8.550947   -0.257380   -0.507948
     42          1           0        8.174483    0.383668   -1.311788
     43          1           0        9.420903    0.212144   -0.049965
     44          1           0        8.834415   -1.230420   -0.913106
     45          6           0        0.219410    1.532996    0.048227
     46          1           0        0.038526    1.087534   -0.924405
     47          1           0       -0.643308    3.092792   -0.823292
     48          8           0       -1.320855    3.649404   -1.250051
     49          8           0       -2.752250    5.032826   -0.486147
     50          7           0       -1.986911    4.214448   -0.142441
 ---------------------------------------------------------------------
 Rotational constants (GHZ):           0.2063921           0.0493148           0.0424722
 Standard basis: 6-311G(d) (5D, 7F)
 There are   630 symmetry adapted cartesian basis functions of A   symmetry.
 There are   600 symmetry adapted basis functions of A   symmetry.
   600 basis functions,  1060 primitive gaussians,   630 cartesian basis functions
   109 alpha electrons      108 beta electrons
       nuclear repulsion energy      2582.8202932173 Hartrees.
 NAtoms=   50 NActive=   50 NUniq=   50 SFac= 1.00D+00 NAtFMM=   60 NAOKFM=F Big=F
 Integral buffers will be    131072 words long.
 Raffenetti 2 integral format.
 Two-electron integral symmetry is turned on.
 Force inversion solution in PCM.
 Using the following non-standard input for PCM:
 Eps=7
 EpsInf=1.85341
 HbondAcidity=0
 HbondBasicity=0.48
 SurfaceTensionAtInterface=60.62
 CarbonAromaticity=0
 ElectronegativeHalogenicity=0
 --- end of non-standard input.
 Force inversion solution in PCM.
 ------------------------------------------------------------------------------
 Polarizable Continuum Model (PCM)
 =================================
 Model                : PCM.
 Atomic radii         : SMD-Coulomb.
 Polarization charges : Total charges.
 Charge compensation  : None.
 Solution method      : Matrix inversion.
 Cavity type          : VdW (van der Waals Surface) (Alpha=1.000).
 Cavity algorithm     : GePol (No added spheres)
                        Default sphere list used, NSphG=   50.
                        Lebedev-Laikov grids with approx.  5.0 points / Ang**2.
                        Smoothing algorithm: York/Karplus (Gamma=1.0000).
                        Polarization charges: spherical gaussians, with
                                              point-specific exponents (IZeta= 3).
                        Self-potential: point-specific (ISelfS= 7).
                        Self-field    : sphere-specific E.n sum rule (ISelfD= 2).
 1st derivatives      : Analytical E(r).r(x)/FMM algorithm (CHGder, D1EAlg=3).
                        Cavity 1st derivative terms included.
 2nd derivatives      : Analytical E(r).r(xy)/FMM algorithm (CHGder, D2EAlg=3).
                        Cavity 2nd derivative terms included.
 Solvent              : Generic,
                        Eps                           =   7.000000
                        Eps(infinity)                 =   1.853410
                        RSolv                         =   0.000000 Ang.
                        Molar volume                  =   0.000000 cm**3/mol
                        Thermal expansion coefficient =   0.000000 K**-1
                        Absolute temperature          = 298.150000 K
                        Numeral density               =   0.000000 Ang**-3
                        Hydrogen bond acidity         =   0.000000
                        Hydrogen bond basicity        =   0.480000
                        Surface tension at interface  =  60.620000 (cal/mol)*Ang**-2
                        Carbon aromaticity            =   0.000000
                        Electronegative halogenicity  =   0.000000
 ------------------------------------------------------------------------------
 ------------------------------------------------------------------------------
 Atomic radii for non-electrostatic terms: SMD-CDS.
 ------------------------------------------------------------------------------
 Nuclear repulsion after PCM non-electrostatic terms =     2582.8174042784 Hartrees.
 One-electron integrals computed using PRISM.
 NBasis=   600 RedAO= T EigKep=  1.74D-04  NBF=   600
 NBsUse=   600 1.00D-06 EigRej= -1.00D+00 NBFU=   600
 ExpMin= 1.03D-01 ExpMax= 8.59D+03 ExpMxC= 1.30D+03 IAcc=3 IRadAn=         5 AccDes= 0.00D+00
 Harris functional with IExCor=  402 and IRadAn=       5 diagonalized for initial guess.
 HarFok:  IExCor=  402 AccDes= 0.00D+00 IRadAn=         5 IDoV= 1 UseB2=F ITyADJ=14
 ICtDFT=  3500011 ScaDFX=  1.000000  1.000000  1.000000  1.000000
 FoFCou: FMM=F IPFlag=           0 FMFlag=      100000 FMFlg1=           0
         NFxFlg=           0 DoJE=T BraDBF=F KetDBF=T FulRan=T
         wScrn=  0.000000 ICntrl=       500 IOpCl=  0 I1Cent=   200000004 NGrid=           0
         NMat0=    1 NMatS0=      1 NMatT0=    0 NMatD0=    1 NMtDS0=    0 NMtDT0=    0
 Petite list used in FoFCou.
 Initial guess <Sx>= 0.0000 <Sy>= 0.0000 <Sz>= 0.5000 <S**2>= 0.7500 S= 0.5000
 Requested convergence on RMS density matrix=1.00D-08 within 500 cycles.
 Requested convergence on MAX density matrix=1.00D-06.
 Requested convergence on             energy=1.00D-06.
 No special actions if energy rises.
 Inv3:  Mode=1 IEnd=    56689227.
 Iteration    1 A*A^-1 deviation from unit magnitude is 4.44D-15 for   4175.
 Iteration    1 A*A^-1 deviation from orthogonality  is 2.83D-15 for   1632   1462.
 Iteration    1 A^-1*A deviation from unit magnitude is 3.55D-15 for   3083.
 Iteration    1 A^-1*A deviation from orthogonality  is 3.90D-14 for   1665   1632.
 EnCoef did     3 forward-backward iterations
 Restarting incremental Fock formation.
 Error on total polarization charges =  0.03422
 SCF Done:  E(UB3LYP) =  -1468.97157146     A.U. after   22 cycles
            NFock= 22  Conv=0.64D-08     -V/T= 2.0033
 <Sx>= 0.0000 <Sy>= 0.0000 <Sz>= 0.5000 <S**2>= 0.7607 S= 0.5053
 <L.S>=  0.00000000000    
 SMD-CDS (non-electrostatic) energy       (kcal/mol) =      -1.81
 (included in total energy above)
 Annihilation of the first spin contaminant:
 S**2 before annihilation     0.7607,   after     0.7501
 DoSCS=F DFT=T ScalE2(SS,OS)=  1.000000  1.000000
 Range of M.O.s used for correlation:     1   600
 NBasis=   600 NAE=   109 NBE=   108 NFC=     0 NFV=     0
 NROrb=    600 NOA=   109 NOB=   108 NVA=   491 NVB=   492

 **** Warning!!: The largest alpha MO coefficient is  0.16558641D+02


 **** Warning!!: The largest beta MO coefficient is  0.16843324D+02


 **** Warning!!: The smallest beta delta epsilon is  0.83360819D-01

 Symmetrizing basis deriv contribution to polar:
 IMax=3 JMax=2 DiffMx= 0.00D+00
 G2DrvN: will do    26 centers at a time, making    2 passes.
 Calling FoFCou, ICntrl=  3107 FMM=F I1Cent=   0 AccDes= 0.00D+00.
 Calling FoFCou, ICntrl=  3107 FMM=F I1Cent=   0 AccDes= 0.00D+00.
 NEqPCM:  Using equilibrium solvation (IEInf=0, Eps=   7.0000, EpsInf=   1.8534)
 G2PCM: DoFxE=T DoFxN=T DoGrad=T DoDP/DQ/DG/TGxP=FFFF NFrqRd=   0 IEInf=0 SqF1=F DoCFld=F IF1Alg=4.
 End of G2Drv F.D. properties file   721 does not exist.
 End of G2Drv F.D. properties file   722 does not exist.
 End of G2Drv F.D. properties file   788 does not exist.
          IDoAtm=11111111111111111111111111111111111111111111111111
 NEqPCM:  Using equilibrium solvation (IEInf=0, Eps=   7.0000, EpsInf=   1.8534)
          Differentiating once with respect to nuclear coordinates.
 CalDSu exits because no D1Ps are significant.
          There are   153 degrees of freedom in the 1st order CPHF.  IDoFFX=6 NUNeed=     0.
    150 vectors produced by pass  0 Test12= 1.07D-13 1.00D-09 XBig12= 5.02D-01 2.37D-01.
 AX will form    50 AO Fock derivatives at one time.
    150 vectors produced by pass  1 Test12= 1.07D-13 1.00D-09 XBig12= 2.88D-02 3.12D-02.
    149 vectors produced by pass  2 Test12= 1.07D-13 1.00D-09 XBig12= 7.23D-04 3.47D-03.
    147 vectors produced by pass  3 Test12= 1.07D-13 1.00D-09 XBig12= 1.10D-05 4.77D-04.
    147 vectors produced by pass  4 Test12= 1.07D-13 1.00D-09 XBig12= 7.54D-08 2.16D-05.
    145 vectors produced by pass  5 Test12= 1.07D-13 1.00D-09 XBig12= 3.53D-10 1.06D-06.
    104 vectors produced by pass  6 Test12= 1.07D-13 1.00D-09 XBig12= 1.67D-12 6.21D-08.
     21 vectors produced by pass  7 Test12= 1.07D-13 1.00D-09 XBig12= 6.50D-15 4.11D-09.
      7 vectors produced by pass  8 Test12= 1.07D-13 1.00D-09 XBig12= 2.77D-15 2.39D-09.
      5 vectors produced by pass  9 Test12= 1.07D-13 1.00D-09 XBig12= 1.78D-15 2.01D-09.
      5 vectors produced by pass 10 Test12= 1.07D-13 1.00D-09 XBig12= 2.33D-15 3.14D-09.
      4 vectors produced by pass 11 Test12= 1.07D-13 1.00D-09 XBig12= 1.65D-15 2.17D-09.
      4 vectors produced by pass 12 Test12= 1.07D-13 1.00D-09 XBig12= 2.03D-15 2.25D-09.
      4 vectors produced by pass 13 Test12= 1.07D-13 1.00D-09 XBig12= 1.56D-15 2.67D-09.
      2 vectors produced by pass 14 Test12= 1.07D-13 1.00D-09 XBig12= 8.79D-16 1.35D-09.
 InvSVY:  IOpt=1 It=  1 EMax= 6.66D-16
 Solved reduced A of dimension  1044 with   153 vectors.
 End of Minotr F.D. properties file   721 does not exist.
 End of Minotr F.D. properties file   722 does not exist.
 End of Minotr F.D. properties file   788 does not exist.

 **********************************************************************

            Population analysis using the SCF density.

 **********************************************************************

 Orbital symmetries:
 Alpha Orbitals:
       Occupied  (A) (A) (A) (A) (A) (A) (A) (A) (A) (A) (A) (A)
                 (A) (A) (A) (A) (A) (A) (A) (A) (A) (A) (A) (A)
                 (A) (A) (A) (A) (A) (A) (A) (A) (A) (A) (A) (A)
                 (A) (A) (A) (A) (A) (A) (A) (A) (A) (A) (A) (A)
                 (A) (A) (A) (A) (A) (A) (A) (A) (A) (A) (A) (A)
                 (A) (A) (A) (A) (A) (A) (A) (A) (A) (A) (A) (A)
                 (A) (A) (A) (A) (A) (A) (A) (A) (A) (A) (A) (A)
                 (A) (A) (A) (A) (A) (A) (A) (A) (A) (A) (A) (A)
                 (A) (A) (A) (A) (A) (A) (A) (A) (A) (A) (A) (A)
                 (A)
       Virtual   (A) (A) (A) (A) (A) (A) (A) (A) (A) (A) (A) (A)
                 (A) (A) (A) (A) (A) (A) (A) (A) (A) (A) (A) (A)
                 (A) (A) (A) (A) (A) (A) (A) (A) (A) (A) (A) (A)
                 (A) (A) (A) (A) (A) (A) (A) (A) (A) (A) (A) (A)
                 (A) (A) (A) (A) (A) (A) (A) (A) (A) (A) (A) (A)
                 (A) (A) (A) (A) (A) (A) (A) (A) (A) (A) (A) (A)
                 (A) (A) (A) (A) (A) (A) (A) (A) (A) (A) (A) (A)
                 (A) (A) (A) (A) (A) (A) (A) (A) (A) (A) (A) (A)
                 (A) (A) (A) (A) (A) (A) (A) (A) (A) (A) (A) (A)
                 (A) (A) (A) (A) (A) (A) (A) (A) (A) (A) (A) (A)
                 (A) (A) (A) (A) (A) (A) (A) (A) (A) (A) (A) (A)
                 (A) (A) (A) (A) (A) (A) (A) (A) (A) (A) (A) (A)
                 (A) (A) (A) (A) (A) (A) (A) (A) (A) (A) (A) (A)
                 (A) (A) (A) (A) (A) (A) (A) (A) (A) (A) (A) (A)
                 (A) (A) (A) (A) (A) (A) (A) (A) (A) (A) (A) (A)
                 (A) (A) (A) (A) (A) (A) (A) (A) (A) (A) (A) (A)
                 (A) (A) (A) (A) (A) (A) (A) (A) (A) (A) (A) (A)
                 (A) (A) (A) (A) (A) (A) (A) (A) (A) (A) (A) (A)
                 (A) (A) (A) (A) (A) (A) (A) (A) (A) (A) (A) (A)
                 (A) (A) (A) (A) (A) (A) (A) (A) (A) (A) (A) (A)
                 (A) (A) (A) (A) (A) (A) (A) (A) (A) (A) (A) (A)
                 (A) (A) (A) (A) (A) (A) (A) (A) (A) (A) (A) (A)
                 (A) (A) (A) (A) (A) (A) (A) (A) (A) (A) (A) (A)
                 (A) (A) (A) (A) (A) (A) (A) (A) (A) (A) (A) (A)
                 (A) (A) (A) (A) (A) (A) (A) (A) (A) (A) (A) (A)
                 (A) (A) (A) (A) (A) (A) (A) (A) (A) (A) (A) (A)
                 (A) (A) (A) (A) (A) (A) (A) (A) (A) (A) (A) (A)
                 (A) (A) (A) (A) (A) (A) (A) (A) (A) (A) (A) (A)
                 (A) (A) (A) (A) (A) (A) (A) (A) (A) (A) (A) (A)
                 (A) (A) (A) (A) (A) (A) (A) (A) (A) (A) (A) (A)
                 (A) (A) (A) (A) (A) (A) (A) (A) (A) (A) (A) (A)
                 (A) (A) (A) (A) (A) (A) (A) (A) (A) (A) (A) (A)
                 (A) (A) (A) (A) (A) (A) (A) (A) (A) (A) (A) (A)
                 (A) (A) (A) (A) (A) (A) (A) (A) (A) (A) (A) (A)
                 (A) (A) (A) (A) (A) (A) (A) (A) (A) (A) (A) (A)
                 (A) (A) (A) (A) (A) (A) (A) (A) (A) (A) (A) (A)
                 (A) (A) (A) (A) (A) (A) (A) (A) (A) (A) (A) (A)
                 (A) (A) (A) (A) (A) (A) (A) (A) (A) (A) (A) (A)
                 (A) (A) (A) (A) (A) (A) (A) (A) (A) (A) (A) (A)
                 (A) (A) (A) (A) (A) (A) (A) (A) (A) (A) (A) (A)
                 (A) (A) (A) (A) (A) (A) (A) (A) (A) (A) (A)
 Beta  Orbitals:
       Occupied  (A) (A) (A) (A) (A) (A) (A) (A) (A) (A) (A) (A)
                 (A) (A) (A) (A) (A) (A) (A) (A) (A) (A) (A) (A)
                 (A) (A) (A) (A) (A) (A) (A) (A) (A) (A) (A) (A)
                 (A) (A) (A) (A) (A) (A) (A) (A) (A) (A) (A) (A)
                 (A) (A) (A) (A) (A) (A) (A) (A) (A) (A) (A) (A)
                 (A) (A) (A) (A) (A) (A) (A) (A) (A) (A) (A) (A)
                 (A) (A) (A) (A) (A) (A) (A) (A) (A) (A) (A) (A)
                 (A) (A) (A) (A) (A) (A) (A) (A) (A) (A) (A) (A)
                 (A) (A) (A) (A) (A) (A) (A) (A) (A) (A) (A) (A)
       Virtual   (A) (A) (A) (A) (A) (A) (A) (A) (A) (A) (A) (A)
                 (A) (A) (A) (A) (A) (A) (A) (A) (A) (A) (A) (A)
                 (A) (A) (A) (A) (A) (A) (A) (A) (A) (A) (A) (A)
                 (A) (A) (A) (A) (A) (A) (A) (A) (A) (A) (A) (A)
                 (A) (A) (A) (A) (A) (A) (A) (A) (A) (A) (A) (A)
                 (A) (A) (A) (A) (A) (A) (A) (A) (A) (A) (A) (A)
                 (A) (A) (A) (A) (A) (A) (A) (A) (A) (A) (A) (A)
                 (A) (A) (A) (A) (A) (A) (A) (A) (A) (A) (A) (A)
                 (A) (A) (A) (A) (A) (A) (A) (A) (A) (A) (A) (A)
                 (A) (A) (A) (A) (A) (A) (A) (A) (A) (A) (A) (A)
                 (A) (A) (A) (A) (A) (A) (A) (A) (A) (A) (A) (A)
                 (A) (A) (A) (A) (A) (A) (A) (A) (A) (A) (A) (A)
                 (A) (A) (A) (A) (A) (A) (A) (A) (A) (A) (A) (A)
                 (A) (A) (A) (A) (A) (A) (A) (A) (A) (A) (A) (A)
                 (A) (A) (A) (A) (A) (A) (A) (A) (A) (A) (A) (A)
                 (A) (A) (A) (A) (A) (A) (A) (A) (A) (A) (A) (A)
                 (A) (A) (A) (A) (A) (A) (A) (A) (A) (A) (A) (A)
                 (A) (A) (A) (A) (A) (A) (A) (A) (A) (A) (A) (A)
                 (A) (A) (A) (A) (A) (A) (A) (A) (A) (A) (A) (A)
                 (A) (A) (A) (A) (A) (A) (A) (A) (A) (A) (A) (A)
                 (A) (A) (A) (A) (A) (A) (A) (A) (A) (A) (A) (A)
                 (A) (A) (A) (A) (A) (A) (A) (A) (A) (A) (A) (A)
                 (A) (A) (A) (A) (A) (A) (A) (A) (A) (A) (A) (A)
                 (A) (A) (A) (A) (A) (A) (A) (A) (A) (A) (A) (A)
                 (A) (A) (A) (A) (A) (A) (A) (A) (A) (A) (A) (A)
                 (A) (A) (A) (A) (A) (A) (A) (A) (A) (A) (A) (A)
                 (A) (A) (A) (A) (A) (A) (A) (A) (A) (A) (A) (A)
                 (A) (A) (A) (A) (A) (A) (A) (A) (A) (A) (A) (A)
                 (A) (A) (A) (A) (A) (A) (A) (A) (A) (A) (A) (A)
                 (A) (A) (A) (A) (A) (A) (A) (A) (A) (A) (A) (A)
                 (A) (A) (A) (A) (A) (A) (A) (A) (A) (A) (A) (A)
                 (A) (A) (A) (A) (A) (A) (A) (A) (A) (A) (A) (A)
                 (A) (A) (A) (A) (A) (A) (A) (A) (A) (A) (A) (A)
                 (A) (A) (A) (A) (A) (A) (A) (A) (A) (A) (A) (A)
                 (A) (A) (A) (A) (A) (A) (A) (A) (A) (A) (A) (A)
                 (A) (A) (A) (A) (A) (A) (A) (A) (A) (A) (A) (A)
                 (A) (A) (A) (A) (A) (A) (A) (A) (A) (A) (A) (A)
                 (A) (A) (A) (A) (A) (A) (A) (A) (A) (A) (A) (A)
                 (A) (A) (A) (A) (A) (A) (A) (A) (A) (A) (A) (A)
                 (A) (A) (A) (A) (A) (A) (A) (A) (A) (A) (A) (A)
                 (A) (A) (A) (A) (A) (A) (A) (A) (A) (A) (A) (A)
 The electronic state is 2-A.
 Alpha  occ. eigenvalues --  -19.19358 -19.17922 -19.16508 -19.16364 -19.13688
 Alpha  occ. eigenvalues --  -19.13614 -19.11180 -19.10393 -14.48954 -10.26595
 Alpha  occ. eigenvalues --  -10.25943 -10.25184 -10.24993 -10.23476 -10.23422
 Alpha  occ. eigenvalues --  -10.21405 -10.20809 -10.20773 -10.20200 -10.19868
 Alpha  occ. eigenvalues --  -10.19105 -10.19080 -10.18709 -10.18511 -10.18380
 Alpha  occ. eigenvalues --  -10.18244 -10.18217 -10.18150 -10.17872 -10.17710
 Alpha  occ. eigenvalues --   -1.23087  -1.08636  -1.08455  -1.05861  -1.05268
 Alpha  occ. eigenvalues --   -1.05126  -1.04792  -1.03567  -0.87351  -0.87087
 Alpha  occ. eigenvalues --   -0.82270  -0.81226  -0.77875  -0.76601  -0.76413
 Alpha  occ. eigenvalues --   -0.75149  -0.73171  -0.69188  -0.69099  -0.68408
 Alpha  occ. eigenvalues --   -0.67147  -0.66274  -0.63369  -0.62296  -0.59134
 Alpha  occ. eigenvalues --   -0.58995  -0.57443  -0.56902  -0.56158  -0.55805
 Alpha  occ. eigenvalues --   -0.52597  -0.51838  -0.51717  -0.51235  -0.50771
 Alpha  occ. eigenvalues --   -0.50572  -0.50511  -0.48327  -0.47878  -0.47624
 Alpha  occ. eigenvalues --   -0.46865  -0.46503  -0.46389  -0.44624  -0.44432
 Alpha  occ. eigenvalues --   -0.44275  -0.43940  -0.43363  -0.42896  -0.42298
 Alpha  occ. eigenvalues --   -0.41902  -0.41847  -0.41458  -0.41241  -0.40789
 Alpha  occ. eigenvalues --   -0.39553  -0.38580  -0.38203  -0.38096  -0.37837
 Alpha  occ. eigenvalues --   -0.37441  -0.37213  -0.36611  -0.36401  -0.34727
 Alpha  occ. eigenvalues --   -0.34522  -0.34369  -0.29815  -0.29656  -0.28633
 Alpha  occ. eigenvalues --   -0.28567  -0.27964  -0.27194  -0.26523  -0.25736
 Alpha  occ. eigenvalues --   -0.25609  -0.25285  -0.22506  -0.22102
 Alpha virt. eigenvalues --   -0.08157  -0.07975  -0.06918  -0.01642  -0.01496
 Alpha virt. eigenvalues --    0.00559   0.01725   0.03618   0.03680   0.04997
 Alpha virt. eigenvalues --    0.06247   0.06314   0.06980   0.07147   0.07397
 Alpha virt. eigenvalues --    0.08026   0.08278   0.08883   0.10201   0.10849
 Alpha virt. eigenvalues --    0.11529   0.11837   0.12216   0.12292   0.13083
 Alpha virt. eigenvalues --    0.13669   0.14350   0.14483   0.15858   0.15989
 Alpha virt. eigenvalues --    0.16312   0.16504   0.16729   0.17184   0.19915
 Alpha virt. eigenvalues --    0.20719   0.21589   0.22555   0.23742   0.24742
 Alpha virt. eigenvalues --    0.24903   0.25592   0.26402   0.27291   0.28061
 Alpha virt. eigenvalues --    0.28489   0.29187   0.29705   0.30366   0.30547
 Alpha virt. eigenvalues --    0.31060   0.31386   0.32362   0.32469   0.33897
 Alpha virt. eigenvalues --    0.34619   0.35000   0.35210   0.35401   0.35915
 Alpha virt. eigenvalues --    0.36004   0.37008   0.37168   0.37909   0.38143
 Alpha virt. eigenvalues --    0.38332   0.39205   0.39519   0.39608   0.39975
 Alpha virt. eigenvalues --    0.40367   0.40826   0.41711   0.42067   0.42591
 Alpha virt. eigenvalues --    0.42742   0.42966   0.43158   0.44008   0.44497
 Alpha virt. eigenvalues --    0.44872   0.45038   0.45502   0.45700   0.46227
 Alpha virt. eigenvalues --    0.46830   0.47425   0.47935   0.48957   0.49155
 Alpha virt. eigenvalues --    0.49736   0.50765   0.51078   0.51600   0.51979
 Alpha virt. eigenvalues --    0.52476   0.53332   0.54358   0.54746   0.55436
 Alpha virt. eigenvalues --    0.55682   0.56507   0.57201   0.57394   0.57895
 Alpha virt. eigenvalues --    0.57930   0.58366   0.58614   0.58658   0.59078
 Alpha virt. eigenvalues --    0.59195   0.59384   0.60581   0.61113   0.61265
 Alpha virt. eigenvalues --    0.61577   0.62326   0.62624   0.62843   0.63202
 Alpha virt. eigenvalues --    0.63525   0.63922   0.64207   0.65114   0.65232
 Alpha virt. eigenvalues --    0.66534   0.66844   0.67012   0.68258   0.68829
 Alpha virt. eigenvalues --    0.69582   0.70734   0.71142   0.71598   0.73823
 Alpha virt. eigenvalues --    0.74653   0.74918   0.75319   0.76062   0.77178
 Alpha virt. eigenvalues --    0.77647   0.78403   0.78587   0.78863   0.79219
 Alpha virt. eigenvalues --    0.79581   0.79808   0.80522   0.80646   0.80950
 Alpha virt. eigenvalues --    0.82227   0.82546   0.83173   0.83837   0.84349
 Alpha virt. eigenvalues --    0.84381   0.85828   0.85977   0.87053   0.87590
 Alpha virt. eigenvalues --    0.88354   0.88533   0.89922   0.90376   0.90639
 Alpha virt. eigenvalues --    0.91621   0.92907   0.93701   0.94112   0.95042
 Alpha virt. eigenvalues --    0.95627   0.96421   0.96861   0.96928   0.97641
 Alpha virt. eigenvalues --    0.98160   0.99287   0.99907   1.01367   1.02800
 Alpha virt. eigenvalues --    1.03252   1.04270   1.05046   1.05748   1.06307
 Alpha virt. eigenvalues --    1.08030   1.09007   1.09294   1.10023   1.11564
 Alpha virt. eigenvalues --    1.13410   1.13784   1.14707   1.14970   1.15200
 Alpha virt. eigenvalues --    1.16067   1.16471   1.18794   1.19673   1.20190
 Alpha virt. eigenvalues --    1.21094   1.23071   1.23107   1.23525   1.23822
 Alpha virt. eigenvalues --    1.25190   1.26944   1.27934   1.28884   1.29050
 Alpha virt. eigenvalues --    1.34659   1.35463   1.36205   1.37470   1.37883
 Alpha virt. eigenvalues --    1.38506   1.43255   1.44090   1.44553   1.45340
 Alpha virt. eigenvalues --    1.45538   1.46709   1.46815   1.47388   1.49873
 Alpha virt. eigenvalues --    1.49948   1.50469   1.51565   1.52053   1.52742
 Alpha virt. eigenvalues --    1.52978   1.53249   1.54755   1.55071   1.55611
 Alpha virt. eigenvalues --    1.55943   1.56871   1.58303   1.59179   1.59592
 Alpha virt. eigenvalues --    1.60908   1.62442   1.62716   1.64701   1.66165
 Alpha virt. eigenvalues --    1.67704   1.68439   1.68775   1.68993   1.70077
 Alpha virt. eigenvalues --    1.70808   1.71372   1.72365   1.73826   1.74171
 Alpha virt. eigenvalues --    1.75691   1.76033   1.76575   1.77267   1.78125
 Alpha virt. eigenvalues --    1.78963   1.79545   1.80349   1.81249   1.82267
 Alpha virt. eigenvalues --    1.83286   1.83536   1.83801   1.84015   1.84338
 Alpha virt. eigenvalues --    1.86717   1.87778   1.89137   1.90553   1.90754
 Alpha virt. eigenvalues --    1.93191   1.95260   1.95489   1.97352   1.99689
 Alpha virt. eigenvalues --    2.00665   2.02408   2.02580   2.03679   2.05354
 Alpha virt. eigenvalues --    2.08481   2.09314   2.10507   2.10674   2.13593
 Alpha virt. eigenvalues --    2.13778   2.15030   2.16769   2.17212   2.19226
 Alpha virt. eigenvalues --    2.21981   2.23716   2.24371   2.28008   2.28359
 Alpha virt. eigenvalues --    2.29059   2.29959   2.31147   2.31302   2.31375
 Alpha virt. eigenvalues --    2.31763   2.33166   2.33890   2.35838   2.37150
 Alpha virt. eigenvalues --    2.38478   2.38789   2.39080   2.40618   2.40741
 Alpha virt. eigenvalues --    2.43885   2.45396   2.47319   2.50335   2.50718
 Alpha virt. eigenvalues --    2.51089   2.52453   2.53922   2.56512   2.58260
 Alpha virt. eigenvalues --    2.62387   2.63520   2.64290   2.64876   2.65439
 Alpha virt. eigenvalues --    2.66066   2.68050   2.69604   2.71085   2.73661
 Alpha virt. eigenvalues --    2.74822   2.74967   2.75755   2.76177   2.76418
 Alpha virt. eigenvalues --    2.78952   2.79929   2.80775   2.81200   2.81231
 Alpha virt. eigenvalues --    2.84778   2.84959   2.85544   2.89034   2.89683
 Alpha virt. eigenvalues --    2.90446   2.91243   2.92482   2.93413   2.94382
 Alpha virt. eigenvalues --    2.94892   2.95430   2.95910   2.97025   2.98226
 Alpha virt. eigenvalues --    2.98945   2.99232   2.99977   3.02852   3.03208
 Alpha virt. eigenvalues --    3.03559   3.03937   3.08327   3.08546   3.08792
 Alpha virt. eigenvalues --    3.09912   3.12200   3.13010   3.14362   3.14530
 Alpha virt. eigenvalues --    3.14633   3.14760   3.15917   3.16423   3.17128
 Alpha virt. eigenvalues --    3.18108   3.19283   3.20272   3.20790   3.22400
 Alpha virt. eigenvalues --    3.24198   3.25147   3.25178   3.28972   3.29523
 Alpha virt. eigenvalues --    3.29624   3.29713   3.30562   3.31305   3.31426
 Alpha virt. eigenvalues --    3.31729   3.33219   3.33366   3.34968   3.35306
 Alpha virt. eigenvalues --    3.39414   3.39743   3.45198   3.45515   3.46331
 Alpha virt. eigenvalues --    3.47156   3.48313   3.48978   3.50013   3.51815
 Alpha virt. eigenvalues --    3.54243   3.56574   3.59418   3.59570   3.64575
 Alpha virt. eigenvalues --    3.65265   3.70232   3.71394   3.71430   3.85570
 Alpha virt. eigenvalues --    3.87036   3.87105   3.89691   3.89873   3.94004
 Alpha virt. eigenvalues --    3.94575   3.97055   4.00146   4.06115   4.07239
 Alpha virt. eigenvalues --    4.07312   4.16800   4.27143   4.44488   4.55385
 Alpha virt. eigenvalues --    4.78131   4.78648   4.78990   4.79203   4.80773
 Alpha virt. eigenvalues --    4.80893   4.84037   4.89692   4.90701   4.92857
 Alpha virt. eigenvalues --    4.96596   4.96644   5.03536   5.05957   5.10889
 Alpha virt. eigenvalues --    5.10950   5.16201   5.16336   5.30396   5.50032
 Alpha virt. eigenvalues --    5.50199   5.58905   5.60231   5.68154   5.68163
 Alpha virt. eigenvalues --    5.79806  23.22311  23.24615  23.42166  23.42174
 Alpha virt. eigenvalues --   23.53224  23.57330  23.72671  23.78460  23.78463
 Alpha virt. eigenvalues --   23.83564  23.86051  23.86583  23.90504  23.98670
 Alpha virt. eigenvalues --   23.99012  24.05202  24.05777  24.11690  24.12055
 Alpha virt. eigenvalues --   24.14172  24.14942  35.25860  49.76239  49.82995
 Alpha virt. eigenvalues --   49.86301  49.86370  49.92792  49.92808  49.96892
 Alpha virt. eigenvalues --   49.97863
  Beta  occ. eigenvalues --  -19.19349 -19.17806 -19.16507 -19.16356 -19.13688
  Beta  occ. eigenvalues --  -19.13614 -19.11005 -19.09869 -14.48956 -10.26666
  Beta  occ. eigenvalues --  -10.26098 -10.25183 -10.24984 -10.23476 -10.23423
  Beta  occ. eigenvalues --  -10.20809 -10.20773 -10.20239 -10.20178 -10.19867
  Beta  occ. eigenvalues --  -10.19100 -10.19076 -10.18708 -10.18506 -10.18380
  Beta  occ. eigenvalues --  -10.18245 -10.18215 -10.18147 -10.17828 -10.17691
  Beta  occ. eigenvalues --   -1.23053  -1.08634  -1.08441  -1.05624  -1.05268
  Beta  occ. eigenvalues --   -1.05124  -1.04340  -1.02734  -0.87336  -0.87067
  Beta  occ. eigenvalues --   -0.81846  -0.81112  -0.76763  -0.76570  -0.76396
  Beta  occ. eigenvalues --   -0.75066  -0.72198  -0.69187  -0.69096  -0.68275
  Beta  occ. eigenvalues --   -0.67089  -0.66160  -0.63305  -0.62194  -0.59089
  Beta  occ. eigenvalues --   -0.58960  -0.57243  -0.56691  -0.56139  -0.55749
  Beta  occ. eigenvalues --   -0.52404  -0.51701  -0.51612  -0.50968  -0.50692
  Beta  occ. eigenvalues --   -0.50478  -0.50219  -0.48179  -0.47812  -0.47565
  Beta  occ. eigenvalues --   -0.46501  -0.46445  -0.46363  -0.44461  -0.44400
  Beta  occ. eigenvalues --   -0.44243  -0.43840  -0.43156  -0.42838  -0.42055
  Beta  occ. eigenvalues --   -0.41709  -0.41592  -0.41247  -0.41162  -0.39686
  Beta  occ. eigenvalues --   -0.39299  -0.38452  -0.38174  -0.38046  -0.37808
  Beta  occ. eigenvalues --   -0.37398  -0.37092  -0.36516  -0.36250  -0.34603
  Beta  occ. eigenvalues --   -0.34493  -0.34328  -0.29681  -0.29227  -0.28627
  Beta  occ. eigenvalues --   -0.28548  -0.27752  -0.26445  -0.25606  -0.25592
[...]
 00066949,-0.00025410,0.00012956,0.00022747,-0.00003098,-0.00026880,0.0
 0000225,0.00000444,0.00005389,-0.00005396,-0.00002484,0.00002176,0.000
 01363,0.00003619,0.00000807,0.00225806,0.00071871,-0.00057837,-0.00094
 196,-0.00086538,-0.00012174,-0.14835831,0.14660296,0.00026538,-0.00002
 306,0.00024607,0.00001786,0.00000311,0.00002057,-0.00032894,-0.0001085
 8,-0.00014752,-0.00003251,-0.00003185,0.00000537,0.00025156,0.00073138
 ,-0.00022472,-0.00014655,-0.00016857,0.00012190,-0.00017864,-0.0000487
 4,-0.00004273,0.00007194,-0.00002238,0.00010648,0.00004220,0.00005225,
 -0.00005725,-0.00007160,-0.00005586,0.00004333,0.00000530,0.00000496,-
 0.00000731,-0.00005441,0.00002626,-0.00010129,0.00000854,0.00000545,-0
 .00000284,0.00012261,0.00004838,0.00001077,-0.00001262,-0.00000398,-0.
 00000605,-0.00014761,-0.00005412,-0.00002563,0.00001417,-0.00000476,0.
 00001784,-0.00002182,-0.00003960,0.00002858,0.00000644,0.00002709,0.00
 000384,0.00000101,-0.00000282,-0.00000023,0.00000044,-0.00000391,0.000
 00211,-0.00000182,0.00000085,-0.00000400,-0.00039721,0.00151733,0.0000
 1657,-0.00004685,0.00002352,0.00010701,0.00103294,-0.00224913,0.002215
 73,0.00000788,0.00005019,0.00002802,0.00109902,0.00491936,-0.00221824,
 0.00120508,-0.00716240,-0.00706600,0.00062610,-0.00059554,-0.00021113,
 -0.00001810,0.00044538,-0.00009788,-0.00034299,-0.00012268,0.00000300,
 0.00038652,0.00003287,0.00004856,-0.00002639,-0.00000042,-0.00000634,-
 0.00009231,-0.00046302,0.00003589,-0.00003557,0.00002814,0.00000216,-0
 .00042114,0.00026002,-0.00005865,0.00002066,-0.00003532,0.00001440,0.0
 0048388,-0.00035121,0.00005109,-0.00001185,0.00008163,-0.00000494,0.00
 024793,0.00009505,-0.00005850,-0.00008558,0.00000953,0.00011515,-0.000
 00170,0.00000030,-0.00002432,0.00001879,0.00000848,-0.00000909,-0.0000
 0443,-0.00001380,-0.00000337,-0.00005054,-0.00016065,-0.00089086,-0.00
 021354,-0.00006199,0.00020603,0.06034680,-0.04297361,0.09901640,-0.000
 41992,-0.00002710,-0.00036758,-0.00008328,-0.00000082,-0.00002110,0.00
 059074,0.00022455,0.00014006,0.00007575,0.00009068,-0.00000916,-0.0003
 7007,-0.00113260,0.00082341,0.00020409,0.00021945,-0.00044301,0.000298
 13,0.00009884,0.00005598,-0.00011806,-0.00000075,-0.00016821,-0.000055
 17,-0.00010158,0.00009062,0.00013285,0.00007425,-0.00008474,-0.0000296
 9,0.00001881,0.00002572,0.00009338,-0.00003281,0.00015543,-0.00002241,
 0.00000863,0.00000790,-0.00019455,-0.00006602,-0.00000477,0.00001287,0
 .00001753,0.00001656,0.00024074,0.00006895,0.00002938,-0.00002701,0.00
 002319,-0.00001820,0.00003329,0.00003356,-0.00005313,-0.00001266,-0.00
 000844,0.00000169,0.00000467,-0.00000099,0.00000038,-0.00000013,0.0000
 0512,-0.00000459,-0.00000051,-0.00000309,0.00000449,0.00032953,-0.0025
 1803,0.00042833,0.00008761,-0.00002280,-0.00004481,-0.00142201,0.00541
 350,-0.00100560,0.00006506,-0.00011734,-0.00008468,-0.00603523,-0.0097
 4664,0.00258187,-0.01208191,0.02659807,-0.00922934,-0.00101075,0.00105
 976,-0.00007252,-0.00000055,-0.00078169,0.00006088,0.00059857,0.000203
 07,-0.00000091,-0.00067735,-0.00004212,-0.00003618,0.00005001,-0.00000
 088,0.00000586,0.00018161,0.00081401,-0.00004531,0.00007147,-0.0000512
 8,0.00001055,0.00076148,-0.00048421,0.00010674,-0.00004176,0.00007016,
 -0.00000650,-0.00087843,0.00064440,-0.00011223,0.00002426,-0.00015029,
 0.00002205,-0.00044984,-0.00015645,0.00008019,0.00015774,-0.00002747,-
 0.00017252,-0.00000053,0.00000126,0.00003129,-0.00003426,-0.00001915,0
 .00001550,0.00000855,0.00002873,0.00000419,0.00105254,0.00048924,-0.00
 055306,-0.00052099,0.00000564,0.00006845,-0.21830374,0.14410901,-0.106
 04211,0.34182405,0.00043452,0.00009364,0.00029808,0.00007393,-0.000076
 81,-0.00000729,-0.00053463,-0.00024344,-0.00013931,-0.00007104,-0.0000
 8296,0.00002964,0.00055434,0.00116562,-0.00104762,-0.00011153,-0.00028
 428,0.00069989,-0.00029639,-0.00012071,-0.00002387,0.00013551,0.000009
 90,0.00012956,0.00005086,0.00009619,-0.00010213,-0.00012882,-0.0001020
 9,0.00011055,0.00001531,0.00000411,0.00000188,-0.00008301,0.00006443,-
 0.00021065,0.00002430,-0.00000565,-0.00000370,0.00024980,0.00009254,0.
 00001840,-0.00001377,-0.00000920,-0.00001881,-0.00030354,-0.00010271,-
 0.00003446,0.00003881,-0.00001361,0.00002413,-0.00006880,-0.00009720,0
 .00009930,0.00002035,0.00005212,0.00000424,-0.00000154,-0.00000441,-0.
 00000430,-0.00000210,-0.00001074,0.00000831,-0.00000008,0.00000165,-0.
 00000861,-0.00035217,0.00210573,-0.00039175,-0.00007864,0.00003360,0.0
 0002361,0.00137127,-0.00444895,0.00066751,-0.00005793,0.00010688,0.000
 06582,0.00330998,0.00913982,-0.00206055,0.01466890,-0.01722901,0.00741
 542,0.00086054,-0.00087658,0.00009134,-0.00000452,0.00066693,-0.000044
 27,-0.00050562,-0.00018651,0.00000045,0.00058394,0.00004074,0.00002866
 ,-0.00004138,0.00000392,-0.00000528,-0.00016771,-0.00070584,0.00003751
 ,-0.00006366,0.00004305,-0.00000900,-0.00065762,0.00041470,-0.00009110
 ,0.00003435,-0.00005937,0.00000347,0.00075760,-0.00055058,0.00009721,-
 0.00002238,0.00012787,-0.00001983,0.00040158,0.00014611,-0.00007054,-0
 .00013797,0.00002142,0.00015211,-0.00000050,-0.00000329,-0.00002904,0.
 00003224,0.00001601,-0.00001255,-0.00000796,-0.00002288,-0.00000481,-0
 .00161325,-0.00082031,-0.00003201,0.00042885,-0.00193512,0.00102298,0.
 14829170,-0.13247940,0.07846916,-0.24801512,0.20968238,0.00021903,0.00
 010900,0.00004351,0.00014444,0.00000643,0.00004992,-0.00029887,-0.0000
 8421,-0.00005348,-0.00002671,-0.00006841,0.00002478,0.00051184,0.00065
 939,-0.00080753,-0.00001197,-0.00019404,0.00064134,-0.00015363,-0.0000
 8738,0.00000696,0.00008598,0.00003934,0.00003060,0.00001266,0.00006883
 ,-0.00005666,-0.00007750,-0.00005041,0.00008235,0.00003250,-0.00000228
 ,0.00001356,-0.00004287,0.00003571,-0.00012038,0.00002031,-0.00001925,
 -0.00000074,0.00014188,0.00004701,0.00000072,0.00000328,-0.00000759,-0
 .00001534,-0.00017465,-0.00004855,-0.00000642,0.00002641,-0.00001512,0
 .00000341,-0.00004559,-0.00004756,0.00007695,0.00001363,0.00001189,-0.
 00000258,-0.00000469,0.00000042,-0.00000387,-0.00000281,-0.00000687,0.
 00000677,0.00000308,0.00000198,-0.00000385,-0.00027732,0.00101187,-0.0
 0027858,-0.00003379,0.00002106,-0.00002736,0.00084912,-0.00163697,-0.0
 0040816,0.00003522,-0.00000152,0.00004298,-0.00103816,0.00338799,-0.00
 071029,0.00088519,-0.00223732,0.00683470,0.00042762,-0.00037866,0.0001
 4723,-0.00002410,0.00032594,0.00000244,-0.00024480,-0.00008164,0.00001
 041,0.00028191,0.00002399,0.00001033,-0.00002024,0.00000195,-0.0000079
 9,-0.00007966,-0.00033256,0.00001368,-0.00002879,0.00002032,-0.0000187
 0,-0.00032270,0.00020724,-0.00005139,0.00001540,-0.00002950,-0.0000062
 4,0.00036724,-0.00026964,0.00005941,-0.00001197,0.00006290,-0.00001869
 ,0.00018530,0.00006143,-0.00001491,-0.00006536,0.00001598,0.00004537,0
 .00000272,-0.00000319,-0.00000467,0.00001531,0.00001035,-0.00000519,-0
 .00000493,-0.00001272,-0.00000077,-0.00108260,-0.00034068,-0.00004231,
 0.00024749,0.00157384,0.00002032,-0.07394259,0.05438352,-0.10146757,0.
 06329502,-0.04156000,0.27457946,-0.00041111,-0.00008579,-0.00024465,-0
 .00011741,0.00000677,-0.00002932,0.00047953,0.00017108,0.00016346,0.00
 005144,0.00006248,-0.00002454,-0.00061761,-0.00095038,0.00079333,0.000
 12251,0.00026498,-0.00052908,0.00025613,0.00011063,0.00002450,-0.00011
 862,-0.00001554,-0.00012317,-0.00004329,-0.00009419,0.00008696,0.00012
 335,0.00007560,-0.00009580,-0.00003316,0.00000796,0.00000592,0.0000802
 1,-0.00004293,0.00016696,-0.00002258,0.00000745,0.00000517,-0.00020609
 ,-0.00006923,-0.00001116,0.00001001,0.00001532,0.00001905,0.00025584,0
 .00007534,0.00002731,-0.00003195,0.00002130,-0.00001662,0.00004931,0.0
 0005654,-0.00007158,-0.00001573,-0.00002271,-0.00000075,0.00000405,0.0
 0000056,0.00000211,0.00000089,0.00000739,-0.00000639,-0.00000076,-0.00
 000227,0.00000606,0.00036497,-0.00156490,0.00030767,0.00005372,-0.0000
 2867,-0.00001385,-0.00111694,0.00271836,-0.00038952,-0.00000480,-0.000
 03540,-0.00006091,-0.00048747,-0.00558353,0.00146875,-0.00521087,0.008
 75026,-0.00350888,-0.00064907,0.00061299,-0.00007732,0.00002051,-0.000
 49228,0.00003180,0.00037061,0.00012722,-0.00000262,-0.00042752,-0.0000
 3306,-0.00002156,0.00003071,-0.00000194,0.00000496,0.00012061,0.000511
 65,-0.00002669,0.00004568,-0.00003193,0.00000907,0.00048463,-0.0003104
 3,0.00006919,-0.00002428,0.00004381,-0.00000144,-0.00055570,0.00040809
 ,-0.00007319,0.00001705,-0.00009569,0.00001606,-0.00028943,-0.00009706
 ,0.00004752,0.00010383,-0.00002005,-0.00010357,-0.00000132,0.00000188,
 0.00001747,-0.00002260,-0.00001335,0.00000914,0.00000571,0.00001904,0.
 00000268,0.00107815,0.00049184,0.00008778,-0.00022857,-0.00076724,-0.0
 0032368,0.01588446,-0.00411305,0.01195241,-0.08097049,0.05925546,0.073
 49765,0.52705662,0.00025012,0.00006046,0.00014594,0.00006667,-0.000000
 22,0.00001957,-0.00032454,-0.00011384,-0.00008338,-0.00003515,-0.00004
 901,0.00001738,0.00042642,0.00065933,-0.00057891,-0.00007817,-0.000185
 15,0.00040312,-0.00017062,-0.00007267,-0.00001430,0.00007959,0.0000136
 6,0.00007022,0.00002727,0.00006190,-0.00005692,-0.00007777,-0.00005370
 ,0.00006683,0.00001815,-0.00000294,-0.00000069,-0.00004927,0.00003208,
 -0.00011453,0.00001541,-0.00000779,-0.00000243,0.00013948,0.00004891,0
 .00000640,-0.00000477,-0.00000723,-0.00001209,-0.00017029,-0.00005241,
 -0.00001694,0.00002263,-0.00001169,0.00001111,-0.00003688,-0.00004473,
 0.00005493,0.00001213,0.00001943,0.00000061,-0.00000274,-0.00000099,-0
 .00000211,-0.00000115,-0.00000560,0.00000492,0.00000074,0.00000154,-0.
 00000443,-0.00026970,0.00117746,-0.00022628,-0.00003980,0.00001959,0.0
 0001116,0.00083079,-0.00208403,0.00031407,0.00000073,0.00002743,0.0000
 4572,0.00056603,0.00421856,-0.00110519,0.00370988,-0.00705644,0.002689
 56,0.00048669,-0.00046168,0.00005367,-0.00001433,0.00036859,-0.0000240
 0,-0.00027745,-0.00009434,0.00000244,0.00032016,0.00002459,0.00001707,
 -0.00002276,0.00000129,-0.00000438,-0.00009258,-0.00038462,0.00001983,
 -0.00003469,0.00002400,-0.00000707,-0.00036372,0.00023346,-0.00005221,
 0.00001825,-0.00003297,0.00000099,0.00041844,-0.00030611,0.00005545,-0
 .00001323,0.00007114,-0.00001242,0.00021844,0.00007335,-0.00003538,-0.
 00007801,0.00001485,0.00007737,0.00000079,-0.00000152,-0.00001286,0.00
 001721,0.00001020,-0.00000676,-0.00000433,-0.00001419,-0.00000213,-0.0
 0080953,-0.00030159,-0.00000032,0.00019772,0.00045135,0.00014558,-0.00
 365824,0.01418488,-0.01019130,0.05786033,-0.05760501,-0.05471204,-0.40
 159456,0.32065184,-0.00008093,-0.00000461,-0.00005757,-0.00000428,0.00
 000631,0.00000115,0.00005861,0.00001814,0.00005273,0.00000368,-0.00000
 856,-0.00000239,-0.00010183,-0.00006679,-0.00003339,0.00003864,0.00003
 779,0.00005158,0.00003476,0.00001373,0.00000696,-0.00001456,0.00000480
 ,-0.00003062,-0.00001000,-0.00001024,0.00001188,0.00001872,0.00000894,
 -0.00000900,-0.00000512,0.00000176,0.00000510,0.00001375,-0.00000343,0
 .00001969,-0.00000119,-0.00000487,0.00000177,-0.00002957,-0.00000903,-
 0.00000578,0.00000498,0.00000432,0.00000289,0.00003847,0.00001102,0.00
 000861,-0.00000386,0.00000401,-0.00000509,0.00000420,0.00000528,0.0000
 0069,-0.00000181,-0.00000492,-0.00000153,0.00000004,0.00000034,-0.0000
 0063,-0.00000087,0.00000038,-0.00000010,0.00000094,0.00000007,0.000001
 25,0.00004033,-0.00000683,-0.00000643,-0.00000069,-0.00000304,-0.00000
 535,-0.00000249,-0.00019234,-0.00004385,-0.00000880,0.00000737,-0.0000
 0567,0.00047005,0.00021652,-0.00007659,0.00130281,-0.00139047,0.001346
 30,-0.00000408,-0.00001210,0.00000902,0.00000347,-0.00000133,0.0000046
 1,-0.00000124,-0.00000245,0.00000369,-0.00000121,-0.00000108,0.0000011
 3,0.00000018,0.00000014,-0.00000193,0.00000382,0.00000333,0.00000042,0
 .00000176,-0.00000077,-0.00000448,0.00000440,-0.00000603,-0.00000131,0
 .00000021,0.00000033,-0.00000159,-0.00000497,0.00000551,0.00000249,0.0
 0000086,-0.00000195,-0.00000205,-0.00000689,0.00000184,0.00000530,0.00
 000522,-0.00000137,-0.00000773,0.00000023,-0.00000073,0.00000148,0.000
 00002,-0.00000039,0.00000025,-0.00000054,0.00000137,0.00000038,-0.0000
 5901,-0.00003764,0.00007820,0.00001413,0.00000463,-0.00004375,0.004972
 06,-0.00457126,-0.01233808,0.06499781,-0.04842246,0.05552206,0.0614387
 3,-0.04413075,0.11960154,0.00054200,0.00011982,0.00029897,0.00018255,-
 0.00000031,0.00005039,-0.00061639,-0.00021575,-0.00022856,-0.00006375,
 -0.00007928,0.00003369,0.00082301,0.00126199,-0.00104044,-0.00014303,-
 0.00035560,0.00073076,-0.00033143,-0.00015022,-0.00002825,0.00015930,0
 .00002336,0.00015691,0.00005458,0.00012482,-0.00011593,-0.00016285,-0.
 00010124,0.00012940,0.00004803,-0.00000969,-0.00000484,-0.00010267,0.0
 0006025,-0.00022633,0.00003004,-0.00000894,-0.00000643,0.00027753,0.00
 009418,0.00001614,-0.00001233,-0.00001921,-0.00002571,-0.00034370,-0.0
 0010269,-0.00003616,0.00004362,-0.00002714,0.00002208,-0.00006947,-0.0
 0008239,0.00010053,0.00002174,0.00003515,0.00000115,-0.00000501,-0.000
 00140,-0.00000343,-0.00000152,-0.00001040,0.00000898,0.00000108,0.0000
 0269,-0.00000845,-0.00051903,0.00204991,-0.00037383,-0.00006821,0.0000
 4070,0.00001861,0.00146647,-0.00337072,0.00066409,0.00001823,0.0000372
 7,0.00006122,0.00018621,0.00704877,-0.00195088,0.00579093,-0.01032923,
 0.00331979,0.00085241,-0.00078751,0.00007671,-0.00003355,0.00064162,-0
 .00004361,-0.00048383,-0.00016521,0.00000668,0.00055698,0.00004506,0.0
 0003238,-0.00003948,0.00000264,-0.00000902,-0.00015558,-0.00066401,0.0
 0003535,-0.00005730,0.00004132,-0.00001552,-0.00063038,0.00040190,-0.0
 0009115,0.00003077,-0.00005631,0.00000132,0.00072029,-0.00052858,0.000
 09669,-0.00002221,0.00012406,-0.00002242,0.00037384,0.00012672,-0.0000
 5769,-0.00013345,0.00002605,0.00012962,0.00000196,-0.00000283,-0.00002
 159,0.00002933,0.00001745,-0.00001171,-0.00000763,-0.00002458,-0.00000
 328,-0.00135649,-0.00082205,-0.00032122,0.00030590,0.00127353,0.000392
 61,-0.03215868,0.01762822,0.03055135,-0.02313769,0.02174753,-0.0633038
 9,-0.45546320,0.34252019,-0.13312892,0.50360211,-0.00033121,-0.0001182
 7,-0.00016234,-0.00011097,0.00002470,-0.00000747,0.00043011,0.00014979
 ,0.00010785,0.00003980,0.00007633,-0.00002798,-0.00059723,-0.00096379,
 0.00082583,0.00008181,0.00026235,-0.00063675,0.00022561,0.00010832,0.0
 0000861,-0.00011126,-0.00002967,-0.00008022,-0.00003109,-0.00008745,0.
 00007843,0.00010714,0.00007316,-0.00009822,-0.00002636,0.00000228,-0.0
 0000609,0.00006684,-0.00004447,0.00015842,-0.00002298,0.00001565,0.000
 00250,-0.00019283,-0.00006585,-0.00000749,0.00000458,0.00001109,0.0000
 1809,0.00023713,0.00006999,0.00001962,-0.00003266,0.00001830,-0.000012
 60,0.00005428,0.00006129,-0.00008327,-0.00001707,-0.00002244,0.0000001
 5,0.00000457,0.00000066,0.00000327,0.00000193,0.00000808,-0.00000715,-
 0.00000182,-0.00000238,0.00000576,0.00040334,-0.00160092,0.00028572,0.
 00005228,-0.00002744,-0.00001419,-0.00114316,0.00268063,-0.00056074,-0
 .00001047,-0.00002943,-0.00004815,-0.00039871,-0.00557196,0.00146149,-
 0.00437464,0.00878276,-0.00258773,-0.00066108,0.00061342,-0.00005391,0
 .00002310,-0.00049827,0.00003457,0.00037457,0.00012664,-0.00000622,-0.
 00043196,-0.00003436,-0.00002723,0.00003064,-0.00000143,0.00000864,0.0
 0012299,0.00051693,-0.00002715,0.00004579,-0.00003222,0.00001216,0.000
 49089,-0.00031509,0.00007183,-0.00002424,0.00004441,-0.00000076,-0.000
 56350,0.00041319,-0.00007640,0.00001781,-0.00009635,0.00001824,-0.0002
 9173,-0.00009709,0.00004469,0.00010448,-0.00002082,-0.00010019,-0.0000
 0149,0.00000223,0.00001614,-0.00002287,-0.00001405,0.00000898,0.000005
 93,0.00001941,0.00000265,0.00099928,0.00072541,0.00027702,-0.00012827,
 -0.00089723,-0.00040900,0.01561344,-0.02630431,-0.02189142,0.02532691,
 -0.00605265,0.04013980,0.34224219,-0.27349942,0.09853748,-0.37757986,0
 .30162031,-0.00023927,-0.00010001,-0.00008864,-0.00014734,-0.00000481,
 -0.00003252,0.00036576,0.00013862,0.00005346,0.00004046,0.00008712,-0.
 00002492,-0.00048395,-0.00088162,0.00090490,0.00004512,0.00020730,-0.0
 0072065,0.00018715,0.00009311,0.00000443,-0.00009746,-0.00003227,-0.00
 004472,-0.00001926,-0.00007834,0.00006675,0.00008512,0.00006359,-0.000
 08770,-0.00002656,-0.00000224,-0.00001668,0.00005104,-0.00004068,0.000
 13722,-0.00002195,0.00002010,0.00000066,-0.00015886,-0.00005659,-0.000
 00112,-0.00000112,0.00000537,0.00001434,0.00019320,0.00005892,0.000009
 75,-0.00002751,0.00001286,-0.00000687,0.00004875,0.00005672,-0.0000842
 2,-0.00001406,-0.00001829,0.00000186,0.00000392,0.00000049,0.00000414,
 0.00000308,0.00000774,-0.00000696,-0.00000276,-0.00000220,0.00000422,0
 .00032330,-0.00162446,0.00031109,0.00005738,-0.00002558,-0.00000589,-0
 .00117059,0.00313353,-0.00038135,0.00000355,-0.00004580,-0.00004466,-0
 .00122767,-0.00610929,0.00166691,-0.00758802,0.01161511,-0.00601773,-0
 .00067258,0.00065745,-0.00008633,0.00001660,-0.00051140,0.00002699,0.0
 0038987,0.00013686,-0.00001204,-0.00044388,-0.00003329,-0.00002747,0.0
 0003171,-0.00000187,0.00001042,0.00011800,0.00052813,-0.00002847,0.000
 04378,-0.00003239,0.00002007,0.00049809,-0.00031354,0.00007568,-0.0000
 2555,0.00004511,0.00000174,-0.00057108,0.00041594,-0.00008250,0.000016
 19,-0.00009616,0.00002176,-0.00028851,-0.00010459,0.00003768,0.0000981
 2,-0.00001854,-0.00009176,-0.00000178,0.00000345,0.00001486,-0.0000234
 7,-0.00001331,0.00000908,0.00000711,0.00001739,0.00000205,0.00132082,0
 .00070091,0.00019685,-0.00025126,-0.00113953,-0.00036567,0.00439795,-0
 .00353441,0.02260767,-0.01448010,0.00485474,-0.23413561,-0.14450541,0.
 10717587,-0.16405626,0.16414384,-0.11521525,0.38024621\\0.00000046,-0.
 00000141,0.00000112,-0.00000047,-0.00000101,0.00000047,-0.00000059,0.0
 0000019,0.00000121,0.00000045,-0.00000019,0.00000080,-0.00000135,0.000
 00240,-0.00000282,0.00000131,0.00000025,0.00000102,-0.00000030,-0.0000
 0218,0.00000121,-0.00000088,-0.00000309,0.00000136,0.00000056,-0.00000
 162,0.00000181,-0.00000023,-0.00000368,0.00000232,-0.00000102,-0.00000
 335,0.00000096,0.00000070,-0.00000222,0.00000257,0.00000123,-0.0000003
 4,0.00000210,0.00000043,-0.00000310,0.00000288,-0.00000028,-0.00000428
 ,0.00000295,-0.00000036,-0.00000379,0.00000297,0.00000015,-0.00000450,
 0.00000363,0.00000117,-0.00000238,0.00000333,0.00000201,-0.00000208,0.
 00000422,0.00000219,-0.00000174,0.00000440,0.00000246,-0.00000169,0.00
 000477,0.00000177,-0.00000291,0.00000469,0.00000019,-0.00000112,-0.000
 00160,0.00000084,0.00000023,-0.00000037,-0.00000242,0.00000164,-0.0000
 0202,-0.00000169,0.00000199,-0.00000255,0.00000002,0.00000207,-0.00000
 234,-0.00000208,-0.00000003,-0.00000276,-0.00000016,0.00000255,-0.0000
 0099,0.00000044,0.00000180,-0.00000025,0.00000034,0.00000209,-0.000001
 71,0.00000103,0.00000262,-0.00000019,0.00000156,0.00000136,0.00000040,
 0.00000020,0.00000328,-0.00000174,-0.00000008,0.00000165,-0.00000258,0
 .00000128,0.00000292,-0.00000104,0.00000065,0.00000353,0.00000042,0.00
 000193,0.00000244,-0.00000083,0.00000189,0.00000347,-0.00000030,-0.000
 00009,0.00000394,-0.00000292,-0.00000005,0.00000310,-0.00000283,-0.000
 00067,0.00000250,-0.00000287,-0.00000045,0.00000360,-0.00000346,0.0000
 0013,0.00000349,-0.00000218,-0.00000122,-0.00000043,-0.00000270,-0.000
 00029,-0.00000341,0.00000081,-0.00000386,0.00000016,-0.00000299,-0.000
 00086,-0.00000087,-0.00000371,-0.00000219,-0.00000148,-0.00000347,-0.0
 0000377,-0.00000037,-0.00000121\\\@


 THERE IS AN OLD, OLD RECIPE IN MAINE FOR STEWING COOT. PLACE THE
 BIRD IN A KETTLE OF WATER WITH A RED BUILDING BRICK FREE OF MORTAR AND
 BLEMISHES. PARBOIL THE COOT AND BRICK TOGETHER FOR THREE HOURS.
 POUR OFF THE WATER, REFILL THE KETTLE, AND AGAIN PARBOIL FOR THREE HOURS.
 ONCE AGAIN POUR OFF THE WATER, FOR THE LAST TIME ADD FRESH WATER,
 AND LET THE COOT AND BRICK SIMMER TOGETHER OVERNIGHT. IN THE MORNING,
 THROW AWAY THE COOT AND EAT THE BRICK.
 Job cpu time:       0 days  2 hours 19 minutes 36.8 seconds.
 Elapsed time:       0 days  2 hours 19 minutes 47.3 seconds.
 File lengths (MBytes):  RWF=   3768 Int=      0 D2E=      0 Chk=     62 Scr=      1
 Normal termination of Gaussian 16 at Wed Nov  6 06:45:52 2024.
