 Entering Gaussian System, Link 0=g16
 Initial command:
 /sw/cluster/pub/apps//g16/l1.exe "/data/mmaximo/25379/Gau-5938.inp" -scrdir="/data/mmaximo/25379/"
 Entering Link 1 = /sw/cluster/pub/apps//g16/l1.exe PID=      5939.
  
 Copyright (c) 1988,1990,1992,1993,1995,1998,2003,2009,2016,
            Gaussian, Inc.  All Rights Reserved.
  
 This is part of the Gaussian(R) 16 program.  It is based on
 the Gaussian(R) 09 system (copyright 2009, Gaussian, Inc.),
 the Gaussian(R) 03 system (copyright 2003, Gaussian, Inc.),
 the Gaussian(R) 98 system (copyright 1998, Gaussian, Inc.),
 the Gaussian(R) 94 system (copyright 1995, Gaussian, Inc.),
 the Gaussian 92(TM) system (copyright 1992, Gaussian, Inc.),
 the Gaussian 90(TM) system (copyright 1990, Gaussian, Inc.),
 the Gaussian 88(TM) system (copyright 1988, Gaussian, Inc.),
 the Gaussian 86(TM) system (copyright 1986, Carnegie Mellon
 University), and the Gaussian 82(TM) system (copyright 1983,
 Carnegie Mellon University). Gaussian is a federally registered
 trademark of Gaussian, Inc.
  
 This software contains proprietary and confidential information,
 including trade secrets, belonging to Gaussian, Inc.
  
 This software is provided under written license and may be
 used, copied, transmitted, or stored only in accord with that
 written license.
  
 The following legend is applicable only to US Government
 contracts under FAR:
  
                    RESTRICTED RIGHTS LEGEND
  
 Use, reproduction and disclosure by the US Government is
 subject to restrictions as set forth in subparagraphs (a)
 and (c) of the Commercial Computer Software - Restricted
 Rights clause in FAR 52.227-19.
  
 Gaussian, Inc.
 340 Quinnipiac St., Bldg. 40, Wallingford CT 06492
  
  
 ---------------------------------------------------------------
 Warning -- This program may not be used in any manner that
 competes with the business of Gaussian, Inc. or will provide
 assistance to any competitor of Gaussian, Inc.  The licensee
 of this program is prohibited from giving any competitor of
 Gaussian, Inc. access to this program.  By using this program,
 the user acknowledges that Gaussian, Inc. is engaged in the
 business of creating and licensing software in the field of
 computational chemistry and represents and warrants to the
 licensee that it is not a competitor of Gaussian, Inc. and that
 it will not use this program in any manner prohibited above.
 ---------------------------------------------------------------
  

 Cite this work as:
 Gaussian 16, Revision A.03,
 M. J. Frisch, G. W. Trucks, H. B. Schlegel, G. E. Scuseria, 
 M. A. Robb, J. R. Cheeseman, G. Scalmani, V. Barone, 
 G. A. Petersson, H. Nakatsuji, X. Li, M. Caricato, A. V. Marenich, 
 J. Bloino, B. G. Janesko, R. Gomperts, B. Mennucci, H. P. Hratchian, 
 J. V. Ortiz, A. F. Izmaylov, J. L. Sonnenberg, D. Williams-Young, 
 F. Ding, F. Lipparini, F. Egidi, J. Goings, B. Peng, A. Petrone, 
 T. Henderson, D. Ranasinghe, V. G. Zakrzewski, J. Gao, N. Rega, 
 G. Zheng, W. Liang, M. Hada, M. Ehara, K. Toyota, R. Fukuda, 
 J. Hasegawa, M. Ishida, T. Nakajima, Y. Honda, O. Kitao, H. Nakai, 
 T. Vreven, K. Throssell, J. A. Montgomery, Jr., J. E. Peralta, 
 F. Ogliaro, M. J. Bearpark, J. J. Heyd, E. N. Brothers, K. N. Kudin, 
 V. N. Staroverov, T. A. Keith, R. Kobayashi, J. Normand, 
 K. Raghavachari, A. P. Rendell, J. C. Burant, S. S. Iyengar, 
 J. Tomasi, M. Cossi, J. M. Millam, M. Klene, C. Adamo, R. Cammi, 
 J. W. Ochterski, R. L. Martin, K. Morokuma, O. Farkas, 
 J. B. Foresman, and D. J. Fox, Gaussian, Inc., Wallingford CT, 2016.
 
 ******************************************
 Gaussian 16:  ES64L-G16RevA.03 25-Dec-2016
                 5-Nov-2024 
 ******************************************
 %chk=CURCUMIN-OPT-FREQ-Reag-B3LYP-6-311G-D-298.chk
 ----------------------------------------------------------------------
 # opt=(calcfc) freq=noraman b3lyp/6-311g(d) scrf=(smd,solvent=generic,
 read) temperature=298.15 SCF=(MaxCycle=500)
 ----------------------------------------------------------------------
 1/10=4,18=20,19=15,26=3,38=1,40=2,112=298150/1,3;
 2/9=110,12=2,17=6,18=5,40=1/2;
 3/5=4,6=6,7=1,11=2,25=1,30=1,70=32203,71=2,72=-2,74=-5,140=1/1,2,3;
 4//1;
 5/5=2,7=500,38=5/2;
 8/6=4,10=90,11=11/1;
 11/6=1,8=1,9=11,15=111,16=1/1,2,10;
 10/6=1,13=1/2;
 6/7=2,8=2,9=2,10=2,28=1/1;
 7/10=1,18=20,25=1/1,2,3,16;
 1/10=4,18=20,19=15,26=3/3(2);
 2/9=110/2;
 99//99;
 2/9=110/2;
 3/5=4,6=6,7=1,11=2,25=1,30=1,70=32205,71=1,72=-2,74=-5/1,2,3;
 4/5=5,16=3,69=1/1;
 5/5=2,7=500,38=5/2;
 7//1,2,3,16;
 1/18=20,19=15,26=3/3(-5);
 2/9=110/2;
 6/7=2,8=2,9=2,10=2,19=2,28=1/1;
 99/9=1/99;
 ---
 XXX
 ---
 Symbolic Z-matrix:
 Charge =  0 Multiplicity = 2
 C                    -2.50901   0.25876  -0.18729 
 H                    -1.98867   0.52845  -1.10331 
 C                    -1.92491   0.54141   0.99631 
 H                    -2.41237   0.29277   1.935 
 C                    -0.60773   1.18056   1.18403 
 O                    -0.18431   1.39603   2.3094 
 C                    -3.7951   -0.39678  -0.40455 
 C                    -4.2473   -0.59261  -1.71888 
 C                    -4.61042  -0.86028   0.64683 
 C                    -5.46584  -1.21023  -1.97476 
 H                    -3.64036  -0.2509   -2.55134 
 C                    -5.82701  -1.47599   0.40825 
 H                    -4.31182  -0.73758   1.68177 
 C                    -6.2688   -1.65041  -0.92242 
 H                    -5.80628  -1.34273  -2.99843 
 O                    -7.47936  -2.23452  -1.11039 
 H                    -7.67123  -2.29184  -2.05706 
 O                    -6.61063  -1.84336   1.46979 
 C                    -6.77211  -3.25656   1.66903 
 H                    -5.80015  -3.73892   1.81572 
 H                    -7.3691   -3.36673   2.57389 
 H                    -7.29337  -3.72262   0.83094 
 C                     2.79072   0.21245  -0.10781 
 H                     1.87668  -0.32311  -0.33733 
 C                     2.72868   1.52731   0.18652 
 H                     3.62202   2.1008    0.41609 
 C                     1.48696   2.29444   0.23672 
 O                     1.49447   3.49598   0.47672 
 C                     3.97485  -0.62284  -0.1439 
 C                     3.84672  -1.97493  -0.49347 
 C                     5.25589  -0.135     0.16778 
 C                     4.95489  -2.81152  -0.52098 
 H                     2.86883  -2.37669  -0.73846 
 C                     6.36717  -0.95534   0.14672 
 H                     5.4082    0.89972   0.4512 
 C                     6.21862  -2.31723  -0.19741 
 H                     4.84318  -3.86109  -0.78063 
 O                     7.33188  -3.09286  -0.17986 
 H                     7.10176  -4.00002  -0.42538 
 O                     7.57891  -0.44386   0.52629 
 C                     8.55811  -0.32678  -0.51693 
 H                     8.18615   0.31084  -1.32575 
 H                     9.42995   0.14167  -0.06114 
 H                     8.83764  -1.30367  -0.91564 
 C                     0.19692   1.54709  -0.04824 
 H                     0.35554   0.64532  -0.6387 
 H                    -0.40477   2.17851  -0.67031 
 O                    -1.3221    3.5992   -1.23547 
 O                    -2.72933   5.04212  -0.41716 
 N                    -1.95411   4.14082  -0.38151 
 
 Add virtual bond connecting atoms O48        and H47        Dist= 3.37D+00.

 GradGradGradGradGradGradGradGradGradGradGradGradGradGradGradGradGradGrad
 Berny optimization.
 Initialization pass.
                           ----------------------------
                           !    Initial Parameters    !
                           ! (Angstroms and Degrees)  !
 --------------------------                            --------------------------
 ! Name  Definition              Value          Derivative Info.                !
 --------------------------------------------------------------------------------
 ! R1    R(1,2)                  1.0875         calculate D2E/DX2 analytically  !
 ! R2    R(1,3)                  1.3498         calculate D2E/DX2 analytically  !
 ! R3    R(1,7)                  1.4598         calculate D2E/DX2 analytically  !
 ! R4    R(3,4)                  1.0866         calculate D2E/DX2 analytically  !
 ! R5    R(3,5)                  1.4761         calculate D2E/DX2 analytically  !
 ! R6    R(5,6)                  1.2215         calculate D2E/DX2 analytically  !
 ! R7    R(5,45)                 1.5167         calculate D2E/DX2 analytically  !
 ! R8    R(7,8)                  1.4037         calculate D2E/DX2 analytically  !
 ! R9    R(7,9)                  1.4089         calculate D2E/DX2 analytically  !
 ! R10   R(8,10)                 1.3899         calculate D2E/DX2 analytically  !
 ! R11   R(8,11)                 1.0854         calculate D2E/DX2 analytically  !
 ! R12   R(9,12)                 1.3842         calculate D2E/DX2 analytically  !
 ! R13   R(9,13)                 1.0841         calculate D2E/DX2 analytically  !
 ! R14   R(10,14)                1.395          calculate D2E/DX2 analytically  !
 ! R15   R(10,15)                1.0869         calculate D2E/DX2 analytically  !
 ! R16   R(12,14)                1.4129         calculate D2E/DX2 analytically  !
 ! R17   R(12,18)                1.3696         calculate D2E/DX2 analytically  !
 ! R18   R(14,16)                1.3572         calculate D2E/DX2 analytically  !
 ! R19   R(16,17)                0.9676         calculate D2E/DX2 analytically  !
 ! R20   R(18,19)                1.4363         calculate D2E/DX2 analytically  !
 ! R21   R(19,20)                1.0949         calculate D2E/DX2 analytically  !
 ! R22   R(19,21)                1.0896         calculate D2E/DX2 analytically  !
 ! R23   R(19,22)                1.0915         calculate D2E/DX2 analytically  !
 ! R24   R(23,24)                1.084          calculate D2E/DX2 analytically  !
 ! R25   R(23,25)                1.3488         calculate D2E/DX2 analytically  !
 ! R26   R(23,29)                1.4495         calculate D2E/DX2 analytically  !
 ! R27   R(25,26)                1.0861         calculate D2E/DX2 analytically  !
 ! R28   R(25,27)                1.4604         calculate D2E/DX2 analytically  !
 ! R29   R(27,28)                1.2253         calculate D2E/DX2 analytically  !
 ! R30   R(27,45)                1.5179         calculate D2E/DX2 analytically  !
 ! R31   R(29,30)                1.4024         calculate D2E/DX2 analytically  !
 ! R32   R(29,31)                1.4058         calculate D2E/DX2 analytically  !
 ! R33   R(30,32)                1.3888         calculate D2E/DX2 analytically  !
 ! R34   R(30,33)                1.0852         calculate D2E/DX2 analytically  !
 ! R35   R(31,34)                1.3814         calculate D2E/DX2 analytically  !
 ! R36   R(31,35)                1.0836         calculate D2E/DX2 analytically  !
 ! R37   R(32,36)                1.395          calculate D2E/DX2 analytically  !
 ! R38   R(32,37)                1.087          calculate D2E/DX2 analytically  !
 ! R39   R(34,36)                1.4125         calculate D2E/DX2 analytically  !
 ! R40   R(34,40)                1.3689         calculate D2E/DX2 analytically  !
 ! R41   R(36,38)                1.3569         calculate D2E/DX2 analytically  !
 ! R42   R(38,39)                0.9676         calculate D2E/DX2 analytically  !
 ! R43   R(40,41)                1.4356         calculate D2E/DX2 analytically  !
 ! R44   R(41,42)                1.095          calculate D2E/DX2 analytically  !
 ! R45   R(41,43)                1.0896         calculate D2E/DX2 analytically  !
 ! R46   R(41,44)                1.0915         calculate D2E/DX2 analytically  !
 ! R47   R(45,46)                1.0895         calculate D2E/DX2 analytically  !
 ! R48   R(45,47)                1.0713         calculate D2E/DX2 analytically  !
 ! R49   R(47,48)                1.783          calculate D2E/DX2 analytically  !
 ! R50   R(48,50)                1.1925         calculate D2E/DX2 analytically  !
 ! R51   R(49,50)                1.1894         calculate D2E/DX2 analytically  !
 ! A1    A(2,1,3)              118.6617         calculate D2E/DX2 analytically  !
 ! A2    A(2,1,7)              114.0515         calculate D2E/DX2 analytically  !
 ! A3    A(3,1,7)              127.2851         calculate D2E/DX2 analytically  !
 ! A4    A(1,3,4)              121.0303         calculate D2E/DX2 analytically  !
 ! A5    A(1,3,5)              126.0401         calculate D2E/DX2 analytically  !
 ! A6    A(4,3,5)              112.9269         calculate D2E/DX2 analytically  !
 ! A7    A(3,5,6)              120.1899         calculate D2E/DX2 analytically  !
 ! A8    A(3,5,45)             118.3422         calculate D2E/DX2 analytically  !
 ! A9    A(6,5,45)             121.4664         calculate D2E/DX2 analytically  !
 ! A10   A(1,7,8)              119.0673         calculate D2E/DX2 analytically  !
 ! A11   A(1,7,9)              123.1282         calculate D2E/DX2 analytically  !
 ! A12   A(8,7,9)              117.8016         calculate D2E/DX2 analytically  !
 ! A13   A(7,8,10)             121.1196         calculate D2E/DX2 analytically  !
 ! A14   A(7,8,11)             119.6082         calculate D2E/DX2 analytically  !
 ! A15   A(10,8,11)            119.2709         calculate D2E/DX2 analytically  !
 ! A16   A(7,9,12)             121.7574         calculate D2E/DX2 analytically  !
 ! A17   A(7,9,13)             121.0487         calculate D2E/DX2 analytically  !
 ! A18   A(12,9,13)            117.1905         calculate D2E/DX2 analytically  !
 ! A19   A(8,10,14)            120.3971         calculate D2E/DX2 analytically  !
 ! A20   A(8,10,15)            120.1432         calculate D2E/DX2 analytically  !
 ! A21   A(14,10,15)           119.4553         calculate D2E/DX2 analytically  !
 ! A22   A(9,12,14)            119.4757         calculate D2E/DX2 analytically  !
 ! A23   A(9,12,18)            119.2462         calculate D2E/DX2 analytically  !
 ! A24   A(14,12,18)           121.1941         calculate D2E/DX2 analytically  !
 ! A25   A(10,14,12)           119.4416         calculate D2E/DX2 analytically  !
 ! A26   A(10,14,16)           123.0075         calculate D2E/DX2 analytically  !
 ! A27   A(12,14,16)           117.5469         calculate D2E/DX2 analytically  !
 ! A28   A(14,16,17)           109.7462         calculate D2E/DX2 analytically  !
 ! A29   A(12,18,19)           115.8334         calculate D2E/DX2 analytically  !
 ! A30   A(18,19,20)           110.6245         calculate D2E/DX2 analytically  !
 ! A31   A(18,19,21)           106.0383         calculate D2E/DX2 analytically  !
 ! A32   A(18,19,22)           111.5505         calculate D2E/DX2 analytically  !
 ! A33   A(20,19,21)           109.302          calculate D2E/DX2 analytically  !
 ! A34   A(20,19,22)           109.7968         calculate D2E/DX2 analytically  !
 ! A35   A(21,19,22)           109.4397         calculate D2E/DX2 analytically  !
 ! A36   A(24,23,25)           119.2783         calculate D2E/DX2 analytically  !
 ! A37   A(24,23,29)           113.5066         calculate D2E/DX2 analytically  !
 ! A38   A(25,23,29)           127.2105         calculate D2E/DX2 analytically  !
 ! A39   A(23,25,26)           121.5342         calculate D2E/DX2 analytically  !
 ! A40   A(23,25,27)           123.9629         calculate D2E/DX2 analytically  !
 ! A41   A(26,25,27)           114.5011         calculate D2E/DX2 analytically  !
 ! A42   A(25,27,28)           121.1055         calculate D2E/DX2 analytically  !
 ! A43   A(25,27,45)           117.2283         calculate D2E/DX2 analytically  !
 ! A44   A(28,27,45)           121.6545         calculate D2E/DX2 analytically  !
 ! A45   A(23,29,30)           119.153          calculate D2E/DX2 analytically  !
 ! A46   A(23,29,31)           122.6101         calculate D2E/DX2 analytically  !
 ! A47   A(30,29,31)           118.2353         calculate D2E/DX2 analytically  !
 ! A48   A(29,30,32)           120.852          calculate D2E/DX2 analytically  !
 ! A49   A(29,30,33)           119.7043         calculate D2E/DX2 analytically  !
 ! A50   A(32,30,33)           119.4419         calculate D2E/DX2 analytically  !
 ! A51   A(29,31,34)           121.5747         calculate D2E/DX2 analytically  !
 ! A52   A(29,31,35)           121.1616         calculate D2E/DX2 analytically  !
 ! A53   A(34,31,35)           117.2561         calculate D2E/DX2 analytically  !
 ! A54   A(30,32,36)           120.3191         calculate D2E/DX2 analytically  !
 ! A55   A(30,32,37)           120.2918         calculate D2E/DX2 analytically  !
 ! A56   A(36,32,37)           119.3829         calculate D2E/DX2 analytically  !
 ! A57   A(31,34,36)           119.4497         calculate D2E/DX2 analytically  !
 ! A58   A(31,34,40)           119.0759         calculate D2E/DX2 analytically  !
 ! A59   A(36,34,40)           121.3909         calculate D2E/DX2 analytically  !
 ! A60   A(32,36,34)           119.5645         calculate D2E/DX2 analytically  !
 ! A61   A(32,36,38)           122.9351         calculate D2E/DX2 analytically  !
 ! A62   A(34,36,38)           117.4956         calculate D2E/DX2 analytically  !
 ! A63   A(36,38,39)           109.7255         calculate D2E/DX2 analytically  !
 ! A64   A(34,40,41)           115.6423         calculate D2E/DX2 analytically  !
 ! A65   A(40,41,42)           110.6431         calculate D2E/DX2 analytically  !
 ! A66   A(40,41,43)           106.0722         calculate D2E/DX2 analytically  !
 ! A67   A(40,41,44)           111.5395         calculate D2E/DX2 analytically  !
 ! A68   A(42,41,43)           109.294          calculate D2E/DX2 analytically  !
 ! A69   A(42,41,44)           109.7743         calculate D2E/DX2 analytically  !
 ! A70   A(43,41,44)           109.4302         calculate D2E/DX2 analytically  !
 ! A71   A(5,45,27)            114.6674         calculate D2E/DX2 analytically  !
 ! A72   A(5,45,46)            108.5152         calculate D2E/DX2 analytically  !
 ! A73   A(5,45,47)            108.4364         calculate D2E/DX2 analytically  !
 ! A74   A(27,45,46)           112.677          calculate D2E/DX2 analytically  !
 ! A75   A(27,45,47)           107.2261         calculate D2E/DX2 analytically  !
 ! A76   A(46,45,47)           104.769          calculate D2E/DX2 analytically  !
 ! A77   A(45,47,48)           160.496          calculate D2E/DX2 analytically  !
 ! A78   A(47,48,50)           114.0526         calculate D2E/DX2 analytically  !
 ! A79   A(48,50,49)           131.926          calculate D2E/DX2 analytically  !
 ! D1    D(2,1,3,4)            179.7391         calculate D2E/DX2 analytically  !
 ! D2    D(2,1,3,5)             -0.8923         calculate D2E/DX2 analytically  !
 ! D3    D(7,1,3,4)             -0.7663         calculate D2E/DX2 analytically  !
 ! D4    D(7,1,3,5)            178.6023         calculate D2E/DX2 analytically  !
 ! D5    D(2,1,7,8)             -1.212          calculate D2E/DX2 analytically  !
 ! D6    D(2,1,7,9)            178.1559         calculate D2E/DX2 analytically  !
 ! D7    D(3,1,7,8)            179.2736         calculate D2E/DX2 analytically  !
 ! D8    D(3,1,7,9)             -1.3584         calculate D2E/DX2 analytically  !
 ! D9    D(1,3,5,6)            179.4754         calculate D2E/DX2 analytically  !
 ! D10   D(1,3,5,45)            -0.9602         calculate D2E/DX2 analytically  !
 ! D11   D(4,3,5,6)             -1.112          calculate D2E/DX2 analytically  !
 ! D12   D(4,3,5,45)           178.4524         calculate D2E/DX2 analytically  !
 ! D13   D(3,5,45,27)          175.523          calculate D2E/DX2 analytically  !
 ! D14   D(3,5,45,46)          -57.5204         calculate D2E/DX2 analytically  !
 ! D15   D(3,5,45,47)           55.747          calculate D2E/DX2 analytically  !
 ! D16   D(6,5,45,27)           -4.9184         calculate D2E/DX2 analytically  !
 ! D17   D(6,5,45,46)          122.0382         calculate D2E/DX2 analytically  !
 ! D18   D(6,5,45,47)         -124.6944         calculate D2E/DX2 analytically  !
 ! D19   D(1,7,8,10)          -179.9111         calculate D2E/DX2 analytically  !
 ! D20   D(1,7,8,11)            -0.333          calculate D2E/DX2 analytically  !
 ! D21   D(9,7,8,10)             0.6873         calculate D2E/DX2 analytically  !
 ! D22   D(9,7,8,11)          -179.7346         calculate D2E/DX2 analytically  !
 ! D23   D(1,7,9,12)           179.8673         calculate D2E/DX2 analytically  !
 ! D24   D(1,7,9,13)             0.5582         calculate D2E/DX2 analytically  !
 ! D25   D(8,7,9,12)            -0.7572         calculate D2E/DX2 analytically  !
 ! D26   D(8,7,9,13)           179.9336         calculate D2E/DX2 analytically  !
 ! D27   D(7,8,10,14)            0.0089         calculate D2E/DX2 analytically  !
 ! D28   D(7,8,10,15)          179.2409         calculate D2E/DX2 analytically  !
 ! D29   D(11,8,10,14)        -179.5706         calculate D2E/DX2 analytically  !
 ! D30   D(11,8,10,15)          -0.3386         calculate D2E/DX2 analytically  !
 ! D31   D(7,9,12,14)            0.1282         calculate D2E/DX2 analytically  !
 ! D32   D(7,9,12,18)         -176.5785         calculate D2E/DX2 analytically  !
 ! D33   D(13,9,12,14)         179.4628         calculate D2E/DX2 analytically  !
 ! D34   D(13,9,12,18)           2.7561         calculate D2E/DX2 analytically  !
 ! D35   D(8,10,14,12)          -0.6561         calculate D2E/DX2 analytically  !
 ! D36   D(8,10,14,16)         178.5996         calculate D2E/DX2 analytically  !
 ! D37   D(15,10,14,12)       -179.8934         calculate D2E/DX2 analytically  !
 ! D38   D(15,10,14,16)         -0.6376         calculate D2E/DX2 analytically  !
 ! D39   D(9,12,14,10)           0.5868         calculate D2E/DX2 analytically  !
 ! D40   D(9,12,14,16)        -178.7093         calculate D2E/DX2 analytically  !
 ! D41   D(18,12,14,10)        177.2276         calculate D2E/DX2 analytically  !
 ! D42   D(18,12,14,16)         -2.0685         calculate D2E/DX2 analytically  !
 ! D43   D(9,12,18,19)        -112.4311         calculate D2E/DX2 analytically  !
 ! D44   D(14,12,18,19)         70.9205         calculate D2E/DX2 analytically  !
 ! D45   D(10,14,16,17)          0.3287         calculate D2E/DX2 analytically  !
 ! D46   D(12,14,16,17)        179.5977         calculate D2E/DX2 analytically  !
 ! D47   D(12,18,19,20)         58.562          calculate D2E/DX2 analytically  !
 ! D48   D(12,18,19,21)        176.9656         calculate D2E/DX2 analytically  !
 ! D49   D(12,18,19,22)        -63.9662         calculate D2E/DX2 analytically  !
 ! D50   D(24,23,25,26)       -179.6263         calculate D2E/DX2 analytically  !
 ! D51   D(24,23,25,27)          0.8794         calculate D2E/DX2 analytically  !
 ! D52   D(29,23,25,26)          1.2036         calculate D2E/DX2 analytically  !
 ! D53   D(29,23,25,27)       -178.2907         calculate D2E/DX2 analytically  !
 ! D54   D(24,23,29,30)          1.7669         calculate D2E/DX2 analytically  !
 ! D55   D(24,23,29,31)       -177.7801         calculate D2E/DX2 analytically  !
 ! D56   D(25,23,29,30)       -179.0224         calculate D2E/DX2 analytically  !
 ! D57   D(25,23,29,31)          1.4306         calculate D2E/DX2 analytically  !
 ! D58   D(23,25,27,28)       -178.1225         calculate D2E/DX2 analytically  !
 ! D59   D(23,25,27,45)          0.6559         calculate D2E/DX2 analytically  !
 ! D60   D(26,25,27,28)          2.3511         calculate D2E/DX2 analytically  !
 ! D61   D(26,25,27,45)       -178.8705         calculate D2E/DX2 analytically  !
 ! D62   D(25,27,45,5)         101.5011         calculate D2E/DX2 analytically  !
 ! D63   D(25,27,45,46)        -23.2923         calculate D2E/DX2 analytically  !
 ! D64   D(25,27,45,47)       -138.0516         calculate D2E/DX2 analytically  !
 ! D65   D(28,27,45,5)         -79.7277         calculate D2E/DX2 analytically  !
 ! D66   D(28,27,45,46)        155.479          calculate D2E/DX2 analytically  !
 ! D67   D(28,27,45,47)         40.7196         calculate D2E/DX2 analytically  !
 ! D68   D(23,29,30,32)       -179.088          calculate D2E/DX2 analytically  !
 ! D69   D(23,29,30,33)          0.4267         calculate D2E/DX2 analytically  !
 ! D70   D(31,29,30,32)          0.4789         calculate D2E/DX2 analytically  !
 ! D71   D(31,29,30,33)        179.9935         calculate D2E/DX2 analytically  !
 ! D72   D(23,29,31,34)        178.9716         calculate D2E/DX2 analytically  !
 ! D73   D(23,29,31,35)          0.0114         calculate D2E/DX2 analytically  !
 ! D74   D(30,29,31,34)         -0.5794         calculate D2E/DX2 analytically  !
 ! D75   D(30,29,31,35)       -179.5396         calculate D2E/DX2 analytically  !
 ! D76   D(29,30,32,36)          0.105          calculate D2E/DX2 analytically  !
 ! D77   D(29,30,32,37)        179.1996         calculate D2E/DX2 analytically  !
 ! D78   D(33,30,32,36)       -179.4109         calculate D2E/DX2 analytically  !
 ! D79   D(33,30,32,37)         -0.3163         calculate D2E/DX2 analytically  !
 ! D80   D(29,31,34,36)          0.0936         calculate D2E/DX2 analytically  !
 ! D81   D(29,31,34,40)       -176.6306         calculate D2E/DX2 analytically  !
 ! D82   D(35,31,34,36)        179.0928         calculate D2E/DX2 analytically  !
 ! D83   D(35,31,34,40)          2.3685         calculate D2E/DX2 analytically  !
 ! D84   D(30,32,36,34)         -0.6005         calculate D2E/DX2 analytically  !
 ! D85   D(30,32,36,38)        178.5853         calculate D2E/DX2 analytically  !
 ! D86   D(37,32,36,34)       -179.7033         calculate D2E/DX2 analytically  !
 ! D87   D(37,32,36,38)         -0.5175         calculate D2E/DX2 analytically  !
 ! D88   D(31,34,36,32)          0.5011         calculate D2E/DX2 analytically  !
 ! D89   D(31,34,36,38)       -178.7285         calculate D2E/DX2 analytically  !
 ! D90   D(40,34,36,32)        177.1472         calculate D2E/DX2 analytically  !
 ! D91   D(40,34,36,38)         -2.0824         calculate D2E/DX2 analytically  !
 ! D92   D(31,34,40,41)       -112.4632         calculate D2E/DX2 analytically  !
 ! D93   D(36,34,40,41)         70.8784         calculate D2E/DX2 analytically  !
 ! D94   D(32,36,38,39)          0.3702         calculate D2E/DX2 analytically  !
 ! D95   D(34,36,38,39)        179.5718         calculate D2E/DX2 analytically  !
 ! D96   D(34,40,41,42)         58.5252         calculate D2E/DX2 analytically  !
 ! D97   D(34,40,41,43)        176.949          calculate D2E/DX2 analytically  !
 ! D98   D(34,40,41,44)        -63.9796         calculate D2E/DX2 analytically  !
 ! D99   D(5,45,47,48)          67.5468         calculate D2E/DX2 analytically  !
 ! D100  D(27,45,47,48)        -56.7824         calculate D2E/DX2 analytically  !
 ! D101  D(46,45,47,48)       -176.7277         calculate D2E/DX2 analytically  !
 ! D102  D(45,47,48,50)        -39.6814         calculate D2E/DX2 analytically  !
 ! D103  D(47,48,50,49)       -174.5192         calculate D2E/DX2 analytically  !
 --------------------------------------------------------------------------------
 Trust Radius=3.00D-01 FncErr=1.00D-07 GrdErr=1.00D-06 EigMax=2.50D+02 EigMin=1.00D-04
 Number of steps in this run=    243 maximum allowed number of steps=    300.
 GradGradGradGradGradGradGradGradGradGradGradGradGradGradGradGradGradGrad

                          Input orientation:                          
 ---------------------------------------------------------------------
 Center     Atomic      Atomic             Coordinates (Angstroms)
 Number     Number       Type             X           Y           Z
 ---------------------------------------------------------------------
      1          6           0       -2.509006    0.258755   -0.187290
      2          1           0       -1.988670    0.528452   -1.103312
      3          6           0       -1.924910    0.541413    0.996305
      4          1           0       -2.412369    0.292769    1.935004
      5          6           0       -0.607726    1.180564    1.184034
      6          8           0       -0.184307    1.396025    2.309398
      7          6           0       -3.795097   -0.396775   -0.404549
      8          6           0       -4.247304   -0.592609   -1.718875
      9          6           0       -4.610418   -0.860284    0.646828
     10          6           0       -5.465845   -1.210230   -1.974756
     11          1           0       -3.640360   -0.250898   -2.551342
     12          6           0       -5.827010   -1.475988    0.408246
     13          1           0       -4.311821   -0.737582    1.681770
     14          6           0       -6.268804   -1.650413   -0.922418
     15          1           0       -5.806278   -1.342725   -2.998432
     16          8           0       -7.479363   -2.234524   -1.110388
     17          1           0       -7.671226   -2.291835   -2.057058
     18          8           0       -6.610625   -1.843360    1.469794
     19          6           0       -6.772109   -3.256556    1.669030
     20          1           0       -5.800151   -3.738923    1.815718
     21          1           0       -7.369099   -3.366731    2.573889
     22          1           0       -7.293369   -3.722622    0.830935
     23          6           0        2.790720    0.212451   -0.107807
     24          1           0        1.876684   -0.323108   -0.337332
     25          6           0        2.728677    1.527312    0.186520
     26          1           0        3.622019    2.100798    0.416093
     27          6           0        1.486963    2.294439    0.236719
     28          8           0        1.494466    3.495980    0.476723
     29          6           0        3.974846   -0.622844   -0.143901
     30          6           0        3.846722   -1.974925   -0.493474
     31          6           0        5.255895   -0.134998    0.167775
     32          6           0        4.954886   -2.811524   -0.520979
     33          1           0        2.868833   -2.376687   -0.738455
     34          6           0        6.367170   -0.955336    0.146724
     35          1           0        5.408201    0.899717    0.451199
     36          6           0        6.218620   -2.317234   -0.197409
     37          1           0        4.843180   -3.861085   -0.780631
     38          8           0        7.331880   -3.092860   -0.179858
     39          1           0        7.101760   -4.000023   -0.425375
     40          8           0        7.578914   -0.443860    0.526291
     41          6           0        8.558110   -0.326783   -0.516929
     42          1           0        8.186146    0.310840   -1.325745
     43          1           0        9.429955    0.141673   -0.061135
     44          1           0        8.837641   -1.303666   -0.915642
     45          6           0        0.196915    1.547085   -0.048244
     46          1           0        0.355537    0.645324   -0.638701
     47          1           0       -0.404766    2.178515   -0.670307
     48          8           0       -1.322097    3.599202   -1.235466
     49          8           0       -2.729326    5.042119   -0.417158
     50          7           0       -1.954111    4.140817   -0.381510
 ---------------------------------------------------------------------
                    Distance matrix (angstroms):
                    1          2          3          4          5
     1  C    0.000000
     2  H    1.087466   0.000000
     3  C    1.349800   2.100625   0.000000
     4  H    2.124765   3.076757   1.086552   0.000000
     5  C    2.518954   2.750311   1.476052   2.146828   0.000000
     6  O    3.595978   3.956640   2.341853   2.514280   1.221536
     7  C    1.459778   2.146507   2.517973   2.803732   3.894988
     8  C    2.468249   2.595597   3.748563   4.183505   4.981722
     9  C    2.522684   3.444581   3.049400   2.796489   4.524952
    10  C    3.754444   3.984115   4.943043   5.183526   6.268586
    11  H    2.669916   2.330720   4.019493   4.683037   5.019859
    12  C    3.791193   4.586441   4.431941   4.137543   5.907626
    13  H    2.781405   3.841426   2.793391   2.175700   4.200874
    14  C    4.280352   4.806217   5.230202   5.178118   6.670785
    15  H    4.619444   4.654773   5.879874   6.207435   7.133369
    16  O    5.636754   6.146690   6.557128   6.429312   8.009157
    17  H    6.053929   6.415224   7.097215   7.090297   8.512066
    18  O    4.897764   5.797313   5.278945   4.733373   6.727598
    19  C    5.829012   6.700258   6.194551   5.628124   7.610708
    20  H    5.552036   6.423287   5.831827   5.267432   7.180644
    21  H    6.662489   7.592317   6.884879   6.194295   8.265939
    22  H    6.307002   7.067728   6.857820   6.416112   8.298418
    23  C    5.300524   4.892183   4.854322   5.590319   3.762384
    24  H    4.426664   4.031481   4.120449   4.892728   3.278395
    25  C    5.402064   4.991468   4.825310   5.568810   3.499550
    26  H    6.430137   6.021685   5.791092   6.479961   4.396283
    27  C    4.504616   4.122429   3.910364   4.700600   2.554573
    28  O    5.191178   4.840968   4.548798   5.258375   3.206345
    29  C    6.543656   6.148941   6.120677   6.779138   5.100555
    30  C    6.743764   6.378918   6.470173   7.086336   5.710801
    31  C    7.782981   7.385090   7.260024   7.880885   6.094714
    32  C    8.077601   7.727064   7.802303   8.363309   7.055954
    33  H    6.014191   5.671709   5.874068   6.493418   5.332585
    34  C    8.965048   8.578128   8.468804   9.046326   7.367989
    35  H    7.968731   7.567565   7.362068   7.983193   6.066902
    36  C    9.099850   8.733739   8.712858   9.265704   7.793714
    37  H    8.448655   8.126889   8.267196   8.790459   7.680528
    38  O   10.395981  10.041878  10.013963  10.530219   9.119194
    39  H   10.514785  10.178536  10.204244  10.701313   9.426816
    40  O   10.137504   9.753956   9.566313  10.116958   8.372124
    41  C   11.087496  10.597634  10.627199  11.258207   9.443406
    42  H   10.755699  10.179573  10.376827  11.088793   9.186272
    43  H   11.940202  11.472608  11.411000  12.010330  10.167831
    44  H   11.476849  10.981843  11.085683  11.714842   9.989745
    45  C    3.000189   2.632026   2.569942   3.509265   1.516672
    46  H    2.925545   2.392661   2.807932   3.795992   2.129958
    47  H    2.889050   2.327864   2.787209   3.791326   2.115580
    48  O    3.696757   3.145042   3.833309   4.708829   3.494870
    49  O    4.793949   4.625210   4.785532   5.309374   4.687922
    50  N    3.926326   3.683934   3.854210   4.514832   3.609263
                    6          7          8          9         10
     6  O    0.000000
     7  C    4.859778   0.000000
     8  C    6.057194   1.403672   0.000000
     9  C    5.238848   1.408894   2.408330   0.000000
    10  C    7.282938   2.432829   1.389882   2.779734   0.000000
    11  H    6.187362   2.157300   1.085426   3.397154   2.141300
    12  C    6.610820   2.440083   2.792933   1.384236   2.424823
    13  H    4.688557   2.176208   3.404345   1.084122   3.863334
    14  C    7.533029   2.821174   2.416559   2.416005   1.394962
    15  H    8.202461   3.415831   2.151822   3.866620   1.086905
    16  O    8.837062   4.177241   3.675914   3.634170   2.418794
    17  H    9.419140   4.620218   3.837314   4.327688   2.457712
    18  O    7.245420   3.678718   4.161403   2.375824   3.684603
    19  C    8.090471   4.619597   4.994913   3.385251   4.378465
    20  H    7.625557   4.485508   4.980359   3.326910   4.568779
    21  H    8.624096   5.519531   5.989088   4.195970   5.381732
    22  H    8.883983   4.982528   5.057373   3.927480   4.186151
    23  C    4.011797   6.620589   7.264809   7.516454   8.583728
    24  H    3.769387   5.672658   6.283671   6.583283   7.575016
    25  C    3.606844   6.827232   7.535841   7.731417   8.905922
    26  H    4.309226   7.869240   8.587128   8.751815   9.963350
    27  C    2.810034   5.962719   6.711275   6.877392   8.094125
    28  O    3.253734   6.626436   7.382759   7.501705   8.752376
    29  C    5.233838   7.777600   8.371691   8.624870   9.634506
    30  C    5.955551   7.803580   8.302148   8.606157   9.460595
    31  C    6.043706   9.072846   9.699466   9.904527  10.986459
    32  C    7.219820   9.077818   9.541428   9.831895  10.642802
    33  H    5.731006   6.959850   7.401592   7.756138   8.506228
    34  C    7.288889  10.192525  10.783278  10.989385  12.024387
    35  H    5.913998   9.333482  10.008248  10.173918  11.339401
    36  C    7.814720  10.198313  10.715631  10.959174  11.870600
    37  H    7.903234   9.314650   9.705675  10.020627  10.711161
    38  O    9.101624  11.451156  11.945599  12.177286  13.059392
    39  H    9.470116  11.477165  11.919936  12.173031  12.966427
    40  O    8.175099  11.412134  12.038369  12.197039  13.304446
    41  C    9.348050  12.353916  12.864446  13.230612  14.127174
    42  H    9.190015  12.037421  12.472428  13.000563  13.751790
    43  H    9.981326  13.240463  13.796909  14.093871  15.078940
    44  H    9.954133  12.675557  13.128845  13.545781  14.342948
    45  C    2.393037   4.454403   5.207723   5.421162   6.586432
    46  H    3.089704   4.285856   4.887269   5.346041   6.254327
    47  H    3.088614   4.265805   4.852187   5.353191   6.228941
    48  O    4.326039   4.772210   5.134374   5.851761   6.391231
    49  O    5.215863   5.542346   5.979037   6.285613   7.000465
    50  N    4.231675   4.896887   5.427025   5.755385   6.595787
                   11         12         13         14         15
    11  H    0.000000
    12  C    3.878330   0.000000
    13  H    4.313578   2.112559   0.000000
    14  C    3.394224   1.412895   3.383022   0.000000
    15  H    2.466410   3.409347   4.950140   2.149055   0.000000
    16  O    4.555114   2.368944   4.479989   1.357192   2.675674
    17  H    4.545066   3.185037   5.261192   1.914580   2.294564
    18  O    5.246708   1.369635   2.559722   2.424201   4.567565
    19  C    6.054203   2.377648   3.521138   3.090083   5.136222
    20  H    5.991847   2.665065   3.352777   3.475471   5.377531
    21  H    7.062571   3.262355   4.129800   4.047290   6.131050
    22  H    6.069361   2.715923   4.303953   2.901384   4.747568
    23  C    6.895241   8.796727   7.385881   9.284871   9.202318
    24  H    5.945152   7.825083   6.522741   8.273635   8.194448
    25  C    7.156993   9.070212   7.545471   9.606370   9.551256
    26  H    8.190134  10.103346   8.520807  10.662625  10.602340
    27  C    6.367218   8.230416   6.701285   8.778233   8.768496
    28  O    7.040931   8.850377   7.286162   9.418669   9.422878
    29  C    7.995341   9.854395   8.486170  10.324454  10.214547
    30  C    7.953835   9.728470   8.533729  10.129816   9.992742
    31  C    9.303246  11.166327   9.705487  11.674917  11.569578
    32  C    9.195512  10.903962   9.748087  11.290728  11.139919
    33  H    7.083441   8.817248   7.752802   9.168300   9.024086
    34  C   10.388766  12.208092  10.790951  12.700159  12.579146
    35  H    9.602897  11.483718   9.933473  12.030895  11.945419
    36  C   10.344575  12.090149  10.812807  12.526214  12.385216
    37  H    9.388254  10.997958   9.981670  11.330638  11.165650
    38  O   11.579755  13.270890  12.024507  13.697104  13.550591
    39  H   11.574490  13.199196  12.056260  13.584539  13.427557
    40  O   11.635341  13.446115  11.950355  13.975472  13.870652
    41  C   12.367185  14.460577  13.062854  14.891400  14.612516
    42  H   11.903104  14.232639  12.897423  14.592970  14.188731
    43  H   13.311212  15.349662  13.879741  15.824172  15.587622
    44  H   12.628711  14.725297  13.415489  15.110426  14.791346
    45  C    4.921679   6.755370   5.342411   7.265927   7.286490
    46  H    4.519801   6.619664   5.392703   7.016609   6.891200
    47  H    4.461996   6.627171   5.413037   7.007938   6.855336
    48  O    4.682856   6.982377   6.021330   7.219859   6.902070
    49  O    5.779338   7.263791   6.349388   7.587699   7.543000
    50  N    5.180615   6.868155   5.797818   7.242065   7.194213
                   16         17         18         19         20
    16  O    0.000000
    17  H    0.967616   0.000000
    18  O    2.750464   3.710079   0.000000
    19  C    3.044655   3.952573   1.436278   0.000000
    20  H    3.693923   4.537993   2.090380   1.094942   0.000000
    21  H    3.855898   4.763649   2.028538   1.089635   1.781838
    22  H    2.453113   3.245063   2.099025   1.091482   1.788788
    23  C   10.605068  10.932673   9.751947  10.326609   9.649682
    24  H    9.580540   9.899289   8.809727   9.350520   8.673939
    25  C   10.956161  11.303871  10.011533  10.740026  10.155217
    26  H   12.015234  12.367259  11.016972  11.760484  11.173119
    27  C   10.135147  10.496083   9.176752  10.053722   9.591492
    28  O   10.765092  11.132329   9.756395  10.740326  10.360896
    29  C   11.607347  11.919593  10.777099  11.212502  10.445124
    30  C   11.345844  11.627913  10.640857  10.912313  10.075029
    31  C   12.970293  13.293317  12.059355  12.516820  11.744792
    32  C   12.461576  12.729820  11.775464  11.938032  11.044956
    33  H   10.355854  10.622559   9.747868   9.975867   9.139517
    34  C   13.962204  14.273032  13.075254  13.425859  12.592760
    35  H   13.354824  13.694845  12.369890  12.927400  12.206803
    36  C   13.728624  14.013806  12.945797  13.157696  12.268852
    37  H   12.433805  12.676836  11.845897  11.886178  10.956115
    38  O   14.865246  15.141292  14.095249  14.225600  13.298495
    39  H   14.703584  14.960662  14.009724  14.050748  13.097709
    40  O   15.252439  15.577403  14.289570  14.668639  13.839055
    41  C   16.161442  16.420255  15.373275  15.760000  14.941339
    42  H   15.872411  16.086174  15.211839  15.666665  14.895834
    43  H   17.107667  17.388389  16.235280  16.644768  15.828384
    44  H   16.344695  16.577756  15.640668  15.942353  15.088266
    45  C    8.622874   8.982220   7.755137   8.636625   8.208595
    46  H    8.360722   8.664154   7.691990   8.447108   7.945961
    47  H    8.349761   8.643411   7.698584   8.692270   8.384901
    48  O    8.482920   8.700044   8.056578   9.227142   9.121994
    49  O    8.717394   8.994361   8.126186   9.463841   9.566734
    50  N    8.467860   8.767661   7.805179   9.063054   9.039366
                   21         22         23         24         25
    21  H    0.000000
    22  H    1.780529   0.000000
    23  C   11.100629  10.865307   0.000000
    24  H   10.159889   9.849437   1.083959   0.000000
    25  C   11.472413  11.332188   1.348828   2.103418   0.000000
    26  H   12.464134  12.378611   2.128705   3.080449   1.086117
    27  C   10.767592  10.660785   2.480555   2.707946   1.460431
    28  O   11.404284  11.378037   3.578200   3.923546   2.341612
    29  C   11.983338  11.727387   1.449543   2.128272   2.507047
    30  C   11.710699  11.353860   2.459368   2.575642   3.738727
    31  C   13.252319  13.068851   2.504746   3.421927   3.024972
    32  C   12.718768  12.356275   3.741490   3.962483   4.927683
    33  H   10.805881  10.370385   2.665981   2.315696   4.014527
    34  C   14.155954  13.954796   3.770876   4.560536   4.404969
    35  H   13.637001  13.521838   2.763337   3.819515   2.764739
    36  C   13.907108  13.623746   4.261201   4.780013   5.206500
    37  H   12.674263  12.243861   4.610746   4.638307   5.868673
    38  O   14.959175  14.673657   5.617153   6.120089   6.532205
    39  H   14.791971  14.452509   6.035798   6.389748   7.074581
    40  O   15.368114  15.232462   4.874385   5.768523   5.246500
    41  C   16.506678  16.267079   5.806974   6.683840   6.157499
    42  H   16.452882  16.141111   5.532059   6.417800   5.792298
    43  H   17.362617  17.187150   6.639776   7.572596   6.847515
    44  H   16.706031  16.404614   6.286212   7.053429   6.822656
    45  C    9.394985   9.200387   2.917639   2.530379   2.542700
    46  H    9.278325   8.929980   2.529692   1.828270   2.662834
    47  H    9.475046   9.194020   3.793803   3.402059   3.313108
    48  O    9.980062   9.671360   5.445820   5.140366   4.766922
    49  O   10.058957   9.960367   7.341137   7.071588   6.519823
    50  N    9.716983   9.581825   6.166068   5.882480   5.392733
                   26         27         28         29         30
    26  H    0.000000
    27  C    2.151310   0.000000
    28  O    2.544934   1.225300   0.000000
    29  C    2.802910   3.852918   4.847904   0.000000
    30  C    4.182024   4.932455   6.033672   1.402405   0.000000
    31  C    2.780287   4.484614   5.237156   1.405782   2.410052
    32  C    5.175475   6.218638   7.263231   2.427547   1.388770
    33  H    4.684884   4.967892   6.152541   2.157017   1.085217
    34  C    4.116840   5.863920   6.608052   2.432741   2.793219
    35  H    2.152736   4.167416   4.696654   2.174130   3.405024
    36  C    5.161175   6.621523   7.521007   2.812178   2.414690
    37  H    6.202212   7.084467   8.180540   3.412570   2.152438
    38  O    6.410328   7.959873   8.827192   4.167967   3.673481
    39  H    7.073661   8.460766   9.404551   4.611091   3.834179
    40  O    4.705789   6.685357   7.248814   3.670218   4.160930
    41  C    5.579308   7.578912   8.092955   4.607940   4.991403
    42  H    5.202807   7.159261   7.627096   4.472535   4.974736
    43  H    6.148011   8.234940   8.632071   5.509043   5.986601
    44  H    6.369192   8.264791   8.882427   4.970501   5.053522
    45  C    3.500506   1.517882   2.399463   4.357810   5.091549
    46  H    3.728391   2.183132   3.266125   3.866843   4.367513
    47  H    4.171487   2.101136   2.580402   5.225487   5.946216
    48  O    5.423757   3.429366   3.297768   6.861107   7.637940
    49  O    7.048777   5.074879   4.585846   8.781366   9.617127
    50  N    5.990916   3.953772   3.611795   7.609301   8.429976
                   31         32         33         34         35
    31  C    0.000000
    32  C    2.780068   0.000000
    33  H    3.397718   2.141961   0.000000
    34  C    1.381423   2.426068   3.878420   0.000000
    35  H    1.083587   3.863151   4.312597   2.110343   0.000000
    36  C    2.412955   1.395007   3.393720   1.412537   3.380273
    37  H    3.866980   1.086957   2.470478   3.409679   4.949938
    38  O    3.630359   2.417770   4.554528   2.367769   4.476544
    39  H    4.324056   2.455756   4.544327   3.183872   5.257754
    40  O    2.370727   3.686208   5.245976   1.368942   2.553984
    41  C    3.377902   4.376891   6.051368   2.373970   3.516177
    42  H    3.318998   4.564849   5.986779   2.660835   3.349819
    43  H    4.189478   5.381363   7.060398   3.259952   4.124515
    44  H    3.920266   4.183919   6.067078   2.711675   4.299327
    45  C    5.335667   6.469872   4.797033   6.661244   5.275038
    46  H    5.027207   5.754795   3.931814   6.270465   5.175134
    47  H    6.172342   7.324524   5.609898   7.506509   6.056706
    48  O    7.693069   9.000467   7.315884   9.043179   7.445063
    49  O    9.534592  10.988066   9.299532  10.910255   9.172398
    50  N    8.400506   9.802486   8.115791   9.772079   8.087136
                   36         37         38         39         40
    36  C    0.000000
    37  H    2.148362   0.000000
    38  O    1.356927   2.672962   0.000000
    39  H    1.914075   2.290566   0.967563   0.000000
    40  O    2.425628   4.568338   2.752612   3.712094   0.000000
    41  C    3.088236   5.134348   3.044411   3.952471   1.435563
    42  H    3.471466   5.373782   3.691612   4.535427   2.090057
    43  H    4.046908   6.130110   3.857229   4.765166   2.028367
    44  H    2.898698   4.744928   2.451512   3.244069   2.098292
    45  C    7.156545   7.167459   8.512000   8.865073   7.667324
    46  H    6.583861   6.361353   7.928046   8.193673   7.397344
    47  H    8.019017   8.001867   9.374627   9.725341   8.488100
    48  O    9.640757   9.688828  10.990419  11.373910   9.933687
    49  O   11.587670  11.693674  12.940713  13.357045  11.715198
    50  N   10.417958  10.506802  11.772696  12.177192  10.617059
                   41         42         43         44         45
    41  C    0.000000
    42  H    1.095036   0.000000
    43  H    1.089639   1.781830   0.000000
    44  H    1.091517   1.788647   1.780456   0.000000
    45  C    8.581412   8.184627   9.339399   9.140093   0.000000
    46  H    8.260873   7.867804   9.106718   8.707545   1.089483
    47  H    9.307695   8.815984  10.061886   9.879669   1.071301
    48  O   10.655897  10.061221  11.355183  11.285419   2.815684
    49  O   12.499651  11.931390  13.114467  13.202735   4.573210
    50  N   11.422985  10.880492  12.070325  12.099157   3.386063
                   46         47         48         49         50
    46  H    0.000000
    47  H    1.711647   0.000000
    48  O    3.449055   1.783046   0.000000
    49  O    5.375618   3.697011   2.175300   0.000000
    50  N    4.197510   2.516844   1.192489   1.189359   0.000000
 Stoichiometry    C21H20NO8(2)
 Framework group  C1[X(C21H20NO8)]
 Deg. of freedom   144
 Full point group                 C1      NOp   1
 Largest Abelian subgroup         C1      NOp   1
 Largest concise Abelian subgroup C1      NOp   1
                         Standard orientation:                         
 ---------------------------------------------------------------------
 Center     Atomic      Atomic             Coordinates (Angstroms)
 Number     Number       Type             X           Y           Z
 ---------------------------------------------------------------------
      1          6           0       -2.523061    0.300053   -0.174493
      2          1           0       -2.003562    0.573775   -1.089796
      3          6           0       -1.939256    0.580232    1.009835
      4          1           0       -2.425917    0.327563    1.947872
      5          6           0       -0.623410    1.221644    1.199234
      6          8           0       -0.200152    1.434462    2.325161
      7          6           0       -3.807786   -0.357576   -0.393482
      8          6           0       -4.259927   -0.550233   -1.708300
      9          6           0       -4.621812   -0.826177    0.656641
     10          6           0       -5.477195   -1.169684   -1.965809
     11          1           0       -3.653953   -0.204573   -2.539844
     12          6           0       -5.837130   -1.443762    0.416436
     13          1           0       -4.323199   -0.706102    1.691886
     14          6           0       -6.278909   -1.614936   -0.914655
     15          1           0       -5.817619   -1.299679   -2.989808
     16          8           0       -7.488249   -2.201075   -1.104149
     17          1           0       -7.680246   -2.255807   -2.050945
     18          8           0       -6.619656   -1.816190    1.477026
     19          6           0       -6.778019   -3.230357    1.671832
     20          1           0       -5.804977   -3.711075    1.816734
     21          1           0       -7.374521   -3.344689    2.576498
     22          1           0       -7.298496   -3.694899    0.832406
     23          6           0        2.776775    0.265000   -0.096570
     24          1           0        1.863840   -0.271813   -0.327545
     25          6           0        2.711960    1.578786    0.201932
     26          1           0        3.604118    2.153480    0.433080
     27          6           0        1.468598    2.343053    0.254889
     28          8           0        1.473560    3.543843    0.498691
     29          6           0        3.962700   -0.567605   -0.135622
     30          6           0        3.837414   -1.918848   -0.489437
     31          6           0        5.242773   -0.077968    0.177254
     32          6           0        4.947383   -2.752949   -0.519885
     33          1           0        2.860332   -2.321954   -0.735427
     34          6           0        6.355819   -0.895821    0.153311
     35          1           0        5.392911    0.956174    0.463910
     36          6           0        6.210130   -2.256943   -0.195089
     37          1           0        4.837883   -3.801923   -0.782826
     38          8           0        7.325075   -3.030203   -0.180289
     39          1           0        7.096856   -3.937082   -0.428614
     40          8           0        7.566555   -0.382920    0.534171
     41          6           0        8.545209   -0.260419   -0.508934
     42          1           0        8.171641    0.378951   -1.315629
     43          1           0        9.416160    0.208484   -0.051893
     44          1           0        8.826749   -1.235426   -0.910810
     45          6           0        0.180097    1.593806   -0.032093
     46          1           0        0.340513    0.694264   -0.625442
     47          1           0       -0.423123    2.225894   -0.651995
     48          8           0       -1.343688    3.646367   -1.212411
     49          8           0       -2.753821    5.083631   -0.389167
     50          7           0       -1.976642    4.183905   -0.356577
 ---------------------------------------------------------------------
 Rotational constants (GHZ):           0.2064839           0.0493594           0.0424966
 Standard basis: 6-311G(d) (5D, 7F)
 There are   630 symmetry adapted cartesian basis functions of A   symmetry.
 There are   600 symmetry adapted basis functions of A   symmetry.
   600 basis functions,  1060 primitive gaussians,   630 cartesian basis functions
   109 alpha electrons      108 beta electrons
       nuclear repulsion energy      2585.7718269526 Hartrees.
 NAtoms=   50 NActive=   50 NUniq=   50 SFac= 1.00D+00 NAtFMM=   60 NAOKFM=F Big=F
 Integral buffers will be    131072 words long.
 Raffenetti 2 integral format.
 Two-electron integral symmetry is turned on.
 Force inversion solution in PCM.
 Using the following non-standard input for PCM:
 Eps=7
 EpsInf=1.85341
 HbondAcidity=0
 HbondBasicity=0.48
 SurfaceTensionAtInterface=60.62
 CarbonAromaticity=0
 ElectronegativeHalogenicity=0
 --- end of non-standard input.
 Force inversion solution in PCM.
 ------------------------------------------------------------------------------
 Polarizable Continuum Model (PCM)
 =================================
 Model                : PCM.
 Atomic radii         : SMD-Coulomb.
 Polarization charges : Total charges.
 Charge compensation  : None.
 Solution method      : Matrix inversion.
 Cavity type          : VdW (van der Waals Surface) (Alpha=1.000).
 Cavity algorithm     : GePol (No added spheres)
                        Default sphere list used, NSphG=   50.
                        Lebedev-Laikov grids with approx.  5.0 points / Ang**2.
                        Smoothing algorithm: York/Karplus (Gamma=1.0000).
                        Polarization charges: spherical gaussians, with
                                              point-specific exponents (IZeta= 3).
                        Self-potential: point-specific (ISelfS= 7).
                        Self-field    : sphere-specific E.n sum rule (ISelfD= 2).
 1st derivatives      : Analytical E(r).r(x)/FMM algorithm (CHGder, D1EAlg=3).
                        Cavity 1st derivative terms included.
 2nd derivatives      : Analytical E(r).r(xy)/FMM algorithm (CHGder, D2EAlg=3).
                        Cavity 2nd derivative terms included.
 Solvent              : Generic,
                        Eps                           =   7.000000
                        Eps(infinity)                 =   1.853410
                        RSolv                         =   0.000000 Ang.
                        Molar volume                  =   0.000000 cm**3/mol
                        Thermal expansion coefficient =   0.000000 K**-1
                        Absolute temperature          = 298.150000 K
                        Numeral density               =   0.000000 Ang**-3
                        Hydrogen bond acidity         =   0.000000
                        Hydrogen bond basicity        =   0.480000
                        Surface tension at interface  =  60.620000 (cal/mol)*Ang**-2
                        Carbon aromaticity            =   0.000000
                        Electronegative halogenicity  =   0.000000
 ------------------------------------------------------------------------------
 ------------------------------------------------------------------------------
 Atomic radii for non-electrostatic terms: SMD-CDS.
 ------------------------------------------------------------------------------
 Nuclear repulsion after PCM non-electrostatic terms =     2585.7689208951 Hartrees.
 One-electron integrals computed using PRISM.
 NBasis=   600 RedAO= T EigKep=  1.74D-04  NBF=   600
 NBsUse=   600 1.00D-06 EigRej= -1.00D+00 NBFU=   600
 ExpMin= 1.03D-01 ExpMax= 8.59D+03 ExpMxC= 1.30D+03 IAcc=3 IRadAn=         5 AccDes= 0.00D+00
 Harris functional with IExCor=  402 and IRadAn=       5 diagonalized for initial guess.
 HarFok:  IExCor=  402 AccDes= 0.00D+00 IRadAn=         5 IDoV= 1 UseB2=F ITyADJ=14
 ICtDFT=  3500011 ScaDFX=  1.000000  1.000000  1.000000  1.000000
 FoFCou: FMM=F IPFlag=           0 FMFlag=      100000 FMFlg1=           0
         NFxFlg=           0 DoJE=T BraDBF=F KetDBF=T FulRan=T
         wScrn=  0.000000 ICntrl=       500 IOpCl=  0 I1Cent=   200000004 NGrid=           0
         NMat0=    1 NMatS0=      1 NMatT0=    0 NMatD0=    1 NMtDS0=    0 NMtDT0=    0
 Petite list used in FoFCou.
 Initial guess <Sx>= 0.0000 <Sy>= 0.0000 <Sz>= 0.5000 <S**2>= 0.7500 S= 0.5000
 Requested convergence on RMS density matrix=1.00D-08 within 500 cycles.
 Requested convergence on MAX density matrix=1.00D-06.
 Requested convergence on             energy=1.00D-06.
 No special actions if energy rises.
 Inv3:  Mode=1 IEnd=    56924208.
 Iteration    1 A*A^-1 deviation from unit magnitude is 3.77D-15 for   2437.
 Iteration    1 A*A^-1 deviation from orthogonality  is 3.04D-15 for   1504    258.
 Iteration    1 A^-1*A deviation from unit magnitude is 3.22D-15 for   2215.
 Iteration    1 A^-1*A deviation from orthogonality  is 2.54D-14 for   1670   1637.
 EnCoef did     3 forward-backward iterations
 Restarting incremental Fock formation.
 Error on total polarization charges =  0.03398
 SCF Done:  E(UB3LYP) =  -1468.99083781     A.U. after   21 cycles
            NFock= 21  Conv=0.91D-08     -V/T= 2.0032
 <Sx>= 0.0000 <Sy>= 0.0000 <Sz>= 0.5000 <S**2>= 0.7533 S= 0.5017
 <L.S>=  0.00000000000    
 SMD-CDS (non-electrostatic) energy       (kcal/mol) =      -1.82
 (included in total energy above)
 Annihilation of the first spin contaminant:
 S**2 before annihilation     0.7533,   after     0.7500
 DoSCS=F DFT=T ScalE2(SS,OS)=  1.000000  1.000000
 Range of M.O.s used for correlation:     1   600
 NBasis=   600 NAE=   109 NBE=   108 NFC=     0 NFV=     0
 NROrb=    600 NOA=   109 NOB=   108 NVA=   491 NVB=   492

 **** Warning!!: The largest alpha MO coefficient is  0.16538304D+02


 **** Warning!!: The largest beta MO coefficient is  0.16492410D+02


 **** Warning!!: The smallest beta delta epsilon is  0.66633907D-01

 Symmetrizing basis deriv contribution to polar:
 IMax=3 JMax=2 DiffMx= 0.00D+00
 G2DrvN: will do    26 centers at a time, making    2 passes.
 Calling FoFCou, ICntrl=  3107 FMM=F I1Cent=   0 AccDes= 0.00D+00.
 Calling FoFCou, ICntrl=  3107 FMM=F I1Cent=   0 AccDes= 0.00D+00.
 NEqPCM:  Using equilibrium solvation (IEInf=0, Eps=   7.0000, EpsInf=   1.8534)
 G2PCM: DoFxE=T DoFxN=T DoGrad=T DoDP/DQ/DG/TGxP=FFFF NFrqRd=   0 IEInf=0 SqF1=F DoCFld=F IF1Alg=4.
 End of G2Drv F.D. properties file   721 does not exist.
 End of G2Drv F.D. properties file   722 does not exist.
 End of G2Drv F.D. properties file   788 does not exist.
          IDoAtm=11111111111111111111111111111111111111111111111111
 NEqPCM:  Using equilibrium solvation (IEInf=0, Eps=   7.0000, EpsInf=   1.8534)
          Differentiating once with respect to nuclear coordinates.
 CalDSu exits because no D1Ps are significant.
          There are   153 degrees of freedom in the 1st order CPHF.  IDoFFX=6 NUNeed=     0.
    150 vectors produced by pass  0 Test12= 1.07D-13 1.00D-09 XBig12= 3.46D-01 1.74D-01.
 AX will form    50 AO Fock derivatives at one time.
    150 vectors produced by pass  1 Test12= 1.07D-13 1.00D-09 XBig12= 2.80D-02 3.75D-02.
    147 vectors produced by pass  2 Test12= 1.07D-13 1.00D-09 XBig12= 2.98D-04 3.22D-03.
    147 vectors produced by pass  3 Test12= 1.07D-13 1.00D-09 XBig12= 3.14D-06 4.22D-04.
    147 vectors produced by pass  4 Test12= 1.07D-13 1.00D-09 XBig12= 1.92D-08 2.07D-05.
    142 vectors produced by pass  5 Test12= 1.07D-13 1.00D-09 XBig12= 8.00D-11 1.36D-06.
     85 vectors produced by pass  6 Test12= 1.07D-13 1.00D-09 XBig12= 4.36D-13 7.42D-08.
     17 vectors produced by pass  7 Test12= 1.07D-13 1.00D-09 XBig12= 4.45D-15 4.87D-09.
      9 vectors produced by pass  8 Test12= 1.07D-13 1.00D-09 XBig12= 4.29D-15 3.45D-09.
      1 vectors produced by pass  9 Test12= 1.07D-13 1.00D-09 XBig12= 8.53D-16 1.37D-09.
 InvSVY:  IOpt=1 It=  1 EMax= 7.77D-16
 Solved reduced A of dimension   995 with   153 vectors.
 End of Minotr F.D. properties file   721 does not exist.
 End of Minotr F.D. properties file   722 does not exist.
 End of Minotr F.D. properties file   788 does not exist.

 **********************************************************************

            Population analysis using the SCF density.

 **********************************************************************

 Orbital symmetries:
 Alpha Orbitals:
       Occupied  (A) (A) (A) (A) (A) (A) (A) (A) (A) (A) (A) (A)
                 (A) (A) (A) (A) (A) (A) (A) (A) (A) (A) (A) (A)
                 (A) (A) (A) (A) (A) (A) (A) (A) (A) (A) (A) (A)
                 (A) (A) (A) (A) (A) (A) (A) (A) (A) (A) (A) (A)
                 (A) (A) (A) (A) (A) (A) (A) (A) (A) (A) (A) (A)
                 (A) (A) (A) (A) (A) (A) (A) (A) (A) (A) (A) (A)
                 (A) (A) (A) (A) (A) (A) (A) (A) (A) (A) (A) (A)
                 (A) (A) (A) (A) (A) (A) (A) (A) (A) (A) (A) (A)
                 (A) (A) (A) (A) (A) (A) (A) (A) (A) (A) (A) (A)
                 (A)
       Virtual   (A) (A) (A) (A) (A) (A) (A) (A) (A) (A) (A) (A)
                 (A) (A) (A) (A) (A) (A) (A) (A) (A) (A) (A) (A)
                 (A) (A) (A) (A) (A) (A) (A) (A) (A) (A) (A) (A)
                 (A) (A) (A) (A) (A) (A) (A) (A) (A) (A) (A) (A)
                 (A) (A) (A) (A) (A) (A) (A) (A) (A) (A) (A) (A)
                 (A) (A) (A) (A) (A) (A) (A) (A) (A) (A) (A) (A)
                 (A) (A) (A) (A) (A) (A) (A) (A) (A) (A) (A) (A)
                 (A) (A) (A) (A) (A) (A) (A) (A) (A) (A) (A) (A)
                 (A) (A) (A) (A) (A) (A) (A) (A) (A) (A) (A) (A)
                 (A) (A) (A) (A) (A) (A) (A) (A) (A) (A) (A) (A)
                 (A) (A) (A) (A) (A) (A) (A) (A) (A) (A) (A) (A)
                 (A) (A) (A) (A) (A) (A) (A) (A) (A) (A) (A) (A)
                 (A) (A) (A) (A) (A) (A) (A) (A) (A) (A) (A) (A)
                 (A) (A) (A) (A) (A) (A) (A) (A) (A) (A) (A) (A)
                 (A) (A) (A) (A) (A) (A) (A) (A) (A) (A) (A) (A)
                 (A) (A) (A) (A) (A) (A) (A) (A) (A) (A) (A) (A)
                 (A) (A) (A) (A) (A) (A) (A) (A) (A) (A) (A) (A)
                 (A) (A) (A) (A) (A) (A) (A) (A) (A) (A) (A) (A)
                 (A) (A) (A) (A) (A) (A) (A) (A) (A) (A) (A) (A)
                 (A) (A) (A) (A) (A) (A) (A) (A) (A) (A) (A) (A)
                 (A) (A) (A) (A) (A) (A) (A) (A) (A) (A) (A) (A)
                 (A) (A) (A) (A) (A) (A) (A) (A) (A) (A) (A) (A)
                 (A) (A) (A) (A) (A) (A) (A) (A) (A) (A) (A) (A)
                 (A) (A) (A) (A) (A) (A) (A) (A) (A) (A) (A) (A)
                 (A) (A) (A) (A) (A) (A) (A) (A) (A) (A) (A) (A)
                 (A) (A) (A) (A) (A) (A) (A) (A) (A) (A) (A) (A)
                 (A) (A) (A) (A) (A) (A) (A) (A) (A) (A) (A) (A)
                 (A) (A) (A) (A) (A) (A) (A) (A) (A) (A) (A) (A)
                 (A) (A) (A) (A) (A) (A) (A) (A) (A) (A) (A) (A)
                 (A) (A) (A) (A) (A) (A) (A) (A) (A) (A) (A) (A)
                 (A) (A) (A) (A) (A) (A) (A) (A) (A) (A) (A) (A)
                 (A) (A) (A) (A) (A) (A) (A) (A) (A) (A) (A) (A)
                 (A) (A) (A) (A) (A) (A) (A) (A) (A) (A) (A) (A)
                 (A) (A) (A) (A) (A) (A) (A) (A) (A) (A) (A) (A)
                 (A) (A) (A) (A) (A) (A) (A) (A) (A) (A) (A) (A)
                 (A) (A) (A) (A) (A) (A) (A) (A) (A) (A) (A) (A)
                 (A) (A) (A) (A) (A) (A) (A) (A) (A) (A) (A) (A)
                 (A) (A) (A) (A) (A) (A) (A) (A) (A) (A) (A) (A)
                 (A) (A) (A) (A) (A) (A) (A) (A) (A) (A) (A) (A)
                 (A) (A) (A) (A) (A) (A) (A) (A) (A) (A) (A) (A)
                 (A) (A) (A) (A) (A) (A) (A) (A) (A) (A) (A)
 Beta  Orbitals:
       Occupied  (A) (A) (A) (A) (A) (A) (A) (A) (A) (A) (A) (A)
                 (A) (A) (A) (A) (A) (A) (A) (A) (A) (A) (A) (A)
                 (A) (A) (A) (A) (A) (A) (A) (A) (A) (A) (A) (A)
                 (A) (A) (A) (A) (A) (A) (A) (A) (A) (A) (A) (A)
                 (A) (A) (A) (A) (A) (A) (A) (A) (A) (A) (A) (A)
                 (A) (A) (A) (A) (A) (A) (A) (A) (A) (A) (A) (A)
                 (A) (A) (A) (A) (A) (A) (A) (A) (A) (A) (A) (A)
                 (A) (A) (A) (A) (A) (A) (A) (A) (A) (A) (A) (A)
                 (A) (A) (A) (A) (A) (A) (A) (A) (A) (A) (A) (A)
       Virtual   (A) (A) (A) (A) (A) (A) (A) (A) (A) (A) (A) (A)
                 (A) (A) (A) (A) (A) (A) (A) (A) (A) (A) (A) (A)
                 (A) (A) (A) (A) (A) (A) (A) (A) (A) (A) (A) (A)
                 (A) (A) (A) (A) (A) (A) (A) (A) (A) (A) (A) (A)
                 (A) (A) (A) (A) (A) (A) (A) (A) (A) (A) (A) (A)
                 (A) (A) (A) (A) (A) (A) (A) (A) (A) (A) (A) (A)
                 (A) (A) (A) (A) (A) (A) (A) (A) (A) (A) (A) (A)
                 (A) (A) (A) (A) (A) (A) (A) (A) (A) (A) (A) (A)
                 (A) (A) (A) (A) (A) (A) (A) (A) (A) (A) (A) (A)
                 (A) (A) (A) (A) (A) (A) (A) (A) (A) (A) (A) (A)
                 (A) (A) (A) (A) (A) (A) (A) (A) (A) (A) (A) (A)
                 (A) (A) (A) (A) (A) (A) (A) (A) (A) (A) (A) (A)
                 (A) (A) (A) (A) (A) (A) (A) (A) (A) (A) (A) (A)
                 (A) (A) (A) (A) (A) (A) (A) (A) (A) (A) (A) (A)
                 (A) (A) (A) (A) (A) (A) (A) (A) (A) (A) (A) (A)
                 (A) (A) (A) (A) (A) (A) (A) (A) (A) (A) (A) (A)
                 (A) (A) (A) (A) (A) (A) (A) (A) (A) (A) (A) (A)
                 (A) (A) (A) (A) (A) (A) (A) (A) (A) (A) (A) (A)
                 (A) (A) (A) (A) (A) (A) (A) (A) (A) (A) (A) (A)
                 (A) (A) (A) (A) (A) (A) (A) (A) (A) (A) (A) (A)
                 (A) (A) (A) (A) (A) (A) (A) (A) (A) (A) (A) (A)
                 (A) (A) (A) (A) (A) (A) (A) (A) (A) (A) (A) (A)
                 (A) (A) (A) (A) (A) (A) (A) (A) (A) (A) (A) (A)
                 (A) (A) (A) (A) (A) (A) (A) (A) (A) (A) (A) (A)
                 (A) (A) (A) (A) (A) (A) (A) (A) (A) (A) (A) (A)
                 (A) (A) (A) (A) (A) (A) (A) (A) (A) (A) (A) (A)
                 (A) (A) (A) (A) (A) (A) (A) (A) (A) (A) (A) (A)
                 (A) (A) (A) (A) (A) (A) (A) (A) (A) (A) (A) (A)
                 (A) (A) (A) (A) (A) (A) (A) (A) (A) (A) (A) (A)
                 (A) (A) (A) (A) (A) (A) (A) (A) (A) (A) (A) (A)
                 (A) (A) (A) (A) (A) (A) (A) (A) (A) (A) (A) (A)
                 (A) (A) (A) (A) (A) (A) (A) (A) (A) (A) (A) (A)
                 (A) (A) (A) (A) (A) (A) (A) (A) (A) (A) (A) (A)
                 (A) (A) (A) (A) (A) (A) (A) (A) (A) (A) (A) (A)
                 (A) (A) (A) (A) (A) (A) (A) (A) (A) (A) (A) (A)
                 (A) (A) (A) (A) (A) (A) (A) (A) (A) (A) (A) (A)
                 (A) (A) (A) (A) (A) (A) (A) (A) (A) (A) (A) (A)
                 (A) (A) (A) (A) (A) (A) (A) (A) (A) (A) (A) (A)
                 (A) (A) (A) (A) (A) (A) (A) (A) (A) (A) (A) (A)
                 (A) (A) (A) (A) (A) (A) (A) (A) (A) (A) (A) (A)
                 (A) (A) (A) (A) (A) (A) (A) (A) (A) (A) (A) (A)
 The electronic state is 2-A.
 Alpha  occ. eigenvalues --  -19.23471 -19.23335 -19.16228 -19.16115 -19.13558
 Alpha  occ. eigenvalues --  -19.13446 -19.09727 -19.09207 -14.56044 -10.25542
 Alpha  occ. eigenvalues --  -10.24840 -10.24781 -10.24707 -10.23326 -10.23132
 Alpha  occ. eigenvalues --  -10.20738 -10.20648 -10.19597 -10.19117 -10.18967
 Alpha  occ. eigenvalues --  -10.18579 -10.18407 -10.18240 -10.18170 -10.18036
 Alpha  occ. eigenvalues --  -10.18030 -10.17779 -10.17334 -10.16780 -10.15838
 Alpha  occ. eigenvalues --   -1.29952  -1.14812  -1.08315  -1.08223  -1.05049
 Alpha  occ. eigenvalues --   -1.04988  -1.03664  -1.02475  -0.86941  -0.86902
 Alpha  occ. eigenvalues --   -0.81305  -0.80671  -0.76820  -0.76306  -0.76237
 Alpha  occ. eigenvalues --   -0.74564  -0.72398  -0.69033  -0.68948  -0.68369
 Alpha  occ. eigenvalues --   -0.66512  -0.65889  -0.62745  -0.61914  -0.59399
 Alpha  occ. eigenvalues --   -0.58767  -0.58585  -0.58077  -0.57667  -0.56355
 Alpha  occ. eigenvalues --   -0.55891  -0.55066  -0.52138  -0.51353  -0.51252
 Alpha  occ. eigenvalues --   -0.50317  -0.49145  -0.47922  -0.47432  -0.47259
 Alpha  occ. eigenvalues --   -0.46507  -0.46320  -0.46251  -0.44338  -0.44168
 Alpha  occ. eigenvalues --   -0.43855  -0.43648  -0.43414  -0.42626  -0.41843
 Alpha  occ. eigenvalues --   -0.41594  -0.41349  -0.40996  -0.40577  -0.39085
 Alpha  occ. eigenvalues --   -0.38775  -0.38392  -0.37917  -0.37697  -0.37574
 Alpha  occ. eigenvalues --   -0.37474  -0.36948  -0.36390  -0.36338  -0.35863
 Alpha  occ. eigenvalues --   -0.34331  -0.34199  -0.34067  -0.29521  -0.29257
 Alpha  occ. eigenvalues --   -0.29030  -0.28488  -0.28369  -0.25411  -0.25304
 Alpha  occ. eigenvalues --   -0.25185  -0.24305  -0.22129  -0.21898
 Alpha virt. eigenvalues --   -0.09222  -0.07173  -0.06877  -0.01450  -0.01299
 Alpha virt. eigenvalues --    0.01108   0.01615   0.03717   0.03798   0.05471
 Alpha virt. eigenvalues --    0.06369   0.06763   0.06992   0.07433   0.07572
 Alpha virt. eigenvalues --    0.07976   0.08397   0.09236   0.10308   0.11300
 Alpha virt. eigenvalues --    0.11867   0.12252   0.12372   0.13426   0.14218
 Alpha virt. eigenvalues --    0.14718   0.15567   0.15679   0.16205   0.16655
 Alpha virt. eigenvalues --    0.16779   0.17264   0.18821   0.19977   0.21235
 Alpha virt. eigenvalues --    0.21967   0.22842   0.24222   0.24507   0.25414
 Alpha virt. eigenvalues --    0.26033   0.26221   0.26592   0.27336   0.28358
 Alpha virt. eigenvalues --    0.28678   0.29706   0.30232   0.30725   0.30997
 Alpha virt. eigenvalues --    0.31435   0.32385   0.32680   0.33123   0.34782
 Alpha virt. eigenvalues --    0.35342   0.35681   0.35950   0.36073   0.36193
 Alpha virt. eigenvalues --    0.36418   0.37316   0.37428   0.37723   0.38467
 Alpha virt. eigenvalues --    0.38898   0.39813   0.40022   0.40169   0.40434
 Alpha virt. eigenvalues --    0.40939   0.41908   0.42400   0.42743   0.42829
 Alpha virt. eigenvalues --    0.43097   0.43538   0.43870   0.44603   0.44857
 Alpha virt. eigenvalues --    0.44980   0.45406   0.45912   0.46666   0.46955
 Alpha virt. eigenvalues --    0.47624   0.48219   0.48991   0.49444   0.49709
 Alpha virt. eigenvalues --    0.50360   0.51035   0.51550   0.52020   0.52266
 Alpha virt. eigenvalues --    0.52482   0.53431   0.54312   0.54500   0.54743
 Alpha virt. eigenvalues --    0.55461   0.55989   0.56942   0.57272   0.57505
 Alpha virt. eigenvalues --    0.57780   0.58007   0.58415   0.58728   0.58929
 Alpha virt. eigenvalues --    0.59391   0.59777   0.60722   0.60975   0.61610
 Alpha virt. eigenvalues --    0.62027   0.62475   0.62951   0.63207   0.63355
 Alpha virt. eigenvalues --    0.63491   0.64159   0.64423   0.64720   0.65274
 Alpha virt. eigenvalues --    0.65919   0.67359   0.67486   0.68175   0.69403
 Alpha virt. eigenvalues --    0.69541   0.70786   0.70938   0.71690   0.73188
 Alpha virt. eigenvalues --    0.74595   0.75100   0.75188   0.77206   0.77467
 Alpha virt. eigenvalues --    0.78280   0.78689   0.78848   0.79159   0.79504
 Alpha virt. eigenvalues --    0.79871   0.80138   0.80449   0.80617   0.80978
 Alpha virt. eigenvalues --    0.81343   0.82467   0.83182   0.83643   0.83755
 Alpha virt. eigenvalues --    0.84484   0.85281   0.85714   0.86450   0.86847
 Alpha virt. eigenvalues --    0.88336   0.88616   0.89623   0.90350   0.91660
 Alpha virt. eigenvalues --    0.92352   0.93591   0.93621   0.94765   0.94966
 Alpha virt. eigenvalues --    0.95744   0.96853   0.97215   0.97627   0.98228
 Alpha virt. eigenvalues --    0.98445   1.00200   1.00799   1.01768   1.02844
 Alpha virt. eigenvalues --    1.04026   1.04751   1.05997   1.06504   1.08209
 Alpha virt. eigenvalues --    1.08818   1.09323   1.10159   1.12638   1.13850
 Alpha virt. eigenvalues --    1.13900   1.14580   1.14929   1.15193   1.15657
 Alpha virt. eigenvalues --    1.17142   1.17762   1.19558   1.19969   1.21194
 Alpha virt. eigenvalues --    1.21651   1.23160   1.23375   1.23863   1.24065
 Alpha virt. eigenvalues --    1.26052   1.27405   1.28817   1.28939   1.30888
 Alpha virt. eigenvalues --    1.33928   1.36267   1.36915   1.37994   1.38078
 Alpha virt. eigenvalues --    1.39322   1.40565   1.44206   1.44785   1.45914
 Alpha virt. eigenvalues --    1.46338   1.47107   1.47152   1.49958   1.50013
 Alpha virt. eigenvalues --    1.50908   1.51652   1.51932   1.52940   1.53242
 Alpha virt. eigenvalues --    1.53555   1.54558   1.55100   1.55520   1.55935
 Alpha virt. eigenvalues --    1.56984   1.58098   1.58762   1.59416   1.61442
 Alpha virt. eigenvalues --    1.62597   1.63111   1.63472   1.64895   1.66363
 Alpha virt. eigenvalues --    1.67982   1.68020   1.68377   1.69105   1.69308
 Alpha virt. eigenvalues --    1.70397   1.70982   1.71161   1.72462   1.73661
 Alpha virt. eigenvalues --    1.74427   1.75179   1.75876   1.76220   1.76942
 Alpha virt. eigenvalues --    1.77980   1.78589   1.79042   1.79832   1.80947
 Alpha virt. eigenvalues --    1.83009   1.83091   1.84037   1.84371   1.85828
 Alpha virt. eigenvalues --    1.86612   1.87782   1.89242   1.90707   1.90952
 Alpha virt. eigenvalues --    1.94350   1.95394   1.95801   1.97709   1.98367
 Alpha virt. eigenvalues --    2.02050   2.02236   2.02500   2.03081   2.05026
 Alpha virt. eigenvalues --    2.09233   2.10132   2.10643   2.12971   2.13284
 Alpha virt. eigenvalues --    2.14517   2.15780   2.17034   2.17659   2.19246
 Alpha virt. eigenvalues --    2.23234   2.24218   2.25536   2.28278   2.28779
 Alpha virt. eigenvalues --    2.29466   2.30011   2.30735   2.31159   2.31342
 Alpha virt. eigenvalues --    2.31659   2.31942   2.34354   2.34757   2.35972
 Alpha virt. eigenvalues --    2.37885   2.38869   2.39013   2.40481   2.40967
 Alpha virt. eigenvalues --    2.44501   2.45796   2.50098   2.50837   2.51100
 Alpha virt. eigenvalues --    2.52221   2.52876   2.56364   2.57137   2.58571
 Alpha virt. eigenvalues --    2.63516   2.64099   2.64636   2.65473   2.66025
 Alpha virt. eigenvalues --    2.66568   2.68845   2.69797   2.71775   2.72961
 Alpha virt. eigenvalues --    2.73266   2.74473   2.74759   2.75850   2.76018
 Alpha virt. eigenvalues --    2.76377   2.78443   2.81115   2.81473   2.83110
 Alpha virt. eigenvalues --    2.84522   2.86520   2.86747   2.89571   2.90527
 Alpha virt. eigenvalues --    2.91462   2.93247   2.94133   2.94429   2.95029
 Alpha virt. eigenvalues --    2.95315   2.96005   2.96372   2.97033   2.97766
 Alpha virt. eigenvalues --    2.98720   2.99364   3.00440   3.02540   3.03380
 Alpha virt. eigenvalues --    3.03667   3.04485   3.08585   3.08758   3.11999
 Alpha virt. eigenvalues --    3.12935   3.14211   3.14594   3.14637   3.14878
 Alpha virt. eigenvalues --    3.15450   3.16473   3.16756   3.17108   3.18094
 Alpha virt. eigenvalues --    3.18895   3.20188   3.20722   3.24864   3.25323
 Alpha virt. eigenvalues --    3.25508   3.26827   3.29386   3.29744   3.30049
 Alpha virt. eigenvalues --    3.30355   3.31363   3.31777   3.33095   3.33413
 Alpha virt. eigenvalues --    3.33881   3.35011   3.35665   3.37808   3.39303
 Alpha virt. eigenvalues --    3.40365   3.41415   3.45055   3.46005   3.46424
 Alpha virt. eigenvalues --    3.47982   3.48395   3.49283   3.51413   3.51901
 Alpha virt. eigenvalues --    3.55145   3.58910   3.61650   3.64770   3.65842
 Alpha virt. eigenvalues --    3.67304   3.70149   3.71449   3.71867   3.87060
 Alpha virt. eigenvalues --    3.87302   3.88049   3.89660   3.90204   3.90703
 Alpha virt. eigenvalues --    3.94422   3.94869   4.00393   4.07003   4.07398
 Alpha virt. eigenvalues --    4.07530   4.16220   4.35898   4.45406   4.54500
 Alpha virt. eigenvalues --    4.75981   4.77802   4.78721   4.79111   4.79779
 Alpha virt. eigenvalues --    4.81012   4.81119   4.88781   4.91552   4.93783
 Alpha virt. eigenvalues --    4.96649   4.96843   5.04401   5.07075   5.11020
 Alpha virt. eigenvalues --    5.11124   5.16230   5.16560   5.35698   5.50094
 Alpha virt. eigenvalues --    5.50333   5.59807   5.61233   5.68179   5.68358
 Alpha virt. eigenvalues --    6.00606  23.22756  23.24687  23.42207  23.42363
 Alpha virt. eigenvalues --   23.54321  23.57720  23.75148  23.78710  23.79163
 Alpha virt. eigenvalues --   23.82150  23.85948  23.86368  23.88487  23.98854
 Alpha virt. eigenvalues --   23.99707  24.05196  24.06056  24.11744  24.12564
 Alpha virt. eigenvalues --   24.15251  24.16152  35.27021  49.73437  49.84778
 Alpha virt. eigenvalues --   49.86477  49.86622  49.92873  49.93024  49.98107
 Alpha virt. eigenvalues --   49.99279
  Beta  occ. eigenvalues --  -19.22546 -19.22432 -19.16227 -19.16115 -19.13558
  Beta  occ. eigenvalues --  -19.13446 -19.09725 -19.09207 -14.54959 -10.25543
  Beta  occ. eigenvalues --  -10.24839 -10.24782 -10.24707 -10.23326 -10.23132
  Beta  occ. eigenvalues --  -10.20738 -10.20648 -10.19595 -10.19117 -10.18967
  Beta  occ. eigenvalues --  -10.18579 -10.18406 -10.18240 -10.18170 -10.18036
  Beta  occ. eigenvalues --  -10.18029 -10.17779 -10.17331 -10.16780 -10.15833
  Beta  occ. eigenvalues --   -1.28119  -1.12690  -1.08314  -1.08223  -1.05049
  Beta  occ. eigenvalues --   -1.04988  -1.03661  -1.02473  -0.86939  -0.86902
  Beta  occ. eigenvalues --   -0.81300  -0.80668  -0.76810  -0.76305  -0.76237
  Beta  occ. eigenvalues --   -0.74562  -0.72379  -0.69032  -0.68948  -0.66511
  Beta  occ. eigenvalues --   -0.65955  -0.65180  -0.62743  -0.61868  -0.58790
  Beta  occ. eigenvalues --   -0.58599  -0.56606  -0.56346  -0.56228  -0.55865
  Beta  occ. eigenvalues --   -0.55081  -0.54648  -0.52052  -0.51352  -0.51242
  Beta  occ. eigenvalues --   -0.50292  -0.49008  -0.47894  -0.47431  -0.47240
  Beta  occ. eigenvalues --   -0.46425  -0.46314  -0.46250  -0.44302  -0.44165
  Beta  occ. eigenvalues --   -0.43854  -0.43609  -0.43334  -0.42623  -0.41668
  Beta  occ. eigenvalues --   -0.41566  -0.41344  -0.40942  -0.40530  -0.38738
  Beta  occ. eigenvalues --   -0.37917  -0.37885  -0.37686  -0.37515  -0.37511
  Beta  occ. eigenvalues --   -0.37179  -0.36797  -0.36344  -0.36242  -0.35686
  Beta  occ. eigenvalues --   -0.34287  -0.34169  -0.32662  -0.29336  -0.29029
  Beta  occ. eigenvalues --   -0.28489  -0.28369  -0.25409  -0.25298  -0.25179
  Beta  occ. eigenvalues --   -0.24299  -0.22129  -0.21899
  Beta virt. eigenvalues --   -0.15236  -0.07582  -0.07150  -0.06859  -0.01447
  Beta virt. eigenvalues --   -0.01299   0.01116   0.01621   0.03717   0.03798
  Beta virt. eigenvalues --    0.05480   0.06371   0.06764   0.06996   0.07443
  Beta virt. eigenvalues --    0.07579   0.07981   0.08400   0.09247   0.10311
  Beta virt. eigenvalues --    0.11311   0.11871   0.12254   0.12372   0.13443
  Beta virt. eigenvalues --    0.14227   0.14729   0.15586   0.15756   0.16210
  Beta virt. eigenvalues --    0.16676   0.16782   0.17491   0.18833   0.20025
[...]
 9,-0.00003091,-0.00001350,-0.00001203,0.00000081,0.00004434,-0.0000629
 5,-0.00001959,-0.00001176,0.00000112,-0.00000278,-0.00000170,0.0000106
 8,0.00000213,0.00000886,0.00002861,-0.00000205,0.00001099,0.00000983,0
 .00001288,0.00000119,0.00000474,-0.00000291,0.00000015,-0.00000133,0.0
 0000166,-0.00000275,0.00000397,0.00000051,-0.00000227,-0.00000020,0.00
 000200,0.00002200,0.00000130,0.00000041,-0.00000465,-0.00000091,0.0000
 0871,-0.00000037,0.00000055,-0.00000202,0.00000084,0.00000020,-0.00000
 067,0.00000074,-0.00000035,-0.00000087,0.10654957,-0.15455780,0.079739
 43,0.01438651,-0.01520767,0.01168830,-0.11123460,0.16713822,-0.0000500
 4,-0.00028989,0.00040347,-0.00000624,-0.00018957,0.00030213,0.00098302
 ,-0.00174008,0.00039228,-0.00011684,-0.00032565,-0.00007874,-0.0207411
 8,0.01795175,-0.01428547,0.00463809,-0.00059132,-0.00488879,0.00018629
 ,0.00016734,0.00014005,-0.00005339,-0.00000697,-0.00001883,-0.00008932
 ,-0.00007679,0.00001891,0.00002353,0.00000089,-0.00002801,-0.00000942,
 0.00000247,-0.00000057,0.00002393,0.00002883,0.00002588,0.00000295,-0.
 00000112,-0.00001791,-0.00001768,0.00000375,0.00000412,-0.00000434,-0.
 00000464,-0.00000048,0.00000586,-0.00000393,-0.00000520,-0.00000126,0.
 00000084,0.00000065,-0.00000786,-0.00001191,-0.00000213,0.00000080,0.0
 0001080,0.00000073,0.00000097,-0.00000103,0.00000040,0.00000012,-0.000
 00076,0.,-0.00000131,-0.00000159,-0.00000080,0.00037216,-0.00072104,-0
 .00008420,0.00012702,0.00025670,-0.00005626,-0.00047950,-0.00034510,0.
 00036062,-0.00013584,0.00009982,0.00017002,-0.00239603,0.00514366,-0.0
 0224396,0.00121850,-0.00066301,0.00031882,-0.00001421,0.00023679,0.000
 02134,0.00000233,-0.00004669,-0.00000742,0.00008654,-0.00003959,0.0000
 0240,-0.00004314,-0.00000655,-0.00000495,0.00000154,0.00000475,0.00000
 102,0.00001862,0.00005337,-0.00000369,0.00000276,-0.00000421,0.0000099
 0,0.00004050,-0.00001811,0.00000197,-0.00000089,0.00000148,0.00000185,
 -0.00004437,0.00003154,-0.00000416,0.00000067,-0.00000735,0.00000216,-
 0.00000383,-0.00000758,0.00000006,0.00000455,-0.00000071,-0.00000006,-
 0.00000035,0.00000053,-0.00000033,-0.00000102,-0.00000103,-0.00000032,
 0.00000096,0.00000108,-0.00000013,-0.08013652,0.08007712,-0.09980855,0
 .01293246,-0.01304323,0.01102909,0.08366822,-0.08591227,0.10853417,0.0
 0006292,-0.00000863,-0.00000856,-0.00003215,0.00006019,0.00004658,0.00
 005651,-0.00003766,-0.00009701,0.00000701,0.00002069,0.00001150,-0.000
 05767,0.00010072,-0.00008180,0.00008720,0.00002436,0.00011651,0.000001
 20,-0.00000870,0.00001057,0.00002278,-0.00001132,-0.00000454,0.0000054
 5,-0.00000520,-0.00002281,0.00000172,-0.00002306,0.00002401,-0.0000082
 2,0.00001898,0.00002038,0.00001674,0.00002324,-0.00007057,-0.00000058,
 0.00001156,0.00000192,0.00006018,0.00003489,0.00001853,-0.00000323,0.0
 0000719,-0.00000099,-0.00006576,-0.00004010,-0.00000980,0.00000870,0.0
 0001327,0.00000671,-0.00003727,-0.00005743,0.00005310,0.00000621,0.000
 04930,-0.00000342,0.00000458,-0.00000685,-0.00000197,-0.00000293,-0.00
 000515,0.00000482,-0.00000066,-0.00000243,-0.00000350,-0.00007102,-0.0
 0019251,-0.00001019,0.00001546,0.00002180,-0.00000184,0.00013833,0.000
 57143,0.00015651,0.00003604,-0.00004365,-0.00000888,-0.00096476,-0.000
 86174,-0.00024122,-0.00003096,0.00112127,-0.00039598,-0.00004806,0.000
 10400,-0.00000456,-0.00002141,-0.00005759,-0.00000555,0.00004205,0.000
 01037,0.00000854,-0.00005059,0.00000239,-0.00000366,0.00000672,0.00000
 283,-0.00000092,0.00001286,0.00006435,0.00000804,0.00001020,-0.0000046
 6,-0.00000210,0.00006373,-0.00004702,0.00000491,-0.00000615,0.00000855
 ,-0.00000157,-0.00008220,0.00006500,-0.00000540,0.00000172,-0.00001536
 ,-0.00000150,-0.00003691,-0.00000598,0.00000786,0.00001810,-0.00000168
 ,-0.00001963,-0.00000042,-0.00000250,0.00000226,-0.00000082,-0.0000023
 6,0.00000199,-0.00000038,0.00000515,0.00000091,-0.00012550,0.00018177,
 -0.00034076,0.00013585,-0.00000820,0.00004758,0.00033700,0.00031938,0.
 00029899,0.14252077,0.00018731,0.00002746,0.00012836,0.00000915,0.0000
 4145,0.00006772,-0.00021392,-0.00014177,-0.00003974,-0.00005818,-0.000
 02078,0.00001822,0.00050574,0.00030761,-0.00082014,-0.00011015,-0.0000
 7205,0.00040572,-0.00008376,-0.00004165,0.00000192,0.00003631,-0.00000
 279,0.00005537,0.00001422,0.00001072,-0.00005151,-0.00004490,-0.000033
 30,0.00003894,0.00000556,0.00000666,0.00000695,-0.00000877,0.00002024,
 -0.00010448,0.00001050,0.00001132,-0.00000250,0.00011187,0.00004697,0.
 00002321,-0.00000949,-0.00000310,-0.00000692,-0.00014049,-0.00005764,-
 0.00002658,0.00001673,0.00000269,0.00001696,-0.00004665,-0.00005795,0.
 00005578,0.00001180,0.00004818,-0.00000234,0.00000242,-0.00000599,-0.0
 0000144,-0.00000191,-0.00000540,0.00000562,-0.00000125,-0.00000191,-0.
 00000578,-0.00003965,0.00039465,0.00001971,-0.00002102,0.00004728,-0.0
 0000382,0.00027358,-0.00076124,-0.00012785,0.00005923,0.00003254,0.000
 00101,-0.00036925,0.00128813,0.00006978,0.00168836,-0.00090459,0.00067
 370,0.00015334,-0.00015687,0.00001406,0.00001617,0.00011687,0.00001420
 ,-0.00008088,-0.00006042,-0.00001534,0.00011734,0.00001000,0.00001563,
 -0.00000909,0.00000538,-0.00000227,-0.00005075,-0.00015491,-0.00002118
 ,-0.00001814,0.00001015,-0.00000391,-0.00014426,0.00009614,-0.00001487
 ,0.00000881,-0.00001447,0.00000052,0.00018181,-0.00013130,0.00001648,-
 0.00000617,0.00002997,-0.00000075,0.00011038,0.00004412,-0.00000373,-0
 .00004024,-0.00000222,0.00003897,0.00000010,-0.00000042,-0.00000900,0.
 00000963,0.00000417,-0.00000166,-0.00000150,-0.00000507,-0.00000299,-0
 .00044350,-0.00018221,-0.00016928,0.00014274,-0.00023300,0.00012220,0.
 00009973,-0.00009363,0.00068835,0.09099774,0.11177809,0.00010458,0.000
 00686,-0.00007769,-0.00003927,0.00009312,0.00007636,0.00003417,-0.0000
 4246,-0.00009240,0.00000530,0.00000848,0.00002860,0.00017461,0.0000885
 2,-0.00055855,0.00010215,0.00013180,0.00049920,-0.00000411,-0.00002224
 ,0.00003724,0.00003888,0.00000002,-0.00002448,-0.00000128,-0.00000496,
 -0.00003431,-0.00000417,-0.00003176,0.00004150,-0.00000784,0.00002333,
 0.00003379,0.00002441,0.00003240,-0.00010504,0.00000363,0.00001001,0.0
 0000443,0.00008843,0.00004933,0.00002302,-0.00000085,0.00000842,-0.000
 00340,-0.00010127,-0.00005530,-0.00000980,0.00001589,0.00001591,0.0000
 0641,-0.00005919,-0.00008106,0.00008860,0.00000823,0.00006536,-0.00000
 636,0.00000610,-0.00000906,-0.00000420,-0.00000485,-0.00000778,0.00000
 745,0.00000056,-0.00000325,-0.00000410,-0.00012135,-0.00036206,-0.0000
 5387,0.00002668,0.00005491,-0.00003526,0.00024769,0.00116336,-0.000246
 33,0.00008138,-0.00006899,-0.00001489,-0.00150507,-0.00196742,-0.00049
 276,-0.00011090,0.00251303,0.00265584,-0.00011527,0.00020038,0.0000635
 7,-0.00003500,-0.00011518,0.00000627,0.00008315,0.00001650,0.00002061,
 -0.00009565,0.00000470,-0.00001245,0.00001277,0.00000717,-0.00000337,0
 .00001887,0.00011732,0.00000960,0.00001567,-0.00000930,-0.00001113,0.0
 0011207,-0.00007868,0.00000763,-0.00001044,0.00001530,-0.00000701,-0.0
 0014425,0.00011293,-0.00000197,0.00000172,-0.00002668,-0.00000787,-0.0
 0006406,-0.00001167,0.00002285,0.00003308,0.00000062,-0.00004375,-0.00
 000076,-0.00000554,0.00000713,-0.00000145,-0.00000348,0.00000384,-0.00
 000066,0.00000801,0.00000147,-0.00075445,0.00035437,-0.00021389,0.0003
 1358,-0.00005528,0.00015546,0.00030252,0.00091980,0.00038470,0.2673156
 2,0.13713689,0.54462305,0.00007006,0.00001089,-0.00002077,-0.00000736,
 0.00003213,0.00003980,-0.00006756,-0.00002879,0.00000942,-0.00002088,-
 0.00001544,0.00002200,0.00022953,0.00010025,-0.00061394,0.00000342,0.0
 0005008,0.00039025,-0.00002463,-0.00002184,0.00001928,0.00002189,0.000
 00300,-0.00000554,-0.00000147,0.00000396,-0.00002575,-0.00000939,-0.00
 001821,0.00002865,-0.00000169,0.00001058,0.00001707,0.00000394,0.00001
 524,-0.00006236,0.00000537,0.00000034,0.00000272,0.00005518,0.00002642
 ,0.00001200,-0.00000044,0.00000315,-0.00000208,-0.00006326,-0.00003101
 ,-0.00000764,0.00000920,0.00000634,0.00000511,-0.00003157,-0.00004016,
 0.00004730,0.00000535,0.00003126,-0.00000303,0.00000234,-0.00000443,-0
 .00000240,-0.00000322,-0.00000425,0.00000469,0.00000060,-0.00000076,-0
 .00000234,-0.00002456,0.00001099,0.00000205,0.00000170,0.00003543,-0.0
 0001259,0.00011581,0.00005911,-0.00007651,0.00004265,-0.00000256,-0.00
 000757,-0.00104775,0.00024838,-0.00015477,0.00166977,0.00131088,0.0010
 3382,0.00001431,0.00000099,0.00001445,-0.00000052,0.00000662,0.0000065
 1,-0.00000155,-0.00002374,0.00000225,0.00001256,0.00000594,0.00000455,
 0.00000061,0.00000527,-0.00000364,-0.00001346,-0.00001957,-0.00000214,
 -0.00000146,0.00000081,-0.00000626,-0.00001550,0.00000706,-0.00000482,
 0.00000016,-0.00000033,-0.00000286,0.00001875,-0.00000922,0.00000493,-
 0.00000135,0.00000179,-0.00000255,0.00001799,0.00001538,0.00000610,-0.
 00000233,-0.00000165,-0.00000206,0.00000021,-0.00000324,-0.00000056,0.
 00000408,0.00000003,0.00000134,-0.00000135,0.00000267,-0.00000040,-0.0
 0036748,0.00002628,-0.00005534,0.00009686,-0.00011672,0.00007799,0.000
 08506,0.00063058,0.00016643,-0.03241473,-0.03816585,-0.05016319,0.1404
 5870,0.00023030,0.00002475,0.00003524,-0.00001883,0.00008702,0.0000997
 1,-0.00021218,-0.00012578,0.00000838,-0.00006984,-0.00002785,0.0000415
 2,0.00038486,0.00026972,-0.00118446,-0.00005353,0.00000502,0.00064187,
 -0.00008412,-0.00005237,0.00002922,0.00005937,0.00000238,0.00002051,0.
 00000657,0.00001394,-0.00007018,-0.00004264,-0.00005038,0.00006828,0.0
 0000010,0.00002188,0.00003401,0.00000601,0.00003634,-0.00016338,0.0000
 1506,0.00000939,0.00000259,0.00015778,0.00007352,0.00003312,-0.0000061
 4,0.00000351,-0.00000775,-0.00019046,-0.00008533,-0.00002929,0.0000268
 8,0.00001203,0.00001892,-0.00008151,-0.00010185,0.00011214,0.00001651,
 0.00008153,-0.00000676,0.00000550,-0.00001100,-0.00000477,-0.00000587,
 -0.00001023,0.00001091,0.00000008,-0.00000291,-0.00000757,0.00002577,0
 .00050665,0.00010477,-0.00001927,0.00006124,-0.00000414,0.00008519,-0.
 00119879,-0.00004383,0.00007331,0.00005640,-0.00002182,-0.00008881,0.0
 0184923,-0.00013008,0.00108780,-0.00190386,-0.00007497,0.00019781,-0.0
 0022583,-0.00001811,0.00003149,0.00016372,0.00001458,-0.00011540,-0.00
 009485,-0.00001394,0.00016325,0.00001577,0.00003292,-0.00001096,0.0000
 1074,-0.00001070,-0.00007762,-0.00022254,-0.00002883,-0.00002459,0.000
 01426,-0.00001327,-0.00020521,0.00013495,-0.00002669,0.00001234,-0.000
 01965,-0.00000159,0.00025596,-0.00018044,0.00002885,-0.00001008,0.0000
 4054,-0.00000519,0.00015619,0.00006971,0.00000354,-0.00005333,-0.00000
 346,0.00004527,0.00000039,-0.00000362,-0.00001027,0.00001563,0.0000057
 8,-0.00000091,-0.00000309,-0.00000442,-0.00000430,-0.00025293,-0.00019
 104,-0.00004748,0.00001252,-0.00028111,0.00008522,0.00006527,0.0008699
 4,0.00034350,-0.04486455,-0.01250015,-0.09960849,0.24788737,0.50418932
 ,0.00001476,-0.00000887,-0.00008602,-0.00002281,0.00005254,0.00003641,
 0.00006571,0.00000049,0.00000874,0.00000245,0.00000143,0.00001576,-0.0
 0007097,-0.00007835,-0.00035528,0.00009631,0.00013599,0.00030786,0.000
 01686,-0.00000064,0.00002379,0.00001456,0.00000001,-0.00002990,-0.0000
 0692,-0.00000206,-0.00001134,0.00000885,-0.00000988,0.00001761,-0.0000
 0504,0.00001286,0.00002096,0.00001416,0.00001315,-0.00003758,0.0000013
 8,-0.00000019,0.00000389,0.00002576,0.00001708,0.00000792,0.00000248,0
 .00000538,-0.00000003,-0.00002597,-0.00001729,-0.00000022,0.00000596,0
 .00000757,0.00000057,-0.00002420,-0.00003261,0.00004049,0.00000255,0.0
 0002548,-0.00000321,0.00000267,-0.00000413,-0.00000255,-0.00000309,-0.
 00000353,0.00000347,0.00000098,-0.00000101,-0.00000098,0.00001346,-0.0
 0018673,-0.00000875,0.00000892,0.00002097,-0.00001862,-0.00008949,0.00
 049128,-0.00013097,0.00003449,-0.00001387,-0.00001147,-0.00018916,-0.0
 0134113,-0.00020449,-0.00053355,0.00123375,0.00098869,-0.00007270,0.00
 008138,0.00002341,-0.00000688,-0.00005647,0.00000353,0.00004072,0.0000
 0784,0.00001285,-0.00004834,-0.00000045,-0.00000402,0.00000512,0.00000
 314,-0.00000347,0.00001061,0.00005916,0.00000626,0.00000689,-0.0000034
 6,-0.00000832,0.00005546,-0.00003797,0.00000235,-0.00000393,0.00000691
 ,-0.00000429,-0.00007067,0.00005369,-0.00000007,0.00000138,-0.00001230
 ,-0.00000461,-0.00003531,-0.00000806,0.00001215,0.00001752,0.00000134,
 -0.00002467,0.00000026,-0.00000308,0.00000512,-0.00000097,-0.00000154,
 0.00000195,-0.00000057,0.00000412,0.00000106,-0.00012986,0.00007100,-0
 .00006883,0.00008541,-0.00000969,0.00005061,-0.00004388,0.00040718,0.0
 0015331,-0.04809922,-0.08602620,-0.04630729,0.14039859,0.21602345,0.17
 843365,-0.00011510,0.00000400,0.00006629,0.00003509,-0.00007429,-0.000
 07373,-0.00006717,0.00004673,0.00014120,-0.00001416,-0.00002010,-0.000
 03096,-0.00011696,-0.00018776,0.00055571,-0.00016289,-0.00013160,-0.00
 051716,0.00000659,0.00002345,-0.00004131,-0.00004265,0.00000827,0.0000
 2174,-0.00000145,0.00000922,0.00004225,-0.00000130,0.00003871,-0.00004
 696,0.00001361,-0.00003086,-0.00003853,-0.00002528,-0.00003957,0.00012
 079,-0.00000108,-0.00001339,-0.00000570,-0.00010287,-0.00005699,-0.000
 02992,0.00000310,-0.00001181,0.00000190,0.00011219,0.00006624,0.000014
 92,-0.00001597,-0.00002134,-0.00001086,0.00006676,0.00009894,-0.000096
 81,-0.00001094,-0.00008352,0.00000601,-0.00000756,0.00001205,0.0000042
 4,0.00000600,0.00000911,-0.00000879,0.00000040,0.00000363,0.00000586,0
 .00010256,0.00066711,0.00005826,-0.00003052,-0.00006012,0.00001922,-0.
 00011364,-0.00190095,-0.00006467,-0.00008864,0.00009445,0.00001002,0.0
 0228940,0.00363248,0.00065421,-0.00559735,-0.00264603,-0.00135852,0.00
 022012,-0.00031534,-0.00002092,0.00004239,0.00019943,0.00000768,-0.000
 14965,-0.00004196,-0.00002591,0.00017395,0.00000238,0.00002004,-0.0000
 1784,-0.00000661,0.00000167,-0.00004547,-0.00021880,-0.00002708,-0.000
 02688,0.00001441,0.00000664,-0.00020858,0.00014422,-0.00001903,0.00001
 656,-0.00002522,0.00000595,0.00026446,-0.00019972,0.00001800,-0.000006
 62,0.00004530,0.00000492,0.00012260,0.00003218,-0.00002088,-0.00005470
 ,0.00000072,0.00006155,0.00000055,0.00000657,-0.00000912,0.00000507,0.
 00000678,-0.00000556,0.00000042,-0.00001320,-0.00000298,0.00081124,-0.
 00059783,0.00048865,-0.00042338,0.00004217,-0.00021729,-0.00005908,-0.
 00101419,-0.00045325,-0.10961761,-0.05466076,-0.21582638,-0.10882256,-
 0.20448827,-0.09147070,0.22165475,-0.00047432,-0.00006866,-0.00022535,
 -0.00000575,-0.00010474,-0.00016451,0.00054835,0.00029188,-0.00000172,
 0.00015980,0.00006303,-0.00006524,-0.00096033,-0.00056004,0.00215804,0
 .00023215,0.00014786,-0.00102024,0.00020319,0.00010986,-0.00002604,-0.
 00009984,-0.00000151,-0.00009905,-0.00002468,-0.00003164,0.00013449,0.
 00010540,0.00009020,-0.00011584,-0.00001031,-0.00002527,-0.00003799,0.
 00001053,-0.00005697,0.00028961,-0.00002961,-0.00002148,0.00000196,-0.
 00029460,-0.00012873,-0.00005899,0.00001797,0.00000217,0.00001649,0.00
 036381,0.00015414,0.00006224,-0.00004680,-0.00001279,-0.00003914,0.000
 13323,0.00016327,-0.00017379,-0.00002972,-0.00013137,0.00000958,-0.000
 00748,0.00001667,0.00000623,0.00000783,0.00001621,-0.00001753,0.000001
 15,0.00000461,0.00001400,0.00003456,-0.00132919,-0.00016084,0.00005056
 ,-0.00010113,0.00000344,-0.00057463,0.00305398,0.00020259,-0.00011410,
 -0.00013071,0.00002398,0.00117579,-0.00656900,-0.00015113,-0.00198188,
 0.00244005,-0.00075614,-0.00052210,0.00056856,0.00000666,-0.00006392,-
 0.00041283,-0.00003689,0.00029292,0.00020304,0.00004340,-0.00040311,-0
 .00003617,-0.00006632,0.00002963,-0.00001746,0.00001481,0.00016989,0.0
 0053415,0.00006939,0.00005988,-0.00003365,0.00001795,0.00049465,-0.000
 32635,0.00005826,-0.00003053,0.00004959,-0.00000015,-0.00062044,0.0004
 4330,-0.00006085,0.00002217,-0.00009964,0.00000490,-0.00036066,-0.0001
 5001,0.00000739,0.00012968,0.00000755,-0.00012099,-0.00000090,0.000003
 04,0.00002588,-0.00003252,-0.00001425,0.00000463,0.00000571,0.00001483
 ,0.00000957,0.00052641,0.00064235,-0.00003341,0.00001983,0.00060913,-0
 .00009212,-0.00019107,-0.00186534,-0.00104366,-0.04752607,-0.09873594,
 -0.04058818,-0.21204146,-0.49133184,-0.13087769,0.26165168,0.59266723,
 -0.00014691,0.00000351,0.00014023,0.00005449,-0.00014337,-0.00012124,-
 0.00006130,0.00007489,0.00006232,0.00000964,-0.00000140,-0.00004824,-0
 .00013295,-0.00005328,0.00118649,-0.00018734,-0.00029223,-0.00093239,-
 0.00000064,0.00002797,-0.00006320,-0.00005670,0.00000048,0.00004378,0.
 00000791,0.00000457,0.00005440,0.00000266,0.00004614,-0.00006445,0.000
 01152,-0.00003568,-0.00005576,-0.00003688,-0.00004791,0.00015772,-0.00
 000752,-0.00001028,-0.00000755,-0.00013029,-0.00007297,-0.00003374,0.0
 0000011,-0.00001280,0.00000426,0.00014771,0.00008067,0.00001383,-0.000
 02417,-0.00002334,-0.00000923,0.00008955,0.00011998,-0.00013690,-0.000
 01220,-0.00009517,0.00000995,-0.00000883,0.00001358,0.00000699,0.00000
 827,0.00001204,-0.00001174,-0.00000153,0.00000432,0.00000564,0.0001013
 6,0.00046404,0.00010493,-0.00003266,-0.00008350,0.00006956,-0.00022861
 ,-0.00150074,0.00061866,-0.00012035,0.00007057,0.00001512,0.00182708,0
 .00286671,0.00061058,0.00007725,-0.00380568,-0.00476738,0.00016336,-0.
 00024307,-0.00012867,0.00003674,0.00014868,-0.00001986,-0.00010836,-0.
 00001333,-0.00003017,0.00011769,-0.00000661,0.00001797,-0.00001534,-0.
 00001140,0.00000575,-0.00001713,-0.00014199,-0.00000919,-0.00001693,0.
 00001084,0.00001884,-0.00013385,0.00009254,-0.00000713,0.00001190,-0.0
 0001830,0.00001225,0.00017081,-0.00013404,-0.00000207,-0.00000121,0.00
 003177,0.00001238,0.00007423,0.00001196,-0.00003277,-0.00004047,-0.000
 00224,0.00005928,0.00000025,0.00000845,-0.00001100,0.00000061,0.000003
 75,-0.00000532,0.00000139,-0.00001048,-0.00000184,0.00098788,-0.000347
 92,0.00021394,-0.00043955,0.00010140,-0.00022554,-0.00023001,-0.001467
 75,-0.00073909,-0.21871990,-0.05217201,-0.50043647,-0.09107617,-0.1162
 9975,-0.13285542,0.30808532,0.17284833,0.63731156\\-0.00000010,-0.0000
 0042,0.00000096,-0.00000059,-0.00000051,0.00000170,0.00000002,-0.00000
 116,0.00000087,0.00000107,-0.00000198,0.00000093,-0.00000094,-0.000000
 83,0.00000169,-0.00000035,-0.00000167,0.00000155,-0.00000001,-0.000001
 00,0.00000148,-0.00000055,-0.00000032,0.00000153,0.00000047,-0.0000020
 5,0.00000109,-0.00000033,-0.00000068,0.00000150,-0.00000077,0.00000038
 ,0.00000151,0.00000053,-0.00000225,0.00000105,0.00000022,-0.00000266,0
 .00000099,0.00000006,-0.00000164,0.00000130,-0.00000059,-0.00000020,0.
 00000156,0.00000023,-0.00000207,0.00000122,0.,-0.00000146,0.00000140,0
 .00000106,-0.00000323,0.00000088,0.00000158,-0.00000322,0.00000001,0.0
 0000156,-0.00000289,-0.00000059,0.00000184,-0.00000405,0.,0.00000142,-
 0.00000287,0.,-0.00000107,0.00000158,-0.00000130,-0.00000187,0.,-0.000
 00026,-0.00000024,0.00000280,0.00000019,-0.00000091,0.00000125,0.00000
 069,-0.00000001,-0.00000112,0.00000156,-0.00000066,0.00000140,0.000002
 15,0.00000009,0.00000101,-0.00000147,0.00000081,0.00000109,-0.00000219
 ,0.00000010,0.00000154,-0.00000116,0.00000073,0.00000147,-0.00000315,0
 .00000056,0.00000107,-0.00000229,0.00000040,0.00000163,-0.00000213,0.0
 0000006,0.00000098,-0.00000055,0.00000074,0.00000170,-0.00000309,0.000
 00113,0.00000168,-0.00000385,0.00000097,0.00000208,-0.00000362,0.00000
 118,0.00000208,-0.00000445,0.00000021,0.00000198,-0.00000224,-0.000000
 15,0.00000293,-0.00000244,-0.00000059,0.00000340,-0.00000195,-0.000000
 28,0.00000301,-0.00000220,0.00000003,0.00000324,-0.00000328,0.00000030
 ,-0.00000031,0.00000190,0.00000102,-0.00000043,-0.00000006,-0.00000388
 ,0.00000364,0.00000109,-0.00000213,-0.00000112,0.00000221,-0.00000084,
 0.00000148,0.00000600,-0.00000154,-0.00000331,0.00000327\\\@


 THE MOST INCOMPREHENSIBLE THING ABOUT THE WORLD
 IS THAT IT IS COMPREHENSIBLE. -- A. EINSTEIN
 Job cpu time:       0 days  2 hours 16 minutes 50.6 seconds.
 Elapsed time:       0 days  2 hours 17 minutes  0.7 seconds.
 File lengths (MBytes):  RWF=   3768 Int=      0 D2E=      0 Chk=     62 Scr=      1
 Normal termination of Gaussian 16 at Tue Nov  5 20:14:49 2024.
