 Entering Gaussian System, Link 0=g16
 Initial command:
 /sw/cluster/pub/apps//g16/l1.exe "/data/natrosa/25422/Gau-1558207.inp" -scrdir="/data/natrosa/25422/"
 Entering Link 1 = /sw/cluster/pub/apps//g16/l1.exe PID=   1558208.
  
 Copyright (c) 1988,1990,1992,1993,1995,1998,2003,2009,2016,
            Gaussian, Inc.  All Rights Reserved.
  
 This is part of the Gaussian(R) 16 program.  It is based on
 the Gaussian(R) 09 system (copyright 2009, Gaussian, Inc.),
 the Gaussian(R) 03 system (copyright 2003, Gaussian, Inc.),
 the Gaussian(R) 98 system (copyright 1998, Gaussian, Inc.),
 the Gaussian(R) 94 system (copyright 1995, Gaussian, Inc.),
 the Gaussian 92(TM) system (copyright 1992, Gaussian, Inc.),
 the Gaussian 90(TM) system (copyright 1990, Gaussian, Inc.),
 the Gaussian 88(TM) system (copyright 1988, Gaussian, Inc.),
 the Gaussian 86(TM) system (copyright 1986, Carnegie Mellon
 University), and the Gaussian 82(TM) system (copyright 1983,
 Carnegie Mellon University). Gaussian is a federally registered
 trademark of Gaussian, Inc.
  
 This software contains proprietary and confidential information,
 including trade secrets, belonging to Gaussian, Inc.
  
 This software is provided under written license and may be
 used, copied, transmitted, or stored only in accord with that
 written license.
  
 The following legend is applicable only to US Government
 contracts under FAR:
  
                    RESTRICTED RIGHTS LEGEND
  
 Use, reproduction and disclosure by the US Government is
 subject to restrictions as set forth in subparagraphs (a)
 and (c) of the Commercial Computer Software - Restricted
 Rights clause in FAR 52.227-19.
  
 Gaussian, Inc.
 340 Quinnipiac St., Bldg. 40, Wallingford CT 06492
  
  
 ---------------------------------------------------------------
 Warning -- This program may not be used in any manner that
 competes with the business of Gaussian, Inc. or will provide
 assistance to any competitor of Gaussian, Inc.  The licensee
 of this program is prohibited from giving any competitor of
 Gaussian, Inc. access to this program.  By using this program,
 the user acknowledges that Gaussian, Inc. is engaged in the
 business of creating and licensing software in the field of
 computational chemistry and represents and warrants to the
 licensee that it is not a competitor of Gaussian, Inc. and that
 it will not use this program in any manner prohibited above.
 ---------------------------------------------------------------
  

 Cite this work as:
 Gaussian 16, Revision A.03,
 M. J. Frisch, G. W. Trucks, H. B. Schlegel, G. E. Scuseria, 
 M. A. Robb, J. R. Cheeseman, G. Scalmani, V. Barone, 
 G. A. Petersson, H. Nakatsuji, X. Li, M. Caricato, A. V. Marenich, 
 J. Bloino, B. G. Janesko, R. Gomperts, B. Mennucci, H. P. Hratchian, 
 J. V. Ortiz, A. F. Izmaylov, J. L. Sonnenberg, D. Williams-Young, 
 F. Ding, F. Lipparini, F. Egidi, J. Goings, B. Peng, A. Petrone, 
 T. Henderson, D. Ranasinghe, V. G. Zakrzewski, J. Gao, N. Rega, 
 G. Zheng, W. Liang, M. Hada, M. Ehara, K. Toyota, R. Fukuda, 
 J. Hasegawa, M. Ishida, T. Nakajima, Y. Honda, O. Kitao, H. Nakai, 
 T. Vreven, K. Throssell, J. A. Montgomery, Jr., J. E. Peralta, 
 F. Ogliaro, M. J. Bearpark, J. J. Heyd, E. N. Brothers, K. N. Kudin, 
 V. N. Staroverov, T. A. Keith, R. Kobayashi, J. Normand, 
 K. Raghavachari, A. P. Rendell, J. C. Burant, S. S. Iyengar, 
 J. Tomasi, M. Cossi, J. M. Millam, M. Klene, C. Adamo, R. Cammi, 
 J. W. Ochterski, R. L. Martin, K. Morokuma, O. Farkas, 
 J. B. Foresman, and D. J. Fox, Gaussian, Inc., Wallingford CT, 2016.
 
 ******************************************
 Gaussian 16:  ES64L-G16RevA.03 25-Dec-2016
                 7-Nov-2024 
 ******************************************
 %oldchk=/home/natrosa/MOSSRI/REACAO-2/B3LYP-6-31G-D/CURCUMIN-OPT-FREQ-Prod-B3LYP
 -6-311G-D-298.chk
 %chk=CURCUMIN-Prod-2-B3LYP-6-311G-D-298-NBO.chk
 Copying data from "/home/natrosa/MOSSRI/REACAO-2/B3LYP-6-31G-D/CURCUMIN-OPT-FREQ-Prod-B3LYP-6-311G-D-298.chk" to current chk file "CURCUMIN-Prod-2-B3LYP-6-311G-D-298-NBO.chk"
 IOpt=  2 FromEx=T IUOpen= 4 IOptOp= 5 NList=   0 IFRang= 0 IUIn= 4 IUOut= 2.
 ----------------------------------------------------------------------
 # pop=nbo b3lyp/6-311g(d) scrf=(smd,solvent=generic,read) temperature=
 298.15 Geom=Check Guess=Read
 ----------------------------------------------------------------------
 1/29=2,38=1,40=2,112=298150,172=1/1;
 2/12=2,40=1/2;
 3/5=4,6=6,7=1,11=2,14=-4,25=1,30=1,70=32203,72=-2,74=-5,116=-2/1,2,3;
 4/5=1/1;
 5/5=2,38=6/2;
 6/7=2,8=2,9=2,10=2,28=1,40=1/1,7;
 99/5=1,9=1/99;
 ----------
 Reagente 1
 ----------
 Structure from the checkpoint file:  "CURCUMIN-Prod-2-B3LYP-6-311G-D-298-NBO.chk"
 Charge =  0 Multiplicity = 2
 Redundant internal coordinates found in file.  (old form).
 C,0,-2.6489202243,0.1469092182,-0.2893021511
 H,0,-2.3566389851,0.7286647733,-1.1596396213
 C,0,-1.7855770743,0.0337008975,0.7431623244
 H,0,-2.0444705976,-0.5495083558,1.622046031
 C,0,-0.4320295273,0.6057678666,0.8285202895
 O,0,0.280396269,0.3474381318,1.807251588
 C,0,-3.9756506123,-0.4432167938,-0.3950099395
 C,0,-4.7291345682,-0.2061866579,-1.5561162298
 C,0,-4.548199323,-1.252372153,0.6071145533
 C,0,-6.0015529993,-0.7410804141,-1.7073328153
 H,0,-4.3137870701,0.4101872619,-2.3467031656
 C,0,-5.8156063219,-1.7911680437,0.4712716211
 H,0,-4.0154226816,-1.4678893788,1.5263221801
 C,0,-6.5607949343,-1.5293211366,-0.701101576
 H,0,-6.5760313005,-0.5390783582,-2.6071532066
 O,0,-7.8082608132,-2.0545174385,-0.7843867575
 H,0,-8.2153393009,-1.800373022,-1.6247626618
 O,0,-6.3492197127,-2.5132027099,1.5049486804
 C,0,-6.5341540751,-3.9160825701,1.2576081645
 H,0,-5.5819331391,-4.3907184265,0.9991721012
 H,0,-6.906496062,-4.3393845702,2.1900173572
 H,0,-7.2618605459,-4.0904893537,0.463130644
 C,0,2.7520429465,0.0804080632,-0.0208205157
 H,0,1.8538075582,-0.5272778942,-0.0127702637
 C,0,2.6197254635,1.4217157218,-0.1477305097
 H,0,3.4864478634,2.0737700062,-0.1956979742
 C,0,1.3643273516,2.12253159,-0.3423462398
 O,0,1.3886832141,3.3300096187,-0.6617463238
 C,0,3.9843360091,-0.6756520298,0.0961020902
 C,0,3.9058281599,-2.0748657754,0.2038777781
 C,0,5.265106831,-0.084561662,0.1002484081
 C,0,5.0504306715,-2.8498244746,0.3225283882
 H,0,2.9339271261,-2.5569279172,0.2018655426
 C,0,6.4147425292,-0.8437630703,0.2196832934
 H,0,5.3883631775,0.9894217885,0.023104005
 C,0,6.3105957214,-2.2493936154,0.3381296808
 H,0,4.972663621,-3.9294669429,0.4164530862
 O,0,7.4590039262,-2.9536354743,0.4771457792
 H,0,7.2588395485,-3.8974651484,0.5545766804
 O,0,7.6284977843,-0.2149941216,0.2873747237
 C,0,8.4976797521,-0.4114169546,-0.839790991
 H,0,8.0151330444,-0.0722246797,-1.7620809035
 H,0,9.379957808,0.1986455934,-0.6489825521
 H,0,8.7937137688,-1.4571116096,-0.9400488791
 C,0,0.0348676396,1.4951103888,-0.2346668753
 H,0,-0.6942332095,1.9015001733,-0.9258519326
 H,0,0.0652124754,4.2997299645,-1.0577539265
 O,0,-0.6960179467,4.8778183828,-1.3348800109
 O,0,-2.1569816389,6.0505039641,-0.3205940668
 N,0,-1.2321025968,5.3361593483,-0.1431149015
 Recover connectivity data from disk.
                           ----------------------------
                           !    Current Parameters    !
                           ! (Angstroms and Degrees)  !
 --------------------------                            --------------------------
 ! Name  Definition              Value                                          !
 --------------------------------------------------------------------------------
 ! R1    R(1,2)                  1.0869                                         !
 ! R2    R(1,3)                  1.3506                                         !
 ! R3    R(1,7)                  1.4559                                         !
 ! R4    R(3,4)                  1.0861                                         !
 ! R5    R(3,5)                  1.472                                          !
 ! R6    R(5,6)                  1.2378                                         !
 ! R7    R(5,45)                 1.4626                                         !
 ! R8    R(7,8)                  1.4043                                         !
 ! R9    R(7,9)                  1.4095                                         !
 ! R10   R(8,10)                 1.3885                                         !
 ! R11   R(8,11)                 1.0851                                         !
 ! R12   R(9,12)                 1.3839                                         !
 ! R13   R(9,13)                 1.0841                                         !
 ! R14   R(10,14)                1.3952                                         !
 ! R15   R(10,15)                1.0865                                         !
 ! R16   R(12,14)                1.4136                                         !
 ! R17   R(12,18)                1.3691                                         !
 ! R18   R(14,16)                1.3561                                         !
 ! R19   R(16,17)                0.9677                                         !
 ! R20   R(18,19)                1.4365                                         !
 ! R21   R(19,20)                1.0949                                         !
 ! R22   R(19,21)                1.0896                                         !
 ! R23   R(19,22)                1.0914                                         !
 ! R24   R(23,24)                1.0845                                         !
 ! R25   R(23,25)                1.3538                                         !
 ! R26   R(23,29)                1.4505                                         !
 ! R27   R(25,26)                1.0857                                         !
 ! R28   R(25,27)                1.4509                                         !
 ! R29   R(27,28)                1.2492                                         !
 ! R30   R(27,45)                1.474                                          !
 ! R31   R(29,30)                1.4056                                         !
 ! R32   R(29,31)                1.4106                                         !
 ! R33   R(30,32)                1.3874                                         !
 ! R34   R(30,33)                1.0849                                         !
 ! R35   R(31,34)                1.3829                                         !
 ! R36   R(31,35)                1.0838                                         !
 ! R37   R(32,36)                1.396                                          !
 ! R38   R(32,37)                1.0865                                         !
 ! R39   R(34,36)                1.4145                                         !
 ! R40   R(34,40)                1.3686                                         !
 ! R41   R(36,38)                1.3543                                         !
 ! R42   R(38,39)                0.9679                                         !
 ! R43   R(40,41)                1.4369                                         !
 ! R44   R(41,42)                1.0948                                         !
 ! R45   R(41,43)                1.0895                                         !
 ! R46   R(41,44)                1.0914                                         !
 ! R47   R(45,46)                1.0837                                         !
 ! R48   R(45,47)                2.9231                                         !
 ! R49   R(46,47)                2.5191                                         !
 ! R50   R(47,48)                0.9952                                         !
 ! R51   R(48,50)                1.3848                                         !
 ! R52   R(49,50)                1.182                                          !
 ! A1    A(2,1,3)              119.0187                                         !
 ! A2    A(2,1,7)              113.8201                                         !
 ! A3    A(3,1,7)              127.1597                                         !
 ! A4    A(1,3,4)              120.7461                                         !
 ! A5    A(1,3,5)              126.8382                                         !
 ! A6    A(4,3,5)              112.3935                                         !
 ! A7    A(3,5,6)              119.6035                                         !
 ! A8    A(3,5,45)             119.1895                                         !
 ! A9    A(6,5,45)             121.1931                                         !
 ! A10   A(1,7,8)              118.7223                                         !
 ! A11   A(1,7,9)              123.451                                          !
 ! A12   A(8,7,9)              117.8256                                         !
 ! A13   A(7,8,10)             121.1115                                         !
 ! A14   A(7,8,11)             119.5315                                         !
 ! A15   A(10,8,11)            119.356                                          !
 ! A16   A(7,9,12)             121.7173                                         !
 ! A17   A(7,9,13)             121.1531                                         !
 ! A18   A(12,9,13)            117.1246                                         !
 ! A19   A(8,10,14)            120.4249                                         !
 ! A20   A(8,10,15)            120.2048                                         !
 ! A21   A(14,10,15)           119.3662                                         !
 ! A22   A(9,12,14)            119.4773                                         !
 ! A23   A(9,12,18)            119.2195                                         !
 ! A24   A(14,12,18)           121.2227                                         !
 ! A25   A(10,14,12)           119.4379                                         !
 ! A26   A(10,14,16)           122.9047                                         !
 ! A27   A(12,14,16)           117.6536                                         !
 ! A28   A(14,16,17)           109.7904                                         !
 ! A29   A(12,18,19)           115.7985                                         !
 ! A30   A(18,19,20)           110.612                                          !
 ! A31   A(18,19,21)           106.0251                                         !
 ! A32   A(18,19,22)           111.5458                                         !
 ! A33   A(20,19,21)           109.3156                                         !
 ! A34   A(20,19,22)           109.8027                                         !
 ! A35   A(21,19,22)           109.4508                                         !
 ! A36   A(24,23,25)           118.3536                                         !
 ! A37   A(24,23,29)           114.2668                                         !
 ! A38   A(25,23,29)           127.3763                                         !
 ! A39   A(23,25,26)           121.4115                                         !
 ! A40   A(23,25,27)           125.1504                                         !
 ! A41   A(26,25,27)           113.2494                                         !
 ! A42   A(25,27,28)           118.967                                          !
 ! A43   A(25,27,45)           124.403                                          !
 ! A44   A(28,27,45)           116.5953                                         !
 ! A45   A(23,29,30)           118.5308                                         !
 ! A46   A(23,29,31)           123.5873                                         !
 ! A47   A(30,29,31)           117.8809                                         !
 ! A48   A(29,30,32)           121.1007                                         !
 ! A49   A(29,30,33)           119.4876                                         !
 ! A50   A(32,30,33)           119.4101                                         !
 ! A51   A(29,31,34)           121.6703                                         !
 ! A52   A(29,31,35)           121.2182                                         !
 ! A53   A(34,31,35)           117.1063                                         !
 ! A54   A(30,32,36)           120.3616                                         !
 ! A55   A(30,32,37)           120.2252                                         !
 ! A56   A(36,32,37)           119.409                                          !
 ! A57   A(31,34,36)           119.446                                          !
 ! A58   A(31,34,40)           119.2959                                         !
 ! A59   A(36,34,40)           121.1787                                         !
 ! A60   A(32,36,34)           119.5354                                         !
 ! A61   A(32,36,38)           122.8852                                         !
 ! A62   A(34,36,38)           117.5758                                         !
 ! A63   A(36,38,39)           109.8716                                         !
 ! A64   A(34,40,41)           115.7767                                         !
 ! A65   A(40,41,42)           110.6027                                         !
 ! A66   A(40,41,43)           106.0175                                         !
 ! A67   A(40,41,44)           111.538                                          !
 ! A68   A(42,41,43)           109.3292                                         !
 ! A69   A(42,41,44)           109.8172                                         !
 ! A70   A(43,41,44)           109.4469                                         !
 ! A71   A(5,45,27)            126.8577                                         !
 ! A72   A(5,45,46)            118.4802                                         !
 ! A73   A(5,45,47)            142.3168                                         !
 ! A74   A(27,45,46)           113.6146                                         !
 ! A75   A(27,45,47)            64.0019                                         !
 ! A76   A(45,47,48)           128.8879                                         !
 ! A77   A(46,47,48)           109.6934                                         !
 ! A78   A(47,48,50)           104.4013                                         !
 ! A79   A(48,50,49)           111.944                                          !
 ! D1    D(2,1,3,4)           -179.3439                                         !
 ! D2    D(2,1,3,5)             -1.1918                                         !
 ! D3    D(7,1,3,4)              0.1973                                         !
 ! D4    D(7,1,3,5)            178.3495                                         !
 ! D5    D(2,1,7,8)             -0.5928                                         !
 ! D6    D(2,1,7,9)            179.0093                                         !
 ! D7    D(3,1,7,8)            179.8457                                         !
 ! D8    D(3,1,7,9)             -0.5522                                         !
 ! D9    D(1,3,5,6)           -175.4351                                         !
 ! D10   D(1,3,5,45)             5.905                                          !
 ! D11   D(4,3,5,6)              2.8473                                         !
 ! D12   D(4,3,5,45)          -175.8126                                         !
 ! D13   D(3,5,45,27)         -177.8679                                         !
 ! D14   D(3,5,45,46)           14.6364                                         !
 ! D15   D(3,5,45,47)           87.8681                                         !
 ! D16   D(6,5,45,27)            3.4942                                         !
 ! D17   D(6,5,45,46)         -164.0015                                         !
 ! D18   D(6,5,45,47)          -90.7697                                         !
 ! D19   D(1,7,8,10)          -179.7967                                         !
 ! D20   D(1,7,8,11)            -0.178                                          !
 ! D21   D(9,7,8,10)             0.5786                                         !
 ! D22   D(9,7,8,11)          -179.8026                                         !
 ! D23   D(1,7,9,12)           179.7434                                         !
 ! D24   D(1,7,9,13)             0.5768                                         !
 ! D25   D(8,7,9,12)            -0.6511                                         !
 ! D26   D(8,7,9,13)          -179.8177                                         !
 ! D27   D(7,8,10,14)            0.0472                                         !
 ! D28   D(7,8,10,15)          179.3143                                         !
 ! D29   D(11,8,10,14)        -179.5723                                         !
 ! D30   D(11,8,10,15)          -0.3051                                         !
 ! D31   D(7,9,12,14)            0.0964                                         !
 ! D32   D(7,9,12,18)         -176.6822                                         !
 ! D33   D(13,9,12,14)         179.2951                                         !
 ! D34   D(13,9,12,18)           2.5165                                         !
 ! D35   D(8,10,14,12)          -0.6169                                         !
 ! D36   D(8,10,14,16)         178.6549                                         !
 ! D37   D(15,10,14,12)       -179.8901                                         !
 ! D38   D(15,10,14,16)         -0.6183                                         !
 ! D39   D(9,12,14,10)           0.5442                                         !
 ! D40   D(9,12,14,16)        -178.7656                                         !
 ! D41   D(18,12,14,10)        177.2565                                         !
 ! D42   D(18,12,14,16)         -2.0533                                         !
 ! D43   D(9,12,18,19)        -112.6498                                         !
 ! D44   D(14,12,18,19)         70.6296                                         !
 ! D45   D(10,14,16,17)          0.2699                                         !
 ! D46   D(12,14,16,17)        179.554                                          !
 ! D47   D(12,18,19,20)         58.3843                                         !
 ! D48   D(12,18,19,21)        176.7898                                         !
 ! D49   D(12,18,19,22)        -64.1393                                         !
 ! D50   D(24,23,25,26)       -177.8886                                         !
 ! D51   D(24,23,25,27)         -3.2248                                         !
 ! D52   D(29,23,25,26)          1.4015                                         !
 ! D53   D(29,23,25,27)        176.0653                                         !
 ! D54   D(24,23,29,30)          0.0592                                         !
 ! D55   D(24,23,29,31)        179.6823                                         !
 ! D56   D(25,23,29,30)       -179.2555                                         !
 ! D57   D(25,23,29,31)          0.3676                                         !
 ! D58   D(23,25,27,28)       -168.461                                          !
 ! D59   D(23,25,27,45)          9.3204                                         !
 ! D60   D(26,25,27,28)          6.5833                                         !
 ! D61   D(26,25,27,45)       -175.6353                                         !
 ! D62   D(25,27,45,5)          46.5627                                         !
 ! D63   D(25,27,45,46)       -145.4252                                         !
 ! D64   D(25,27,45,47)       -176.1432                                         !
 ! D65   D(28,27,45,5)        -135.6081                                         !
 ! D66   D(28,27,45,46)         32.4041                                         !
 ! D67   D(28,27,45,47)          1.6861                                         !
 ! D68   D(23,29,30,32)       -179.7954                                         !
 ! D69   D(23,29,30,33)         -0.2632                                         !
 ! D70   D(31,29,30,32)          0.5599                                         !
 ! D71   D(31,29,30,33)       -179.908                                          !
 ! D72   D(23,29,31,34)        179.7207                                         !
 ! D73   D(23,29,31,35)          0.5638                                         !
 ! D74   D(30,29,31,34)         -0.654                                          !
 ! D75   D(30,29,31,35)       -179.8108                                         !
 ! D76   D(29,30,32,36)          0.0467                                         !
 ! D77   D(29,30,32,37)        179.2941                                         !
 ! D78   D(33,30,32,36)       -179.4858                                         !
 ! D79   D(33,30,32,37)         -0.2384                                         !
 ! D80   D(29,31,34,36)          0.1394                                         !
 ! D81   D(29,31,34,40)       -176.6586                                         !
 ! D82   D(35,31,34,36)        179.3294                                         !
 ! D83   D(35,31,34,40)          2.5314                                         !
 ! D84   D(30,32,36,34)         -0.5763                                         !
 ! D85   D(30,32,36,38)        178.7072                                         !
 ! D86   D(37,32,36,34)       -179.8298                                         !
 ! D87   D(37,32,36,38)         -0.5463                                         !
 ! D88   D(31,34,36,32)          0.4829                                         !
 ! D89   D(31,34,36,38)       -178.8383                                         !
 ! D90   D(40,34,36,32)        177.2189                                         !
 ! D91   D(40,34,36,38)         -2.1024                                         !
 ! D92   D(31,34,40,41)       -112.2534                                         !
 ! D93   D(36,34,40,41)         71.0058                                         !
 ! D94   D(32,36,38,39)          0.2941                                         !
 ! D95   D(34,36,38,39)        179.5908                                         !
 ! D96   D(34,40,41,42)         58.274                                          !
 ! D97   D(34,40,41,43)        176.6864                                         !
 ! D98   D(34,40,41,44)        -64.2562                                         !
 ! D99   D(5,45,47,48)         -67.067                                          !
 ! D100  D(27,45,47,48)        175.5242                                         !
 ! D101  D(45,47,48,50)         83.5322                                         !
 ! D102  D(46,47,48,50)         94.3719                                         !
 ! D103  D(47,48,50,49)        179.748                                          !
 --------------------------------------------------------------------------------
                          Input orientation:                          
 ---------------------------------------------------------------------
 Center     Atomic      Atomic             Coordinates (Angstroms)
 Number     Number       Type             X           Y           Z
 ---------------------------------------------------------------------
      1          6           0       -2.648920    0.146909   -0.289302
      2          1           0       -2.356639    0.728665   -1.159640
      3          6           0       -1.785577    0.033701    0.743162
      4          1           0       -2.044471   -0.549508    1.622046
      5          6           0       -0.432030    0.605768    0.828520
      6          8           0        0.280396    0.347438    1.807252
      7          6           0       -3.975651   -0.443217   -0.395010
      8          6           0       -4.729135   -0.206187   -1.556116
      9          6           0       -4.548199   -1.252372    0.607115
     10          6           0       -6.001553   -0.741080   -1.707333
     11          1           0       -4.313787    0.410187   -2.346703
     12          6           0       -5.815606   -1.791168    0.471272
     13          1           0       -4.015423   -1.467889    1.526322
     14          6           0       -6.560795   -1.529321   -0.701102
     15          1           0       -6.576031   -0.539078   -2.607153
     16          8           0       -7.808261   -2.054517   -0.784387
     17          1           0       -8.215339   -1.800373   -1.624763
     18          8           0       -6.349220   -2.513203    1.504949
     19          6           0       -6.534154   -3.916083    1.257608
     20          1           0       -5.581933   -4.390718    0.999172
     21          1           0       -6.906496   -4.339385    2.190017
     22          1           0       -7.261861   -4.090489    0.463131
     23          6           0        2.752043    0.080408   -0.020821
     24          1           0        1.853808   -0.527278   -0.012770
     25          6           0        2.619725    1.421716   -0.147731
     26          1           0        3.486448    2.073770   -0.195698
     27          6           0        1.364327    2.122532   -0.342346
     28          8           0        1.388683    3.330010   -0.661746
     29          6           0        3.984336   -0.675652    0.096102
     30          6           0        3.905828   -2.074866    0.203878
     31          6           0        5.265107   -0.084562    0.100248
     32          6           0        5.050431   -2.849824    0.322528
     33          1           0        2.933927   -2.556928    0.201866
     34          6           0        6.414743   -0.843763    0.219683
     35          1           0        5.388363    0.989422    0.023104
     36          6           0        6.310596   -2.249394    0.338130
     37          1           0        4.972664   -3.929467    0.416453
     38          8           0        7.459004   -2.953635    0.477146
     39          1           0        7.258840   -3.897465    0.554577
     40          8           0        7.628498   -0.214994    0.287375
     41          6           0        8.497680   -0.411417   -0.839791
     42          1           0        8.015133   -0.072225   -1.762081
     43          1           0        9.379958    0.198646   -0.648983
     44          1           0        8.793714   -1.457112   -0.940049
     45          6           0        0.034868    1.495110   -0.234667
     46          1           0       -0.694233    1.901500   -0.925852
     47          1           0        0.065212    4.299730   -1.057754
     48          8           0       -0.696018    4.877818   -1.334880
     49          8           0       -2.156982    6.050504   -0.320594
     50          7           0       -1.232103    5.336159   -0.143115
 ---------------------------------------------------------------------
                    Distance matrix (angstroms):
                    1          2          3          4          5
     1  C    0.000000
     2  H    1.086902   0.000000
     3  C    1.350615   2.104695   0.000000
     4  H    2.122171   3.077166   1.086092   0.000000
     5  C    2.524813   2.769838   1.471950   2.136425   0.000000
     6  O    3.607859   3.987698   2.344987   2.498764   1.237821
     7  C    1.455897   2.139898   2.513824   2.794507   3.892897
     8  C    2.461054   2.580674   3.742828   4.174447   4.981051
     9  C    2.523651   3.442218   3.050340   2.791552   4.521566
    10  C    3.746930   3.968062   4.937577   5.174936   6.266111
    11  H    2.659698   2.311055   4.010094   4.671379   5.018798
    12  C    3.789791   4.579725   4.432291   4.133699   5.903882
    13  H    2.787722   3.845881   2.800058   2.176520   4.198534
    14  C    4.275756   4.794130   5.227967   5.172449   6.667842
    15  H    4.611422   4.637428   5.873767   6.198490   7.131850
    16  O    5.631180   6.132463   6.554905   6.424737   8.005459
    17  H    6.046518   6.398183   7.093147   7.084211   8.508115
    18  O    4.897729   5.792274   5.281465   4.732935   6.722996
    19  C    5.830598   6.698388   6.197937   5.623513   7.607048
    20  H    5.554529   6.424257   5.835525   5.258946   7.177430
    21  H    6.663393   7.589896   6.887748   6.190722   8.259959
    22  H    6.308797   7.065326   6.861271   6.411146   8.296682
    23  C    5.408041   5.274066   4.601722   5.109046   3.337020
    24  H    4.561311   4.540987   3.759156   4.227256   2.686376
    25  C    5.422527   5.125279   4.703931   5.364006   3.306364
    26  H    6.431508   6.072903   5.730409   6.385675   4.307960
    27  C    4.473483   4.056652   3.932358   4.755895   2.626480
    28  O    5.154909   4.587192   4.786998   5.661529   3.599636
    29  C    6.695165   6.614904   5.849253   6.220203   4.656475
    30  C    6.938605   6.995531   6.093355   6.304282   5.137410
    31  C    7.926989   7.767861   7.080923   7.480773   5.784833
    32  C    8.284609   8.358653   7.431195   7.570854   6.500347
    33  H    6.222553   6.374865   5.410922   5.552575   4.661009
    34  C    9.131839   9.017327   8.263729   8.579714   7.024963
    35  H    8.087357   7.839128   7.273053   7.757057   5.888366
    36  C    9.295637   9.286178   8.421674   8.622365   7.338626
    37  H    8.671994   8.826151   7.841381   7.881481   7.067451
    38  O   10.600517  10.610620   9.718910   9.869481   8.663788
    39  H   10.734654  10.807268   9.863625   9.944842   8.916480
    40  O   10.299944  10.133474   9.428383   9.770341   8.120258
    41  C   11.174142  10.918714  10.413897  10.826664   9.140987
    42  H   10.767503  10.420077  10.116392  10.624300   8.861458
    43  H   12.034366  11.759651  11.253197  11.671969   9.930955
    44  H   11.572823  11.364691  10.815596  11.173823   9.617570
    45  C    3.003889   2.676251   2.530985   3.457094   1.462631
    46  H    2.702700   2.047875   2.732273   3.784490   2.196701
    47  H    5.020254   4.316046   4.986755   5.928508   4.177396
    48  O    5.223846   4.472566   5.382460   6.325947   4.795874
    49  O    5.924138   5.391274   6.121392   6.880892   5.825897
    50  N    5.381176   4.850455   5.404432   6.198130   4.894977
                    6          7          8          9         10
     6  O    0.000000
     7  C    4.856854   0.000000
     8  C    6.059220   1.404311   0.000000
     9  C    5.226381   1.409538   2.409732   0.000000
    10  C    7.280114   2.432117   1.388534   2.780346   0.000000
    11  H    6.194013   2.156790   1.085107   3.397660   2.140739
    12  C    6.596948   2.439847   2.793365   1.383862   2.425609
    13  H    4.672087   2.177855   3.406274   1.084085   3.863870
    14  C    7.524358   2.820689   2.415929   2.416334   1.395198
    15  H    8.202651   3.415369   2.150935   3.866834   1.086511
    16  O    8.826797   4.175740   3.673270   3.634242   2.416845
    17  H    9.411128   4.618347   3.834027   4.327759   2.455559
    18  O    7.226788   3.678113   4.161384   2.374758   3.685111
    19  C    8.057159   4.619295   4.993843   3.385633   4.376663
    20  H    7.580899   4.484045   4.976652   3.327391   4.563015
    21  H    8.588611   5.518364   5.988134   4.194853   5.381083
    22  H    8.853672   4.983792   5.057654   3.929325   4.185430
    23  C    3.085805   6.758407   7.642466   7.447425   8.952352
    24  H    2.559928   5.842581   6.769058   6.472690   8.038902
    25  C    3.232412   6.858433   7.657634   7.687632   9.024217
    26  H    4.155815   7.877681   8.633929   8.732885  10.011523
    27  C    2.991092   5.924627   6.635243   6.873822   8.019954
    28  O    4.027404   6.563876   7.122659   7.606235   8.501918
    29  C    4.206414   7.978509   8.881148   8.567257  10.147642
    30  C    4.645656   8.070852   9.008447   8.503510  10.177815
    31  C    5.286570   9.260967  10.131298   9.895538  11.429610
    32  C    5.931283   9.368926  10.303302   9.734811  11.433000
    33  H    4.248980   7.250262   8.206034   7.605808   9.315855
    34  C    6.447444  10.416264  11.302476  10.977393  12.565362
    35  H    5.448546   9.482195  10.309567  10.203038  11.649860
    36  C    6.727939  10.469319  11.385891  10.907788  12.571712
    37  H    6.499508   9.637673  10.577274   9.891917  11.623670
    38  O    8.012408  11.739429  12.658331  12.127824  13.814990
    39  H    8.263599  11.791833  12.719752  12.099812  13.817272
    40  O    7.524689  11.626435  12.494383  12.224988  13.785279
    41  C    8.666397  12.481298  13.247787  13.152783  14.528904
    42  H    8.528916  12.074163  12.746636  12.839126  14.032742
    43  H    9.426412  13.373435  14.144019  14.059758  15.446490
    44  H    9.125822  12.821143  13.594550  13.432880  14.832442
    45  C    2.355179   4.457250   5.228418   5.409414   6.603610
    46  H    3.291636   4.067824   4.595651   5.210562   5.980099
    47  H    4.886223   6.266047   6.598289   7.408184   7.914377
    48  O    5.599171   6.320820   6.493234   7.495991   7.736889
    49  O    6.556943   6.743998   6.876675   7.740192   7.926499
    50  N    5.565871   6.402476   6.703984   7.414047   7.882086
                   11         12         13         14         15
    11  H    0.000000
    12  C    3.878454   0.000000
    13  H    4.314686   2.111469   0.000000
    14  C    3.393927   1.413623   3.382914   0.000000
    15  H    2.467121   3.409204   4.950255   2.147986   0.000000
    16  O    4.552686   2.369958   4.479858   1.356075   2.671596
    17  H    4.542013   3.186246   5.261101   1.914193   2.289822
    18  O    5.246372   1.369148   2.557293   2.424757   4.567055
    19  C    6.052908   2.376951   3.522764   3.087699   5.132474
    20  H    5.987635   2.662883   3.357793   3.469394   5.369259
    21  H    7.061332   3.261523   4.128472   4.046546   6.128979
    22  H    6.069794   2.716357   4.306712   2.899399   4.744420
    23  C    7.446102   8.783483   7.112627   9.475387   9.699786
    24  H    6.660729   7.787915   6.140148   8.501966   8.820042
    25  C    7.343859   9.047685   7.428153   9.659026   9.718818
    26  H    8.260629  10.095088   8.472707  10.685728  10.672187
    27  C    6.260236   8.217692   6.732366   8.733401   8.675414
    28  O    6.624395   8.911340   7.550618   9.317127   9.065932
    29  C    8.718096   9.870360   8.165128  10.609622  10.901725
    30  C    8.957847   9.729248   8.053788  10.519829  10.960379
    31  C    9.898866  11.217503   9.490812  11.940747  12.155211
    32  C   10.268449  10.918500   9.249247  11.730819  12.210536
    33  H    8.235796   8.787110   7.157769   9.592761  10.119368
    34  C   11.102256  12.269568  10.530203  13.026220  13.298272
    35  H   10.004160  11.552552   9.835102  12.233189  12.345092
    36  C   11.276489  12.135587  10.423493  12.933337  13.329104
    37  H   10.616299  10.998277   9.384928  11.833440  12.410048
    38  O   12.565351  13.325413  11.617688  14.141135  14.571383
    39  H   12.684596  13.243284  11.573941  14.077185  14.583516
    40  O   12.245301  13.537432  11.776486  14.284277  14.500068
    41  C   12.925924  14.439278  12.778590  15.100550  15.177504
    42  H   12.352197  14.114956  12.549731  14.686949  14.623070
    43  H   13.800205  15.366180  13.672802  16.034219  16.092615
    44  H   13.314355  14.681133  13.044427  15.356538  15.487126
    45  C    4.954650   6.747297   5.318393   7.271005   7.312359
    46  H    4.164613   6.466546   5.328813   6.799823   6.586254
    47  H    5.997130   8.603545   7.522929   8.832271   8.361867
    48  O    5.837103   8.599288   7.711870   8.709117   8.095431
    49  O    6.369466   8.689327   7.961855   8.774515   8.257054
    50  N    6.214321   8.496162   7.538499   8.708681   8.315496
                   16         17         18         19         20
    16  O    0.000000
    17  H    0.967747   0.000000
    18  O    2.753225   3.712899   0.000000
    19  C    3.042781   3.951034   1.436471   0.000000
    20  H    3.687201   4.530977   2.090360   1.094894   0.000000
    21  H    3.857574   4.765732   2.028501   1.089592   1.781913
    22  H    2.449497   3.242384   2.099079   1.091407   1.788752
    23  C   10.800970  11.242484   9.585811  10.190180   9.512440
    24  H    9.812411  10.276527   8.575373   9.135412   8.440405
    25  C   11.010560  11.400092   9.932618  10.689274  10.117657
    26  H   12.039923  12.408990  10.985121  11.764476  11.200574
    27  C   10.088583  10.430905   9.187020  10.070289   9.616269
    28  O   10.657953  10.930941   9.935434  10.906930  10.533650
    29  C   11.905539  12.371679  10.589798  11.067435  10.301978
    30  C   11.755720  12.261402  10.346542  10.653340   9.798637
    31  C   13.250519  13.698252  11.948392  12.459639  11.705098
    32  C   12.930728  13.448938  11.465752  11.671070  10.764728
    33  H   10.799061  11.323210   9.374260   9.623225   8.747477
    34  C   14.309714  14.776887  12.936679  13.348796  12.534302
    35  H   13.567184  13.984246  12.338359  12.951231  12.257488
    36  C   14.164750  14.664834  12.716210  12.985026  12.101838
    37  H   12.973414  13.513809  11.461923  11.537529  10.580729
    38  O   15.345659  15.856641  13.853426  14.047914  13.130261
    39  H   15.238333  15.766976  13.711261  13.810911  12.857932
    40  O   15.582876  16.037359  14.217624  14.670382  13.872953
    41  C   16.388610  16.788996  15.177145  15.576835  14.746258
    42  H   15.977020  16.322793  14.932062  15.348470  14.531143
    43  H   17.335799  17.735352  16.105917  16.547659  15.736482
    44  H   16.613449  17.026290  15.375363  15.678640  14.799522
    45  C    8.626512   8.992135   7.736240   8.640598   8.228839
    46  H    8.141221   8.411859   7.574778   8.527394   8.196789
    47  H   10.121402  10.300500   9.701981  10.789445  10.566224
    48  O    9.947076  10.060938   9.728849  10.869109  10.734325
    49  O    9.891584  10.002041   9.707963  10.999237  11.067574
    50  N    9.913586  10.094106   9.513858  10.755359  10.716249
                   21         22         23         24         25
    21  H    0.000000
    22  H    1.780553   0.000000
    23  C   10.849412  10.858584   0.000000
    24  H    9.804456   9.798896   1.084515   0.000000
    25  C   11.375598  11.331518   1.353780   2.098433   0.000000
    26  H   12.443210  12.407993   2.131531   3.076431   1.085672
    27  C   10.797025  10.661217   2.489860   2.714719   1.450876
    28  O   11.651702  11.452557   3.581822   3.939058   2.328361
    29  C   11.679796  11.758944   1.450463   2.138462   2.514074
    30  C   11.224043  11.351089   2.454978   2.579293   3.742161
    31  C   13.062104  13.156901   2.521381   3.441763   3.054244
    32  C   12.193211  12.375441   3.739885   3.965482   4.937158
    33  H   10.196265  10.313785   2.652963   2.309157   4.006313
    34  C   13.912476  14.058804   3.785142   4.577808   4.435036
    35  H   13.574066  13.639182   2.788982   3.846394   2.807386
    36  C   13.508851  13.697329   4.268503   4.790801   5.228348
    37  H   12.017820  12.235673   4.604505   4.635341   5.872800
    38  O   14.533472  14.764704   5.622177   6.127435   6.553837
    39  H   14.266278  14.522271   6.038690   6.394874   7.092834
    40  O   15.228155  15.387434   4.895106   5.790911   5.287337
    41  C   16.183241  16.235649   5.824513   6.696150   6.195940
    42  H   16.015079  15.952572   5.545755   6.420988   5.826526
    43  H   17.143577  17.221602   6.658665   7.587797   6.888243
    44  H   16.266573  16.330495   6.301645   7.063054   6.858101
    45  C    9.386317   9.215644   3.070856   2.729072   2.587361
    46  H    9.340744   8.998163   4.001534   3.636646   3.437730
    47  H   11.566635  11.242547   5.108519   5.252720   3.954320
    48  O   11.659836  11.259382   6.052357   6.120837   4.934382
    49  O   11.696617  11.380411   7.735013   7.710279   6.653758
    50  N   11.456806  11.206570   6.596309   6.627196   5.491764
                   26         27         28         29         30
    26  H    0.000000
    27  C    2.127740   0.000000
    28  O    2.489168   1.249245   0.000000
    29  C    2.809335   3.858305   4.832916   0.000000
    30  C    4.188880   4.937179   6.024782   1.405553   0.000000
    31  C    2.812402   4.503691   5.221742   1.410595   2.412403
    32  C    5.191954   6.225250   7.250348   2.432047   1.387355
    33  H    4.680459   4.965597   6.147328   2.157254   1.084887
    34  C    4.154449   5.884002   6.592311   2.439346   2.794730
    35  H    2.200220   4.196469   4.684529   2.179241   3.408878
    36  C    5.191390   6.636441   7.506978   2.818993   2.414827
    37  H    6.214694   7.086787   8.167462   3.415659   2.150086
    38  O    6.442727   7.973965   8.810792   4.172256   3.670418
    39  H    7.102781   8.472904   9.390131   4.616563   3.832433
    40  O    4.756929   6.715684   7.239003   3.678139   4.162255
    41  C    5.630582   7.586374   8.035409   4.616924   4.994137
    42  H    5.250508   7.146035   7.529659   4.479318   4.976138
    43  H    6.201211   8.248981   8.582894   5.516546   5.988516
    44  H    6.417808   8.268426   8.822044   4.981406   5.057827
    45  C    3.499967   1.474013   2.319929   4.518840   5.284069
    46  H    4.247458   2.151048   2.539475   5.438301   6.184524
    47  H    4.171677   2.634331   1.687825   6.437805   7.548345
    48  O    5.162697   3.580747   2.682312   7.402328   8.478477
    49  O    6.904948   5.275325   4.482099   9.117598  10.151570
    50  N    5.736782   4.136248   3.340978   7.963061   9.024524
                   31         32         33         34         35
    31  C    0.000000
    32  C    2.782476   0.000000
    33  H    3.399606   2.140078   0.000000
    34  C    1.382864   2.428211   3.879604   0.000000
    35  H    1.083782   3.865704   4.316574   2.110134   0.000000
    36  C    2.415809   1.395986   3.393381   1.414452   3.382259
    37  H    3.868954   1.086507   2.467054   3.411727   4.952070
    38  O    3.631366   2.415762   4.550767   2.368191   4.476763
    39  H    4.326617   2.455294   4.541620   3.185867   5.259545
    40  O    2.374373   3.686461   5.246995   1.368625   2.557080
    41  C    3.382312   4.379537   6.053396   2.376560   3.517781
    42  H    3.321305   4.566193   5.987444   2.661562   3.348716
    43  H    4.192082   5.383476   7.061759   3.260935   4.124301
    44  H    3.926472   4.188785   6.070475   2.716741   4.302279
    45  C    5.473841   6.659189   5.001412   6.810255   5.383501
    46  H    6.364830   7.558750   5.857719   7.706248   6.223374
    47  H    6.899412   8.824608   7.538562   8.270665   6.361001
    48  O    7.887954   9.771650   8.415078   9.258298   7.347343
    49  O    9.638648  11.470669  10.013900  11.013504   9.092025
    50  N    8.465056  10.329442   8.931721   9.838562   7.921636
                   36         37         38         39         40
    36  C    0.000000
    37  H    2.149149   0.000000
    38  O    1.354298   2.671670   0.000000
    39  H    1.913676   2.290568   0.967923   0.000000
    40  O    2.424505   4.568088   2.750436   3.710611   0.000000
    41  C    3.090144   5.136201   3.045660   3.953671   1.436858
    42  H    3.472232   5.374100   3.691334   4.535565   2.090488
    43  H    4.048243   6.131942   3.859418   4.767161   2.028663
    44  H    2.902986   4.749006   2.455499   3.247317   2.099322
    45  C    7.330359   7.364226   8.684228   9.049229   7.801295
    46  H    8.239854   8.241097   9.592498   9.953443   8.672907
    47  H    9.156655   9.694124  10.470691  11.024604   8.910409
    48  O   10.133546  10.619293  11.450742  11.993974   9.892725
    49  O   11.875272  12.287184  13.197655  13.725367  11.635364
    50  N   10.708151  11.165307  12.026668  12.563546  10.464744
                   41         42         43         44         45
    41  C    0.000000
    42  H    1.094770   0.000000
    43  H    1.089495   1.781883   0.000000
    44  H    1.091405   1.788809   1.780431   0.000000
    45  C    8.695988   8.274912   9.443685   9.269874   0.000000
    46  H    9.478832   8.969277  10.220846  10.064870   1.083733
    47  H    9.661724   9.100071  10.185797  10.456664   2.923061
    48  O   10.618154  10.028438  11.130606  11.416753   3.631443
    49  O   12.471880  11.959833  12.940365  13.291567   5.056006
    50  N   11.322043  10.834345  11.801092  12.136747   4.045646
                   46         47         48         49         50
    46  H    0.000000
    47  H    2.519060   0.000000
    48  O    3.004293   0.995217   0.000000
    49  O    4.440743   2.923484   2.130348   0.000000
    50  N    3.563547   1.895726   1.384835   1.182027   0.000000
 Stoichiometry    C21H20NO8(2)
 Framework group  C1[X(C21H20NO8)]
 Deg. of freedom   144
 Full point group                 C1      NOp   1
 Largest Abelian subgroup         C1      NOp   1
 Largest concise Abelian subgroup C1      NOp   1
                         Standard orientation:                         
 ---------------------------------------------------------------------
 Center     Atomic      Atomic             Coordinates (Angstroms)
 Number     Number       Type             X           Y           Z
 ---------------------------------------------------------------------
      1          6           0       -2.706063    0.255079   -0.199328
      2          1           0       -2.413647    0.953447   -0.979154
      3          6           0       -1.832525   -0.022744    0.792593
      4          1           0       -2.091485   -0.724356    1.580170
      5          6           0       -0.467715    0.508197    0.941029
      6          8           0        0.251613    0.097224    1.860741
      7          6           0       -4.044642   -0.291176   -0.370933
      8          6           0       -4.807618    0.126191   -1.473548
      9          6           0       -4.619859   -1.229182    0.510014
     10          6           0       -6.091430   -0.359650   -1.682865
     11          1           0       -4.390562    0.845057   -2.171226
     12          6           0       -5.898547   -1.721223    0.315258
     13          1           0       -4.080067   -1.586109    1.379766
     14          6           0       -6.652908   -1.277794   -0.794985
     15          1           0       -6.672929   -0.018250   -2.534810
     16          8           0       -7.910772   -1.764431   -0.936055
     17          1           0       -8.323230   -1.382950   -1.724018
     18          8           0       -6.432848   -2.578340    1.239615
     19          6           0       -6.646625   -3.926444    0.791993
     20          1           0       -5.706524   -4.373609    0.452807
     21          1           0       -7.015406   -4.475895    1.657622
     22          1           0       -7.386988   -3.970264   -0.008702
     23          6           0        2.695606    0.060859   -0.022810
     24          1           0        1.786470   -0.526532   -0.090764
     25          6           0        2.586543    1.408258    0.050277
     26          1           0        3.464509    2.045912    0.085717
     27          6           0        1.342031    2.150652   -0.021029
     28          8           0        1.384803    3.391378   -0.160254
     29          6           0        3.915058   -0.724381   -0.036111
     30          6           0        3.812047   -2.122765   -0.133519
     31          6           0        5.206478   -0.161500    0.035858
     32          6           0        4.943503   -2.925505   -0.146594
     33          1           0        2.831461   -2.583220   -0.191924
     34          6           0        6.343265   -0.948854    0.025795
     35          1           0        5.348594    0.909989    0.115219
     36          6           0        6.214632   -2.354729   -0.061623
     37          1           0        4.846963   -4.005805   -0.210855
     38          8           0        7.351444   -3.090582   -0.044242
     39          1           0        7.134844   -4.032121   -0.103107
     40          8           0        7.569150   -0.356935    0.167124
     41          6           0        8.420854   -0.399991   -0.989296
     42          1           0        7.933525    0.078878   -1.844700
     43          1           0        9.316487    0.160809   -0.724072
     44          1           0        8.696302   -1.424360   -1.246130
     45          6           0        0.002617    1.536218    0.012995
     46          1           0       -0.727169    2.051671   -0.600355
     47          1           0        0.074762    4.430422   -0.390325
     48          8           0       -0.678967    5.055408   -0.568489
     49          8           0       -2.105655    6.090339    0.628115
     50          7           0       -1.192038    5.342529    0.685339
 ---------------------------------------------------------------------
 Rotational constants (GHZ):           0.1744253           0.0494082           0.0400494
 Standard basis: 6-311G(d) (5D, 7F)
 There are   630 symmetry adapted cartesian basis functions of A   symmetry.
 There are   600 symmetry adapted basis functions of A   symmetry.
   600 basis functions,  1060 primitive gaussians,   630 cartesian basis functions
   109 alpha electrons      108 beta electrons
       nuclear repulsion energy      2538.9928625225 Hartrees.
 NAtoms=   50 NActive=   50 NUniq=   50 SFac= 1.00D+00 NAtFMM=   60 NAOKFM=F Big=F
 Integral buffers will be    131072 words long.
 Raffenetti 2 integral format.
 Two-electron integral symmetry is turned on.
 Using the following non-standard input for PCM:
 Eps=7
 EpsInf=1.85341
 HbondAcidity=0
 HbondBasicity=0.48
 SurfaceTensionAtInterface=60.62
 CarbonAromaticity=0
 ElectronegativeHalogenicity=0
 --- end of non-standard input.
 ------------------------------------------------------------------------------
 Polarizable Continuum Model (PCM)
 =================================
 Model                : PCM.
 Atomic radii         : SMD-Coulomb.
 Polarization charges : Total charges.
 Charge compensation  : None.
 Solution method      : On-the-fly selection.
 Cavity type          : VdW (van der Waals Surface) (Alpha=1.000).
 Cavity algorithm     : GePol (No added spheres)
                        Default sphere list used, NSphG=   50.
                        Lebedev-Laikov grids with approx.  5.0 points / Ang**2.
                        Smoothing algorithm: York/Karplus (Gamma=1.0000).
                        Polarization charges: spherical gaussians, with
                                              point-specific exponents (IZeta= 3).
                        Self-potential: point-specific (ISelfS= 7).
                        Self-field    : sphere-specific E.n sum rule (ISelfD= 2).
 Solvent              : Generic,
                        Eps                           =   7.000000
                        Eps(infinity)                 =   1.853410
                        RSolv                         =   0.000000 Ang.
                        Molar volume                  =   0.000000 cm**3/mol
                        Thermal expansion coefficient =   0.000000 K**-1
                        Absolute temperature          = 298.150000 K
                        Numeral density               =   0.000000 Ang**-3
                        Hydrogen bond acidity         =   0.000000
                        Hydrogen bond basicity        =   0.480000
                        Surface tension at interface  =  60.620000 (cal/mol)*Ang**-2
                        Carbon aromaticity            =   0.000000
                        Electronegative halogenicity  =   0.000000
 ------------------------------------------------------------------------------
 ------------------------------------------------------------------------------
 Atomic radii for non-electrostatic terms: SMD-CDS.
 ------------------------------------------------------------------------------
 Nuclear repulsion after PCM non-electrostatic terms =     2538.9908752561 Hartrees.
 One-electron integrals computed using PRISM.
 NBasis=   600 RedAO= T EigKep=  1.74D-04  NBF=   600
 NBsUse=   600 1.00D-06 EigRej= -1.00D+00 NBFU=   600
 Initial guess from the checkpoint file:  "CURCUMIN-Prod-2-B3LYP-6-311G-D-298-NBO.chk"
 B after Tr=    -0.000000   -0.000000    0.000000
         Rot=    1.000000    0.000000   -0.000000    0.000000 Ang=   0.00 deg.
 Initial guess <Sx>= 0.0000 <Sy>= 0.0000 <Sz>= 0.5000 <S**2>= 0.7618 S= 0.5059
 Requested convergence on RMS density matrix=1.00D-08 within 128 cycles.
 Requested convergence on MAX density matrix=1.00D-06.
 Requested convergence on             energy=1.00D-06.
 No special actions if energy rises.
 Inv3:  Mode=1 IEnd=    57238272.
 Iteration    1 A*A^-1 deviation from unit magnitude is 4.22D-15 for   2375.
 Iteration    1 A*A^-1 deviation from orthogonality  is 1.78D-15 for   3353    498.
 Iteration    1 A^-1*A deviation from unit magnitude is 4.22D-15 for   2375.
 Iteration    1 A^-1*A deviation from orthogonality  is 2.10D-15 for   1456   1156.
 Error on total polarization charges =  0.03510
 SCF Done:  E(UB3LYP) =  -1468.99018152     A.U. after    2 cycles
            NFock=  2  Conv=0.79D-08     -V/T= 2.0033
 <Sx>= 0.0000 <Sy>= 0.0000 <Sz>= 0.5000 <S**2>= 0.7618 S= 0.5059
 <L.S>=  0.00000000000    
 SMD-CDS (non-electrostatic) energy       (kcal/mol) =      -1.25
 (included in total energy above)
 Annihilation of the first spin contaminant:
 S**2 before annihilation     0.7618,   after     0.7501

 **********************************************************************

            Population analysis using the SCF density.

 **********************************************************************

 Orbital symmetries:
 Alpha Orbitals:
       Occupied  (A) (A) (A) (A) (A) (A) (A) (A) (A) (A) (A) (A)
                 (A) (A) (A) (A) (A) (A) (A) (A) (A) (A) (A) (A)
                 (A) (A) (A) (A) (A) (A) (A) (A) (A) (A) (A) (A)
                 (A) (A) (A) (A) (A) (A) (A) (A) (A) (A) (A) (A)
                 (A) (A) (A) (A) (A) (A) (A) (A) (A) (A) (A) (A)
                 (A) (A) (A) (A) (A) (A) (A) (A) (A) (A) (A) (A)
                 (A) (A) (A) (A) (A) (A) (A) (A) (A) (A) (A) (A)
                 (A) (A) (A) (A) (A) (A) (A) (A) (A) (A) (A) (A)
                 (A) (A) (A) (A) (A) (A) (A) (A) (A) (A) (A) (A)
                 (A)
       Virtual   (A) (A) (A) (A) (A) (A) (A) (A) (A) (A) (A) (A)
                 (A) (A) (A) (A) (A) (A) (A) (A) (A) (A) (A) (A)
                 (A) (A) (A) (A) (A) (A) (A) (A) (A) (A) (A) (A)
                 (A) (A) (A) (A) (A) (A) (A) (A) (A) (A) (A) (A)
                 (A) (A) (A) (A) (A) (A) (A) (A) (A) (A) (A) (A)
                 (A) (A) (A) (A) (A) (A) (A) (A) (A) (A) (A) (A)
                 (A) (A) (A) (A) (A) (A) (A) (A) (A) (A) (A) (A)
                 (A) (A) (A) (A) (A) (A) (A) (A) (A) (A) (A) (A)
                 (A) (A) (A) (A) (A) (A) (A) (A) (A) (A) (A) (A)
                 (A) (A) (A) (A) (A) (A) (A) (A) (A) (A) (A) (A)
                 (A) (A) (A) (A) (A) (A) (A) (A) (A) (A) (A) (A)
                 (A) (A) (A) (A) (A) (A) (A) (A) (A) (A) (A) (A)
                 (A) (A) (A) (A) (A) (A) (A) (A) (A) (A) (A) (A)
                 (A) (A) (A) (A) (A) (A) (A) (A) (A) (A) (A) (A)
                 (A) (A) (A) (A) (A) (A) (A) (A) (A) (A) (A) (A)
                 (A) (A) (A) (A) (A) (A) (A) (A) (A) (A) (A) (A)
                 (A) (A) (A) (A) (A) (A) (A) (A) (A) (A) (A) (A)
                 (A) (A) (A) (A) (A) (A) (A) (A) (A) (A) (A) (A)
                 (A) (A) (A) (A) (A) (A) (A) (A) (A) (A) (A) (A)
                 (A) (A) (A) (A) (A) (A) (A) (A) (A) (A) (A) (A)
                 (A) (A) (A) (A) (A) (A) (A) (A) (A) (A) (A) (A)
                 (A) (A) (A) (A) (A) (A) (A) (A) (A) (A) (A) (A)
                 (A) (A) (A) (A) (A) (A) (A) (A) (A) (A) (A) (A)
                 (A) (A) (A) (A) (A) (A) (A) (A) (A) (A) (A) (A)
                 (A) (A) (A) (A) (A) (A) (A) (A) (A) (A) (A) (A)
                 (A) (A) (A) (A) (A) (A) (A) (A) (A) (A) (A) (A)
                 (A) (A) (A) (A) (A) (A) (A) (A) (A) (A) (A) (A)
                 (A) (A) (A) (A) (A) (A) (A) (A) (A) (A) (A) (A)
                 (A) (A) (A) (A) (A) (A) (A) (A) (A) (A) (A) (A)
                 (A) (A) (A) (A) (A) (A) (A) (A) (A) (A) (A) (A)
                 (A) (A) (A) (A) (A) (A) (A) (A) (A) (A) (A) (A)
                 (A) (A) (A) (A) (A) (A) (A) (A) (A) (A) (A) (A)
                 (A) (A) (A) (A) (A) (A) (A) (A) (A) (A) (A) (A)
                 (A) (A) (A) (A) (A) (A) (A) (A) (A) (A) (A) (A)
                 (A) (A) (A) (A) (A) (A) (A) (A) (A) (A) (A) (A)
                 (A) (A) (A) (A) (A) (A) (A) (A) (A) (A) (A) (A)
                 (A) (A) (A) (A) (A) (A) (A) (A) (A) (A) (A) (A)
                 (A) (A) (A) (A) (A) (A) (A) (A) (A) (A) (A) (A)
                 (A) (A) (A) (A) (A) (A) (A) (A) (A) (A) (A) (A)
                 (A) (A) (A) (A) (A) (A) (A) (A) (A) (A) (A) (A)
                 (A) (A) (A) (A) (A) (A) (A) (A) (A) (A) (A)
 Beta  Orbitals:
       Occupied  (A) (A) (A) (A) (A) (A) (A) (A) (A) (A) (A) (A)
                 (A) (A) (A) (A) (A) (A) (A) (A) (A) (A) (A) (A)
                 (A) (A) (A) (A) (A) (A) (A) (A) (A) (A) (A) (A)
                 (A) (A) (A) (A) (A) (A) (A) (A) (A) (A) (A) (A)
                 (A) (A) (A) (A) (A) (A) (A) (A) (A) (A) (A) (A)
                 (A) (A) (A) (A) (A) (A) (A) (A) (A) (A) (A) (A)
                 (A) (A) (A) (A) (A) (A) (A) (A) (A) (A) (A) (A)
                 (A) (A) (A) (A) (A) (A) (A) (A) (A) (A) (A) (A)
                 (A) (A) (A) (A) (A) (A) (A) (A) (A) (A) (A) (A)
       Virtual   (A) (A) (A) (A) (A) (A) (A) (A) (A) (A) (A) (A)
                 (A) (A) (A) (A) (A) (A) (A) (A) (A) (A) (A) (A)
                 (A) (A) (A) (A) (A) (A) (A) (A) (A) (A) (A) (A)
                 (A) (A) (A) (A) (A) (A) (A) (A) (A) (A) (A) (A)
                 (A) (A) (A) (A) (A) (A) (A) (A) (A) (A) (A) (A)
                 (A) (A) (A) (A) (A) (A) (A) (A) (A) (A) (A) (A)
                 (A) (A) (A) (A) (A) (A) (A) (A) (A) (A) (A) (A)
                 (A) (A) (A) (A) (A) (A) (A) (A) (A) (A) (A) (A)
                 (A) (A) (A) (A) (A) (A) (A) (A) (A) (A) (A) (A)
                 (A) (A) (A) (A) (A) (A) (A) (A) (A) (A) (A) (A)
                 (A) (A) (A) (A) (A) (A) (A) (A) (A) (A) (A) (A)
                 (A) (A) (A) (A) (A) (A) (A) (A) (A) (A) (A) (A)
                 (A) (A) (A) (A) (A) (A) (A) (A) (A) (A) (A) (A)
                 (A) (A) (A) (A) (A) (A) (A) (A) (A) (A) (A) (A)
                 (A) (A) (A) (A) (A) (A) (A) (A) (A) (A) (A) (A)
                 (A) (A) (A) (A) (A) (A) (A) (A) (A) (A) (A) (A)
                 (A) (A) (A) (A) (A) (A) (A) (A) (A) (A) (A) (A)
                 (A) (A) (A) (A) (A) (A) (A) (A) (A) (A) (A) (A)
                 (A) (A) (A) (A) (A) (A) (A) (A) (A) (A) (A) (A)
                 (A) (A) (A) (A) (A) (A) (A) (A) (A) (A) (A) (A)
                 (A) (A) (A) (A) (A) (A) (A) (A) (A) (A) (A) (A)
                 (A) (A) (A) (A) (A) (A) (A) (A) (A) (A) (A) (A)
                 (A) (A) (A) (A) (A) (A) (A) (A) (A) (A) (A) (A)
                 (A) (A) (A) (A) (A) (A) (A) (A) (A) (A) (A) (A)
                 (A) (A) (A) (A) (A) (A) (A) (A) (A) (A) (A) (A)
                 (A) (A) (A) (A) (A) (A) (A) (A) (A) (A) (A) (A)
                 (A) (A) (A) (A) (A) (A) (A) (A) (A) (A) (A) (A)
                 (A) (A) (A) (A) (A) (A) (A) (A) (A) (A) (A) (A)
                 (A) (A) (A) (A) (A) (A) (A) (A) (A) (A) (A) (A)
                 (A) (A) (A) (A) (A) (A) (A) (A) (A) (A) (A) (A)
                 (A) (A) (A) (A) (A) (A) (A) (A) (A) (A) (A) (A)
                 (A) (A) (A) (A) (A) (A) (A) (A) (A) (A) (A) (A)
                 (A) (A) (A) (A) (A) (A) (A) (A) (A) (A) (A) (A)
                 (A) (A) (A) (A) (A) (A) (A) (A) (A) (A) (A) (A)
                 (A) (A) (A) (A) (A) (A) (A) (A) (A) (A) (A) (A)
                 (A) (A) (A) (A) (A) (A) (A) (A) (A) (A) (A) (A)
                 (A) (A) (A) (A) (A) (A) (A) (A) (A) (A) (A) (A)
                 (A) (A) (A) (A) (A) (A) (A) (A) (A) (A) (A) (A)
                 (A) (A) (A) (A) (A) (A) (A) (A) (A) (A) (A) (A)
                 (A) (A) (A) (A) (A) (A) (A) (A) (A) (A) (A) (A)
                 (A) (A) (A) (A) (A) (A) (A) (A) (A) (A) (A) (A)
 The electronic state is 2-A.
 Alpha  occ. eigenvalues --  -19.17427 -19.16614 -19.16391 -19.16349 -19.13700
 Alpha  occ. eigenvalues --  -19.13643 -19.12254 -19.10396 -14.47519 -10.27311
 Alpha  occ. eigenvalues --  -10.26036 -10.25293 -10.25022 -10.23569 -10.23449
 Alpha  occ. eigenvalues --  -10.21659 -10.20811 -10.20792 -10.20258 -10.19865
 Alpha  occ. eigenvalues --  -10.19223 -10.19114 -10.18724 -10.18513 -10.18376
 Alpha  occ. eigenvalues --  -10.18372 -10.18243 -10.18184 -10.17958 -10.17885
 Alpha  occ. eigenvalues --   -1.21185  -1.08718  -1.08484  -1.05517  -1.05246
 Alpha  occ. eigenvalues --   -1.05158  -1.04053  -1.03734  -0.87267  -0.87103
 Alpha  occ. eigenvalues --   -0.81923  -0.81207  -0.77880  -0.76578  -0.76431
 Alpha  occ. eigenvalues --   -0.75151  -0.73263  -0.69187  -0.69120  -0.67560
 Alpha  occ. eigenvalues --   -0.66948  -0.66353  -0.63463  -0.62430  -0.59361
 Alpha  occ. eigenvalues --   -0.59079  -0.57769  -0.56293  -0.55908  -0.55550
 Alpha  occ. eigenvalues --   -0.53161  -0.51863  -0.51725  -0.51276  -0.49961
 Alpha  occ. eigenvalues --   -0.49537  -0.49195  -0.48263  -0.47793  -0.47625
 Alpha  occ. eigenvalues --   -0.46508  -0.46456  -0.46331  -0.45396  -0.44481
 Alpha  occ. eigenvalues --   -0.44302  -0.43867  -0.43359  -0.42941  -0.42601
 Alpha  occ. eigenvalues --   -0.42317  -0.41652  -0.41411  -0.41261  -0.40106
 Alpha  occ. eigenvalues --   -0.39028  -0.38346  -0.38159  -0.37966  -0.37903
 Alpha  occ. eigenvalues --   -0.37284  -0.37142  -0.36714  -0.36508  -0.34498
 Alpha  occ. eigenvalues --   -0.34403  -0.33397  -0.30113  -0.29657  -0.28978
 Alpha  occ. eigenvalues --   -0.28648  -0.28599  -0.26302  -0.26216  -0.26081
 Alpha  occ. eigenvalues --   -0.25537  -0.25331  -0.22570  -0.22055
 Alpha virt. eigenvalues --   -0.08838  -0.06715  -0.06489  -0.01665  -0.01498
 Alpha virt. eigenvalues --    0.00174   0.02322   0.03620   0.03685   0.05615
 Alpha virt. eigenvalues --    0.06261   0.06403   0.06900   0.07025   0.07646
 Alpha virt. eigenvalues --    0.08118   0.08822   0.09575   0.10084   0.10972
 Alpha virt. eigenvalues --    0.11762   0.12070   0.12287   0.12318   0.13788
 Alpha virt. eigenvalues --    0.14196   0.14757   0.15550   0.15908   0.16017
 Alpha virt. eigenvalues --    0.16499   0.16675   0.17165   0.18160   0.19819
 Alpha virt. eigenvalues --    0.20982   0.21595   0.23471   0.24074   0.24390
 Alpha virt. eigenvalues --    0.25493   0.26073   0.26861   0.27157   0.28107
 Alpha virt. eigenvalues --    0.28638   0.29902   0.30347   0.30415   0.30760
 Alpha virt. eigenvalues --    0.31174   0.31953   0.32126   0.32822   0.33692
 Alpha virt. eigenvalues --    0.34641   0.35226   0.35414   0.35800   0.35908
 Alpha virt. eigenvalues --    0.36459   0.36698   0.37292   0.37456   0.37672
 Alpha virt. eigenvalues --    0.37979   0.38581   0.38783   0.39411   0.40101
 Alpha virt. eigenvalues --    0.40309   0.40958   0.41198   0.41930   0.42293
 Alpha virt. eigenvalues --    0.42821   0.42957   0.43150   0.43507   0.44063
 Alpha virt. eigenvalues --    0.44340   0.44871   0.45364   0.45704   0.46066
 Alpha virt. eigenvalues --    0.46629   0.47665   0.48100   0.48776   0.49063
 Alpha virt. eigenvalues --    0.49486   0.50040   0.51198   0.51504   0.52326
 Alpha virt. eigenvalues --    0.52778   0.53192   0.53485   0.54648   0.54888
 Alpha virt. eigenvalues --    0.55513   0.55760   0.56797   0.57149   0.57500
 Alpha virt. eigenvalues --    0.57903   0.57990   0.58408   0.58556   0.58658
 Alpha virt. eigenvalues --    0.59297   0.59689   0.59948   0.60780   0.61124
 Alpha virt. eigenvalues --    0.61832   0.62180   0.62412   0.62513   0.63075
 Alpha virt. eigenvalues --    0.63271   0.63767   0.64150   0.64865   0.65288
 Alpha virt. eigenvalues --    0.65589   0.67388   0.68115   0.68678   0.68953
 Alpha virt. eigenvalues --    0.69489   0.69834   0.70252   0.72046   0.72974
 Alpha virt. eigenvalues --    0.74246   0.74826   0.74878   0.75216   0.76865
 Alpha virt. eigenvalues --    0.77922   0.78146   0.78747   0.79052   0.79370
 Alpha virt. eigenvalues --    0.79563   0.79938   0.80152   0.80701   0.81065
 Alpha virt. eigenvalues --    0.81400   0.82121   0.83061   0.83538   0.83777
 Alpha virt. eigenvalues --    0.84445   0.85197   0.86524   0.86680   0.87797
 Alpha virt. eigenvalues --    0.87910   0.88788   0.89727   0.90442   0.91068
 Alpha virt. eigenvalues --    0.91681   0.93006   0.93064   0.93800   0.95041
 Alpha virt. eigenvalues --    0.95296   0.96234   0.96756   0.97569   0.97838
 Alpha virt. eigenvalues --    0.98950   0.99046   0.99505   1.00707   1.02609
 Alpha virt. eigenvalues --    1.02997   1.04822   1.05006   1.06004   1.06749
 Alpha virt. eigenvalues --    1.07556   1.08171   1.09356   1.10393   1.12834
 Alpha virt. eigenvalues --    1.13449   1.13754   1.14709   1.14972   1.15484
 Alpha virt. eigenvalues --    1.15852   1.18532   1.19583   1.19730   1.20484
 Alpha virt. eigenvalues --    1.22688   1.23006   1.23074   1.23711   1.24334
 Alpha virt. eigenvalues --    1.26274   1.26786   1.27809   1.28052   1.29242
 Alpha virt. eigenvalues --    1.31840   1.34069   1.34947   1.36677   1.37643
 Alpha virt. eigenvalues --    1.37870   1.40475   1.43467   1.44310   1.45004
 Alpha virt. eigenvalues --    1.46295   1.46365   1.46943   1.48002   1.49686
 Alpha virt. eigenvalues --    1.49904   1.50230   1.51042   1.52098   1.52641
 Alpha virt. eigenvalues --    1.52858   1.53416   1.54598   1.54932   1.55415
 Alpha virt. eigenvalues --    1.55760   1.56726   1.57879   1.58023   1.59086
 Alpha virt. eigenvalues --    1.59397   1.61820   1.62369   1.63397   1.64637
 Alpha virt. eigenvalues --    1.66694   1.68295   1.68434   1.68762   1.69501
 Alpha virt. eigenvalues --    1.69954   1.70830   1.71379   1.72251   1.74890
 Alpha virt. eigenvalues --    1.75521   1.76037   1.76895   1.77162   1.77920
 Alpha virt. eigenvalues --    1.79075   1.79829   1.81349   1.81970   1.82615
 Alpha virt. eigenvalues --    1.83049   1.83381   1.83592   1.84084   1.84661
 Alpha virt. eigenvalues --    1.85445   1.88142   1.89555   1.90627   1.90658
 Alpha virt. eigenvalues --    1.92667   1.94577   1.95737   1.96373   1.98827
 Alpha virt. eigenvalues --    2.02051   2.02490   2.03099   2.03541   2.06908
 Alpha virt. eigenvalues --    2.07474   2.09377   2.11042   2.12238   2.13400
 Alpha virt. eigenvalues --    2.14529   2.15402   2.16487   2.17236   2.18134
 Alpha virt. eigenvalues --    2.23528   2.24169   2.25448   2.26727   2.28344
 Alpha virt. eigenvalues --    2.28583   2.29460   2.30519   2.31169   2.31410
 Alpha virt. eigenvalues --    2.32039   2.32955   2.33374   2.34969   2.36228
 Alpha virt. eigenvalues --    2.38467   2.38814   2.39306   2.39943   2.41403
 Alpha virt. eigenvalues --    2.43101   2.44448   2.45426   2.49303   2.50531
 Alpha virt. eigenvalues --    2.50731   2.52362   2.52979   2.53951   2.57354
 Alpha virt. eigenvalues --    2.60855   2.62932   2.63618   2.64736   2.65448
 Alpha virt. eigenvalues --    2.65696   2.67186   2.69807   2.70033   2.72991
 Alpha virt. eigenvalues --    2.74977   2.75165   2.75761   2.76418   2.77553
 Alpha virt. eigenvalues --    2.79051   2.80197   2.81075   2.81108   2.82323
 Alpha virt. eigenvalues --    2.84400   2.84840   2.87296   2.87588   2.88403
 Alpha virt. eigenvalues --    2.89865   2.92326   2.92887   2.93770   2.94062
 Alpha virt. eigenvalues --    2.94864   2.95074   2.96487   2.97041   2.98349
 Alpha virt. eigenvalues --    2.98972   2.99301   3.01323   3.01896   3.03079
 Alpha virt. eigenvalues --    3.03206   3.03763   3.08425   3.08510   3.09174
 Alpha virt. eigenvalues --    3.11152   3.11771   3.13270   3.14124   3.14372
 Alpha virt. eigenvalues --    3.14521   3.14610   3.15423   3.15967   3.16825
 Alpha virt. eigenvalues --    3.17372   3.18106   3.19383   3.19864   3.20532
 Alpha virt. eigenvalues --    3.24709   3.25014   3.25138   3.27572   3.29090
 Alpha virt. eigenvalues --    3.29595   3.29655   3.29799   3.30987   3.31279
 Alpha virt. eigenvalues --    3.31604   3.32945   3.33236   3.34723   3.35351
 Alpha virt. eigenvalues --    3.38964   3.39667   3.41943   3.45013   3.45963
 Alpha virt. eigenvalues --    3.46929   3.47927   3.48818   3.49521   3.50862
 Alpha virt. eigenvalues --    3.53099   3.54752   3.57739   3.59504   3.63824
 Alpha virt. eigenvalues --    3.64833   3.70743   3.71101   3.71264   3.81034
 Alpha virt. eigenvalues --    3.86953   3.87007   3.89561   3.89857   3.94136
 Alpha virt. eigenvalues --    3.94431   3.97540   4.01721   4.05388   4.07191
 Alpha virt. eigenvalues --    4.07273   4.20625   4.27484   4.44145   4.58587
 Alpha virt. eigenvalues --    4.78309   4.78472   4.78969   4.80097   4.80691
 Alpha virt. eigenvalues --    4.80873   4.85093   4.89091   4.90024   4.90623
 Alpha virt. eigenvalues --    4.96482   4.96585   5.05502   5.10805   5.10873
 Alpha virt. eigenvalues --    5.14817   5.16147   5.16212   5.32797   5.49970
 Alpha virt. eigenvalues --    5.50189   5.60232   5.64560   5.68079   5.68136
 Alpha virt. eigenvalues --    5.84545  23.21958  23.24724  23.42098  23.42143
 Alpha virt. eigenvalues --   23.51959  23.57052  23.70138  23.77969  23.78418
 Alpha virt. eigenvalues --   23.84040  23.85163  23.86401  23.86978  23.98303
 Alpha virt. eigenvalues --   23.98638  24.05211  24.05223  24.11545  24.11702
 Alpha virt. eigenvalues --   24.13637  24.14714  35.25175  49.77211  49.83494
 Alpha virt. eigenvalues --   49.86143  49.86355  49.92639  49.92773  49.93846
 Alpha virt. eigenvalues --   49.98235
  Beta  occ. eigenvalues --  -19.17427 -19.16607 -19.16383 -19.16351 -19.13700
  Beta  occ. eigenvalues --  -19.13643 -19.11930 -19.09905 -14.47518 -10.27406
  Beta  occ. eigenvalues --  -10.26185 -10.25285 -10.25013 -10.23571 -10.23451
  Beta  occ. eigenvalues --  -10.20811 -10.20792 -10.20548 -10.20250 -10.19864
  Beta  occ. eigenvalues --  -10.19220 -10.19109 -10.18719 -10.18508 -10.18377
  Beta  occ. eigenvalues --  -10.18368 -10.18244 -10.18180 -10.17918 -10.17839
  Beta  occ. eigenvalues --   -1.21185  -1.08705  -1.08470  -1.05245  -1.05157
  Beta  occ. eigenvalues --   -1.05062  -1.03852  -1.02926  -0.87248  -0.87083
  Beta  occ. eigenvalues --   -0.81515  -0.81110  -0.76733  -0.76540  -0.76406
  Beta  occ. eigenvalues --   -0.75073  -0.72322  -0.69184  -0.69116  -0.67519
  Beta  occ. eigenvalues --   -0.66920  -0.66242  -0.63382  -0.62326  -0.59296
  Beta  occ. eigenvalues --   -0.59045  -0.57553  -0.56265  -0.55871  -0.55530
  Beta  occ. eigenvalues --   -0.52937  -0.51764  -0.51678  -0.51196  -0.49729
  Beta  occ. eigenvalues --   -0.49514  -0.49183  -0.48169  -0.47680  -0.47512
  Beta  occ. eigenvalues --   -0.46489  -0.46416  -0.45913  -0.45158  -0.44454
  Beta  occ. eigenvalues --   -0.44284  -0.43749  -0.43205  -0.42866  -0.42247
  Beta  occ. eigenvalues --   -0.41883  -0.41571  -0.41290  -0.40163  -0.39599
  Beta  occ. eigenvalues --   -0.38953  -0.38284  -0.38112  -0.37872  -0.37860
  Beta  occ. eigenvalues --   -0.37184  -0.37026  -0.36621  -0.36267  -0.34474
  Beta  occ. eigenvalues --   -0.34360  -0.33388  -0.29789  -0.29211  -0.28642
  Beta  occ. eigenvalues --   -0.28576  -0.28140  -0.26265  -0.25747  -0.25446
  Beta  occ. eigenvalues --   -0.25399  -0.22405  -0.22114
  Beta virt. eigenvalues --   -0.14269  -0.08367  -0.06713  -0.05515  -0.01617
  Beta virt. eigenvalues --   -0.01440   0.00441   0.02888   0.03623   0.03692
  Beta virt. eigenvalues --    0.05699   0.06265   0.06568   0.06939   0.07070
  Beta virt. eigenvalues --    0.07773   0.08151   0.08936   0.10080   0.10351
  Beta virt. eigenvalues --    0.11297   0.11792   0.12132   0.12296   0.12401
  Beta virt. eigenvalues --    0.13957   0.14210   0.14862   0.15607   0.15972
  Beta virt. eigenvalues --    0.16077   0.16522   0.16712   0.17303   0.18367
  Beta virt. eigenvalues --    0.19994   0.21022   0.21701   0.23786   0.24194
  Beta virt. eigenvalues --    0.24558   0.25534   0.26113   0.26903   0.27219
  Beta virt. eigenvalues --    0.28467   0.28724   0.30003   0.30383   0.30502
  Beta virt. eigenvalues --    0.30882   0.31237   0.32105   0.32179   0.32916
  Beta virt. eigenvalues --    0.34164   0.34739   0.35360   0.35448   0.35842
  Beta virt. eigenvalues --    0.35979   0.36672   0.36820   0.37454   0.37628
  Beta virt. eigenvalues --    0.37795   0.38210   0.38801   0.39021   0.39469
  Beta virt. eigenvalues --    0.40145   0.40403   0.41061   0.41252   0.42072
  Beta virt. eigenvalues --    0.42426   0.42894   0.43012   0.43234   0.43532
  Beta virt. eigenvalues --    0.44121   0.44483   0.45018   0.45442   0.45758
  Beta virt. eigenvalues --    0.46153   0.46744   0.47752   0.48439   0.48897
  Beta virt. eigenvalues --    0.49138   0.49582   0.50562   0.51227   0.51533
  Beta virt. eigenvalues --    0.52358   0.52981   0.53419   0.53632   0.54741
  Beta virt. eigenvalues --    0.54975   0.55677   0.55979   0.56853   0.57194
  Beta virt. eigenvalues --    0.57535   0.57913   0.58019   0.58441   0.58634
  Beta virt. eigenvalues --    0.58697   0.59453   0.59813   0.60105   0.60847
  Beta virt. eigenvalues --    0.61309   0.61936   0.62277   0.62507   0.62839
  Beta virt. eigenvalues --    0.63250   0.63356   0.63805   0.64292   0.64909
  Beta virt. eigenvalues --    0.65327   0.65665   0.67545   0.68200   0.68749
  Beta virt. eigenvalues --    0.69089   0.69562   0.69924   0.70395   0.72453
  Beta virt. eigenvalues --    0.73261   0.74462   0.74832   0.74897   0.75295
  Beta virt. eigenvalues --    0.77021   0.78051   0.78213   0.78783   0.79082
  Beta virt. eigenvalues --    0.79466   0.79601   0.80010   0.80277   0.80773
  Beta virt. eigenvalues --    0.81109   0.81454   0.82265   0.83237   0.83618
  Beta virt. eigenvalues --    0.83809   0.84555   0.85289   0.86614   0.86810
  Beta virt. eigenvalues --    0.87876   0.88072   0.88811   0.89803   0.90613
  Beta virt. eigenvalues --    0.91249   0.91993   0.93164   0.93242   0.93942
  Beta virt. eigenvalues --    0.95282   0.95567   0.96417   0.96856   0.97614
  Beta virt. eigenvalues --    0.97901   0.99157   0.99310   0.99659   1.00886
  Beta virt. eigenvalues --    1.02698   1.03113   1.04895   1.05093   1.06117
  Beta virt. eigenvalues --    1.06881   1.07727   1.08495   1.09396   1.10483
  Beta virt. eigenvalues --    1.12889   1.13515   1.13787   1.14767   1.15000
  Beta virt. eigenvalues --    1.15558   1.16035   1.18719   1.19729   1.19808
  Beta virt. eigenvalues --    1.20870   1.22865   1.23068   1.23110   1.23735
  Beta virt. eigenvalues --    1.24510   1.26395   1.26935   1.27866   1.28342
  Beta virt. eigenvalues --    1.29644   1.32556   1.34451   1.35154   1.36833
  Beta virt. eigenvalues --    1.37673   1.37897   1.40955   1.43541   1.44402
  Beta virt. eigenvalues --    1.45104   1.46377   1.46435   1.46975   1.48615
  Beta virt. eigenvalues --    1.49722   1.50025   1.50285   1.51166   1.52197
  Beta virt. eigenvalues --    1.52673   1.52886   1.53566   1.54699   1.54994
  Beta virt. eigenvalues --    1.55453   1.55845   1.57077   1.58166   1.58466
  Beta virt. eigenvalues --    1.59218   1.60055   1.61935   1.62477   1.63889
  Beta virt. eigenvalues --    1.65147   1.66788   1.68350   1.68601   1.68863
  Beta virt. eigenvalues --    1.69705   1.70098   1.70909   1.71595   1.72400
  Beta virt. eigenvalues --    1.75022   1.75602   1.76088   1.76900   1.77277
  Beta virt. eigenvalues --    1.78116   1.79142   1.79921   1.81535   1.82069
  Beta virt. eigenvalues --    1.82735   1.83060   1.83606   1.83703   1.84223
  Beta virt. eigenvalues --    1.84773   1.85743   1.88365   1.89852   1.90662
  Beta virt. eigenvalues --    1.90731   1.92733   1.94723   1.95756   1.96414
  Beta virt. eigenvalues --    1.98980   2.02157   2.02507   2.03374   2.03888
  Beta virt. eigenvalues --    2.07310   2.07975   2.09426   2.11185   2.12309
[...]
   378. RY*(  13) C  30                  0.00000    18.24967   
   379. RY*(   1) C  31                  0.00242     1.39106   
   380. RY*(   2) C  31                  0.00129     1.23933   
   381. RY*(   3) C  31                  0.00070     0.96817   
   382. RY*(   4) C  31                  0.00038     1.23593   
   383. RY*(   5) C  31                  0.00026     1.43311   
   384. RY*(   6) C  31                  0.00012     3.12369   
   385. RY*(   7) C  31                  0.00006     2.64826   
   386. RY*(   8) C  31                  0.00004     3.46291   
   387. RY*(   9) C  31                  0.00003     1.57729   
   388. RY*(  10) C  31                  0.00003     2.59142   
   389. RY*(  11) C  31                  0.00000    21.31317   
   390. RY*(  12) C  31                  0.00000     2.65361   
   391. RY*(  13) C  31                  0.00001     2.19236   
   392. RY*(   1) C  32                  0.00250     1.37499   
   393. RY*(   2) C  32                  0.00111     1.37461   
   394. RY*(   3) C  32                  0.00041     0.70779   
   395. RY*(   4) C  32                  0.00037     1.08044   
   396. RY*(   5) C  32                  0.00025     1.53147   
   397. RY*(   6) C  32                  0.00011     3.27440   
   398. RY*(   7) C  32                  0.00006     4.21136   
   399. RY*(   8) C  32                  0.00002     4.88125   
   400. RY*(   9) C  32                  0.00003     1.52730   
   401. RY*(  10) C  32                  0.00002     2.13281   
   402. RY*(  11) C  32                  0.00001     2.12120   
   403. RY*(  12) C  32                  0.00000     2.60404   
   404. RY*(  13) C  32                  0.00000    18.41845   
   405. RY*(   1) H  33                  0.00077     0.44506   
   406. RY*(   2) H  33                  0.00011     2.26210   
   407. RY*(   1) C  34                  0.00310     1.47746   
   408. RY*(   2) C  34                  0.00203     1.34025   
   409. RY*(   3) C  34                  0.00151     1.25724   
   410. RY*(   4) C  34                  0.00091     2.40619   
   411. RY*(   5) C  34                  0.00079     1.23700   
   412. RY*(   6) C  34                  0.00028     1.66308   
   413. RY*(   7) C  34                  0.00025     1.67580   
   414. RY*(   8) C  34                  0.00009     2.91735   
   415. RY*(   9) C  34                  0.00006     2.40163   
   416. RY*(  10) C  34                  0.00002     3.34607   
   417. RY*(  11) C  34                  0.00002     2.59987   
   418. RY*(  12) C  34                  0.00001     2.70339   
   419. RY*(  13) C  34                  0.00001    20.79972   
   420. RY*(   1) H  35                  0.00128     0.46174   
   421. RY*(   2) H  35                  0.00014     2.25832   
   422. RY*(   1) C  36                  0.00326     1.27419   
   423. RY*(   2) C  36                  0.00155     1.52675   
   424. RY*(   3) C  36                  0.00139     1.48487   
   425. RY*(   4) C  36                  0.00081     2.27868   
   426. RY*(   5) C  36                  0.00041     1.89203   
   427. RY*(   6) C  36                  0.00038     1.65712   
   428. RY*(   7) C  36                  0.00020     0.64637   
   429. RY*(   8) C  36                  0.00015     3.46243   
   430. RY*(   9) C  36                  0.00004     2.38940   
   431. RY*(  10) C  36                  0.00004     5.09648   
   432. RY*(  11) C  36                  0.00001    18.37564   
   433. RY*(  12) C  36                  0.00001     2.28399   
   434. RY*(  13) C  36                  0.00000     2.62022   
   435. RY*(   1) H  37                  0.00114     0.39247   
   436. RY*(   2) H  37                  0.00010     2.24401   
   437. RY*(   1) O  38                  0.00083     0.93791   
   438. RY*(   2) O  38                  0.00058     1.39674   
   439. RY*(   3) O  38                  0.00011     1.68464   
   440. RY*(   4) O  38                  0.00008     1.35317   
   441. RY*(   5) O  38                  0.00001     3.52488   
   442. RY*(   6) O  38                  0.00000     5.01591   
   443. RY*(   7) O  38                  0.00001     4.98725   
   444. RY*(   8) O  38                  0.00000     4.76288   
   445. RY*(   9) O  38                  0.00000    49.32654   
   446. RY*(  10) O  38                  0.00000     2.84280   
   447. RY*(  11) O  38                  0.00000     2.70581   
   448. RY*(  12) O  38                  0.00000     2.90545   
   449. RY*(  13) O  38                  0.00000     3.14900   
   450. RY*(   1) H  39                  0.00041     0.99949   
   451. RY*(   2) H  39                  0.00020     1.62013   
   452. RY*(   1) O  40                  0.00169     1.07293   
   453. RY*(   2) O  40                  0.00107     1.17434   
   454. RY*(   3) O  40                  0.00018     1.90437   
   455. RY*(   4) O  40                  0.00010     2.29916   
   456. RY*(   5) O  40                  0.00006     2.78880   
   457. RY*(   6) O  40                  0.00004     2.83779   
   458. RY*(   7) O  40                  0.00001     5.07575   
   459. RY*(   8) O  40                  0.00000     4.98725   
   460. RY*(   9) O  40                  0.00000    49.61406   
   461. RY*(  10) O  40                  0.00000     4.90000   
   462. RY*(  11) O  40                  0.00000     3.02189   
   463. RY*(  12) O  40                  0.00001     3.19229   
   464. RY*(  13) O  40                  0.00000     2.93659   
   465. RY*(   1) C  41                  0.00113     1.40350   
   466. RY*(   2) C  41                  0.00102     1.39552   
   467. RY*(   3) C  41                  0.00068     0.90715   
   468. RY*(   4) C  41                  0.00026     0.98308   
   469. RY*(   5) C  41                  0.00011     1.07415   
   470. RY*(   6) C  41                  0.00004     1.88891   
   471. RY*(   7) C  41                  0.00000    23.16214   
   472. RY*(   8) C  41                  0.00001     2.23406   
   473. RY*(   9) C  41                  0.00001     2.57580   
   474. RY*(  10) C  41                  0.00000     1.69487   
   475. RY*(  11) C  41                  0.00000     1.70679   
   476. RY*(  12) C  41                  0.00000     1.40715   
   477. RY*(  13) C  41                  0.00000     2.66574   
   478. RY*(   1) H  42                  0.00098     0.39358   
   479. RY*(   2) H  42                  0.00006     2.11578   
   480. RY*(   1) H  43                  0.00045     0.37976   
   481. RY*(   2) H  43                  0.00006     2.04472   
   482. RY*(   1) H  44                  0.00100     0.46008   
   483. RY*(   2) H  44                  0.00007     2.07345   
   484. RY*(   1) C  45                  0.00212     1.00387   
   485. RY*(   2) C  45                  0.00163     0.98144   
   486. RY*(   3) C  45                  0.00087     1.16299   
   487. RY*(   4) C  45                  0.00049     0.73042   
   488. RY*(   5) C  45                  0.00017     2.58968   
   489. RY*(   6) C  45                  0.00013     1.96061   
   490. RY*(   7) C  45                  0.00006     2.53129   
   491. RY*(   8) C  45                  0.00004     2.59087   
   492. RY*(   9) C  45                  0.00002     2.02743   
   493. RY*(  10) C  45                  0.00001     2.74225   
   494. RY*(  11) C  45                  0.00001     2.94752   
   495. RY*(  12) C  45                  0.00001     1.57560   
   496. RY*(  13) C  45                  0.00000    22.79689   
   497. RY*(   1) H  46                  0.00197     0.46650   
   498. RY*(   2) H  46                  0.00012     2.28095   
   540. BD*(   1) C   1 - H   2          0.00836     0.43931   
   541. BD*(   1) C   1 - C   3          0.00745     0.64263   
   542. BD*(   2) C   1 - C   3          0.06782     0.03782   
   543. BD*(   1) C   1 - C   7          0.01272     0.49914   
   544. BD*(   1) C   3 - H   4          0.00801     0.44281   
   545. BD*(   1) C   3 - C   5          0.02645     0.45842   
   546. BD*(   1) C   5 - O   6          0.00715     0.56681   
   547. BD*(   2) C   5 - O   6          0.09450     0.01195   
   548. BD*(   1) C   5 - C  45          0.02777     0.46270   
   549. BD*(   1) C   7 - C   8          0.01140     0.56096   
   550. BD*(   2) C   7 - C   8          0.20115     0.02764  555(v),558(v),542(v),181(g)
                                                    207(v),168(g),169(g),112(v)
   551. BD*(   1) C   7 - C   9          0.01311     0.55739   
   552. BD*(   1) C   8 - C  10          0.00689     0.58038   
   553. BD*(   1) C   8 - H  11          0.00682     0.44804   
   554. BD*(   1) C   9 - C  12          0.01220     0.58114   
   555. BD*(   2) C   9 - C  12          0.15787     0.02834  550(v),558(v),542(r),196(g)
                                                    564(v)
   556. BD*(   1) C   9 - H  13          0.00647     0.44664   
   557. BD*(   1) C  10 - C  14          0.01305     0.55309   
   558. BD*(   2) C  10 - C  14          0.19170     0.01728  550(v),555(v),241(g),207(g)
                                                    209(g)
   559. BD*(   1) C  10 - H  15          0.00675     0.43383   
   560. BD*(   1) C  12 - C  14          0.02304     0.52109   
   561. BD*(   1) C  12 - O  18          0.01404     0.36273   
   562. BD*(   1) C  14 - O  16          0.01092     0.34964   
   563. BD*(   1) O  16 - H  17          0.00370     0.38164   
   564. BD*(   1) O  18 - C  19          0.00521     0.28383   
   565. BD*(   1) C  19 - H  20          0.00852     0.39480   
   566. BD*(   1) C  19 - H  21          0.00443     0.40975   
   567. BD*(   1) C  19 - H  22          0.00916     0.40722   
   568. BD*(   1) C  23 - H  24          0.00797     0.44569   
   569. BD*(   1) C  23 - C  25          0.00721     0.63353   
   570. BD*(   2) C  23 - C  25          0.07296     0.03721   
   571. BD*(   1) C  23 - C  29          0.01234     0.50349   
   572. BD*(   1) C  25 - H  26          0.00827     0.43996   
   573. BD*(   1) C  25 - C  27          0.02232     0.47930   
   574. BD*(   1) C  27 - O  28          0.01048     0.52664   
   575. BD*(   2) C  27 - O  28          0.11927     0.00607  570(v),104(v),574(g),341(g)
                                                    330(g),547(r)
   576. BD*(   1) C  27 - C  45          0.02313     0.44478   
   577. BD*(   1) C  29 - C  30          0.01147     0.55712   
   578. BD*(   2) C  29 - C  30          0.20263     0.02597  583(v),586(v),570(v),368(g)
                                                    394(v),355(g),356(g),299(v)
   579. BD*(   1) C  29 - C  31          0.01322     0.55390   
   580. BD*(   1) C  30 - C  32          0.00684     0.58044   
   581. BD*(   1) C  30 - H  33          0.00673     0.44806   
   582. BD*(   1) C  31 - C  34          0.01217     0.58094   
   583. BD*(   2) C  31 - C  34          0.15454     0.02770  578(v),586(v),570(r),383(g)
                                                    592(v)
   584. BD*(   1) C  31 - H  35          0.00636     0.44644   
   585. BD*(   1) C  32 - C  36          0.01308     0.55020   
   586. BD*(   2) C  32 - C  36          0.19134     0.01549  578(v),583(v),394(g),428(g)
                                                    396(g)
   587. BD*(   1) C  32 - H  37          0.00676     0.43275   
   588. BD*(   1) C  34 - C  36          0.02317     0.51825   
   589. BD*(   1) C  34 - O  40          0.01403     0.36243   
   590. BD*(   1) C  36 - O  38          0.01085     0.34992   
   591. BD*(   1) O  38 - H  39          0.00374     0.37998   
   592. BD*(   1) O  40 - C  41          0.00521     0.28307   
   593. BD*(   1) C  41 - H  42          0.00845     0.39508   
   594. BD*(   1) C  41 - H  43          0.00442     0.40993   
   595. BD*(   1) C  41 - H  44          0.00912     0.40690   
   596. BD*(   1) C  45 - H  46          0.00530     0.43531   
       -------------------------------
              Total Lewis   93.73046  ( 97.6660%)
        Valence non-Lewis    2.06015  (  2.1467%)
        Rydberg non-Lewis    0.17983  (  0.1874%)
       -------------------------------
            Total unit  1   95.97044  (100.0000%)
           Charge unit  1    0.52956
 
 Molecular unit  2  (HNO2)
    58. BD (   1) H  47 - O  48          0.99461    -0.76176  600(v),530(v),598(g),574(r)
    59. BD (   1) O  48 - N  50          0.99730    -0.84384  514(v),342(r)
    60. BD (   1) O  49 - N  50          0.99956    -0.46146  599(g),503(v)
    61. BD (   2) O  49 - N  50          0.99845    -1.14364  501(v),597(v),528(g)
    89. CR (   1) O  48                  0.99988   -18.98056  499(v),530(v),500(v)
    90. CR (   1) O  49                  0.99989   -18.97038  528(v)
    91. CR (   1) N  50                  0.99990   -14.34776  516(v)
   105. LP (   1) O  48                  0.99610    -0.66800  499(v),500(v),600(v),531(v)
                                                    527(v),574(r),340(r)
   106. LP (   2) O  48                  0.88658    -0.32787  599(v),529(v),538(v),497(r)
                                                    596(r)
   107. LP (   1) O  49                  0.99667    -0.78741  528(v)
   108. LP (   2) O  49                  0.93121    -0.31955  598(v),527(v),532(v),597(r)
                                                    528(v)
   109. LP (   1) N  50                  0.99813    -0.54143  514(v)
   499. RY*(   1) H  47                  0.00350     0.79689   
   500. RY*(   2) H  47                  0.00049     1.95388   
   501. RY*(   1) O  48                  0.00124     1.28084   
   502. RY*(   2) O  48                  0.00066     1.26479   
   503. RY*(   3) O  48                  0.00039     1.04212   
   504. RY*(   4) O  48                  0.00012     1.88543   
   505. RY*(   5) O  48                  0.00002     2.89387   
   506. RY*(   6) O  48                  0.00000     4.59975   
   507. RY*(   7) O  48                  0.00001     4.54111   
   508. RY*(   8) O  48                  0.00000     4.84742   
   509. RY*(   9) O  48                  0.00000     3.08465   
   510. RY*(  10) O  48                  0.00000     3.00344   
   511. RY*(  11) O  48                  0.00000     2.87322   
   512. RY*(  12) O  48                  0.00000     2.67817   
   513. RY*(  13) O  48                  0.00000    49.45222   
   514. RY*(   1) O  49                  0.00246     1.01133   
   515. RY*(   2) O  49                  0.00047     0.95658   
   516. RY*(   3) O  49                  0.00012     1.51070   
   517. RY*(   4) O  49                  0.00003     3.16259   
   518. RY*(   5) O  49                  0.00001     1.64818   
   519. RY*(   6) O  49                  0.00000     4.68317   
   520. RY*(   7) O  49                  0.00000     4.66008   
   521. RY*(   8) O  49                  0.00000     4.78377   
   522. RY*(   9) O  49                  0.00000     2.88054   
   523. RY*(  10) O  49                  0.00001     2.92437   
   524. RY*(  11) O  49                  0.00000     2.83254   
   525. RY*(  12) O  49                  0.00000     2.90171   
   526. RY*(  13) O  49                  0.00000    49.68392   
   527. RY*(   1) N  50                  0.00685     1.22883   
   528. RY*(   2) N  50                  0.00346     0.80382   
   529. RY*(   3) N  50                  0.00160     2.01504   
   530. RY*(   4) N  50                  0.00054     1.17825   
   531. RY*(   5) N  50                  0.00046     3.20732   
   532. RY*(   6) N  50                  0.00004     2.47451   
   533. RY*(   7) N  50                  0.00000    34.99760   
   534. RY*(   8) N  50                  0.00000     3.20387   
   535. RY*(   9) N  50                  0.00000     2.43631   
   536. RY*(  10) N  50                  0.00000     3.06044   
   537. RY*(  11) N  50                  0.00000     1.95646   
   538. RY*(  12) N  50                  0.00001     0.88569   
   539. RY*(  13) N  50                  0.00000     3.42984   
   597. BD*(   1) H  47 - O  48          0.03270     0.38056   
   598. BD*(   1) O  48 - N  50          0.06050     0.21159   
   599. BD*(   1) O  49 - N  50          0.11022    -0.07264  515(g),529(g),525(g),104(r)
   600. BD*(   2) O  49 - N  50          0.00532     0.56642   
       -------------------------------
              Total Lewis   11.79829  ( 98.0776%)
        Valence non-Lewis    0.20874  (  1.7352%)
        Rydberg non-Lewis    0.02251  (  0.1872%)
       -------------------------------
            Total unit  2   12.02955  (100.0000%)
           Charge unit  2   -0.02955
 1\1\GINC-N01\SP\UB3LYP\6-311G(d)\C21H20N1O8(2)\UNKNOWN\07-Nov-2024\0\\
 # pop=nbo b3lyp/6-311g(d) scrf=(smd,solvent=generic,read) temperature=
 298.15 Geom=Check Guess=Read\\Reagente 1\\0,2\C,0,-2.6489202243,0.1469
 092182,-0.2893021511\H,0,-2.3566389851,0.7286647733,-1.1596396213\C,0,
 -1.7855770743,0.0337008975,0.7431623244\H,0,-2.0444705976,-0.549508355
 8,1.622046031\C,0,-0.4320295273,0.6057678666,0.8285202895\O,0,0.280396
 269,0.3474381318,1.807251588\C,0,-3.9756506123,-0.4432167938,-0.395009
 9395\C,0,-4.7291345682,-0.2061866579,-1.5561162298\C,0,-4.548199323,-1
 .252372153,0.6071145533\C,0,-6.0015529993,-0.7410804141,-1.7073328153\
 H,0,-4.3137870701,0.4101872619,-2.3467031656\C,0,-5.8156063219,-1.7911
 680437,0.4712716211\H,0,-4.0154226816,-1.4678893788,1.5263221801\C,0,-
 6.5607949343,-1.5293211366,-0.701101576\H,0,-6.5760313005,-0.539078358
 2,-2.6071532066\O,0,-7.8082608132,-2.0545174385,-0.7843867575\H,0,-8.2
 153393009,-1.800373022,-1.6247626618\O,0,-6.3492197127,-2.5132027099,1
 .5049486804\C,0,-6.5341540751,-3.9160825701,1.2576081645\H,0,-5.581933
 1391,-4.3907184265,0.9991721012\H,0,-6.906496062,-4.3393845702,2.19001
 73572\H,0,-7.2618605459,-4.0904893537,0.463130644\C,0,2.7520429465,0.0
 804080632,-0.0208205157\H,0,1.8538075582,-0.5272778942,-0.0127702637\C
 ,0,2.6197254635,1.4217157218,-0.1477305097\H,0,3.4864478634,2.07377000
 62,-0.1956979742\C,0,1.3643273516,2.12253159,-0.3423462398\O,0,1.38868
 32141,3.3300096187,-0.6617463238\C,0,3.9843360091,-0.6756520298,0.0961
 020902\C,0,3.9058281599,-2.0748657754,0.2038777781\C,0,5.265106831,-0.
 084561662,0.1002484081\C,0,5.0504306715,-2.8498244746,0.3225283882\H,0
 ,2.9339271261,-2.5569279172,0.2018655426\C,0,6.4147425292,-0.843763070
 3,0.2196832934\H,0,5.3883631775,0.9894217885,0.023104005\C,0,6.3105957
 214,-2.2493936154,0.3381296808\H,0,4.972663621,-3.9294669429,0.4164530
 862\O,0,7.4590039262,-2.9536354743,0.4771457792\H,0,7.2588395485,-3.89
 74651484,0.5545766804\O,0,7.6284977843,-0.2149941216,0.2873747237\C,0,
 8.4976797521,-0.4114169546,-0.839790991\H,0,8.0151330444,-0.0722246797
 ,-1.7620809035\H,0,9.379957808,0.1986455934,-0.6489825521\H,0,8.793713
 7688,-1.4571116096,-0.9400488791\C,0,0.0348676396,1.4951103888,-0.2346
 668753\H,0,-0.6942332095,1.9015001733,-0.9258519326\H,0,0.0652124754,4
 .2997299645,-1.0577539265\O,0,-0.6960179467,4.8778183828,-1.3348800109
 \O,0,-2.1569816389,6.0505039641,-0.3205940668\N,0,-1.2321025968,5.3361
 593483,-0.1431149015\\Version=ES64L-G16RevA.03\State=2-A\HF=-1468.9901
 815\S2=0.761815\S2-1=0.\S2A=0.750098\RMSD=7.948e-09\Dipole=0.0758013,-
 5.0288755,-2.3152611\Quadrupole=32.9560203,-20.9127014,-12.0433189,-1.
 1656289,9.6411138,1.5301721\PG=C01 [X(C21H20N1O8)]\\@


 A CHEMICAL PHYSICIST MAKES PRECISE MEASUREMENTS ON IMPURE COMPOUNDS.
 A THEORETICAL PHYSICAL CHEMIST MAKES IMPRECISE
     MEASUREMENTS ON PURE COMPOUNDS.
 AN EXPERIMENTAL PHYSICAL CHEMIST MAKES IMPRECISE
     MEASUREMENTS ON IMPURE COMPOUNDS.
 Job cpu time:       0 days  0 hours  1 minutes 38.6 seconds.
 Elapsed time:       0 days  0 hours  1 minutes 44.7 seconds.
 File lengths (MBytes):  RWF=    662 Int=      0 D2E=      0 Chk=     69 Scr=      1
 Normal termination of Gaussian 16 at Thu Nov  7 10:20:06 2024.
