 Entering Gaussian System, Link 0=g16
 Initial command:
 /sw/cluster/pub/apps//g16/l1.exe "/data/natrosa/25421/Gau-1558180.inp" -scrdir="/data/natrosa/25421/"
 Entering Link 1 = /sw/cluster/pub/apps//g16/l1.exe PID=   1558181.
  
 Copyright (c) 1988,1990,1992,1993,1995,1998,2003,2009,2016,
            Gaussian, Inc.  All Rights Reserved.
  
 This is part of the Gaussian(R) 16 program.  It is based on
 the Gaussian(R) 09 system (copyright 2009, Gaussian, Inc.),
 the Gaussian(R) 03 system (copyright 2003, Gaussian, Inc.),
 the Gaussian(R) 98 system (copyright 1998, Gaussian, Inc.),
 the Gaussian(R) 94 system (copyright 1995, Gaussian, Inc.),
 the Gaussian 92(TM) system (copyright 1992, Gaussian, Inc.),
 the Gaussian 90(TM) system (copyright 1990, Gaussian, Inc.),
 the Gaussian 88(TM) system (copyright 1988, Gaussian, Inc.),
 the Gaussian 86(TM) system (copyright 1986, Carnegie Mellon
 University), and the Gaussian 82(TM) system (copyright 1983,
 Carnegie Mellon University). Gaussian is a federally registered
 trademark of Gaussian, Inc.
  
 This software contains proprietary and confidential information,
 including trade secrets, belonging to Gaussian, Inc.
  
 This software is provided under written license and may be
 used, copied, transmitted, or stored only in accord with that
 written license.
  
 The following legend is applicable only to US Government
 contracts under FAR:
  
                    RESTRICTED RIGHTS LEGEND
  
 Use, reproduction and disclosure by the US Government is
 subject to restrictions as set forth in subparagraphs (a)
 and (c) of the Commercial Computer Software - Restricted
 Rights clause in FAR 52.227-19.
  
 Gaussian, Inc.
 340 Quinnipiac St., Bldg. 40, Wallingford CT 06492
  
  
 ---------------------------------------------------------------
 Warning -- This program may not be used in any manner that
 competes with the business of Gaussian, Inc. or will provide
 assistance to any competitor of Gaussian, Inc.  The licensee
 of this program is prohibited from giving any competitor of
 Gaussian, Inc. access to this program.  By using this program,
 the user acknowledges that Gaussian, Inc. is engaged in the
 business of creating and licensing software in the field of
 computational chemistry and represents and warrants to the
 licensee that it is not a competitor of Gaussian, Inc. and that
 it will not use this program in any manner prohibited above.
 ---------------------------------------------------------------
  

 Cite this work as:
 Gaussian 16, Revision A.03,
 M. J. Frisch, G. W. Trucks, H. B. Schlegel, G. E. Scuseria, 
 M. A. Robb, J. R. Cheeseman, G. Scalmani, V. Barone, 
 G. A. Petersson, H. Nakatsuji, X. Li, M. Caricato, A. V. Marenich, 
 J. Bloino, B. G. Janesko, R. Gomperts, B. Mennucci, H. P. Hratchian, 
 J. V. Ortiz, A. F. Izmaylov, J. L. Sonnenberg, D. Williams-Young, 
 F. Ding, F. Lipparini, F. Egidi, J. Goings, B. Peng, A. Petrone, 
 T. Henderson, D. Ranasinghe, V. G. Zakrzewski, J. Gao, N. Rega, 
 G. Zheng, W. Liang, M. Hada, M. Ehara, K. Toyota, R. Fukuda, 
 J. Hasegawa, M. Ishida, T. Nakajima, Y. Honda, O. Kitao, H. Nakai, 
 T. Vreven, K. Throssell, J. A. Montgomery, Jr., J. E. Peralta, 
 F. Ogliaro, M. J. Bearpark, J. J. Heyd, E. N. Brothers, K. N. Kudin, 
 V. N. Staroverov, T. A. Keith, R. Kobayashi, J. Normand, 
 K. Raghavachari, A. P. Rendell, J. C. Burant, S. S. Iyengar, 
 J. Tomasi, M. Cossi, J. M. Millam, M. Klene, C. Adamo, R. Cammi, 
 J. W. Ochterski, R. L. Martin, K. Morokuma, O. Farkas, 
 J. B. Foresman, and D. J. Fox, Gaussian, Inc., Wallingford CT, 2016.
 
 ******************************************
 Gaussian 16:  ES64L-G16RevA.03 25-Dec-2016
                 7-Nov-2024 
 ******************************************
 %oldchk=/home/natrosa/MOSSRI/REACAO-2/B3LYP-6-31G-D/CURCUMIN-OPT-FREQ-Reag-B3LYP
 -6-311G-D-298.chk
 %chk=CURCUMIN-Reag-2-B3LYP-6-311G-D-298-NBO.chk
 Copying data from "/home/natrosa/MOSSRI/REACAO-2/B3LYP-6-31G-D/CURCUMIN-OPT-FREQ-Reag-B3LYP-6-311G-D-298.chk" to current chk file "CURCUMIN-Reag-2-B3LYP-6-311G-D-298-NBO.chk"
 IOpt=  2 FromEx=T IUOpen= 4 IOptOp= 5 NList=   0 IFRang= 0 IUIn= 4 IUOut= 2.
 ----------------------------------------------------------------------
 # pop=nbo b3lyp/6-311g(d) scrf=(smd,solvent=generic,read) temperature=
 298.15 Geom=Check Guess=Read
 ----------------------------------------------------------------------
 1/29=2,38=1,40=2,112=298150,172=1/1;
 2/12=2,40=1/2;
 3/5=4,6=6,7=1,11=2,14=-4,25=1,30=1,70=32203,72=-2,74=-5,116=-2/1,2,3;
 4/5=1/1;
 5/5=2,38=6/2;
 6/7=2,8=2,9=2,10=2,28=1,40=1/1,7;
 99/5=1,9=1/99;
 ----------
 Reagente 1
 ----------
 Structure from the checkpoint file:  "CURCUMIN-Reag-2-B3LYP-6-311G-D-298-NBO.chk"
 Charge =  0 Multiplicity = 2
 Redundant internal coordinates found in file.  (old form).
 C,0,-2.6841049157,0.1336107802,-0.3406136542
 H,0,-2.2805937987,0.5180860226,-1.2742982993
 C,0,-1.9437189777,0.2637019597,0.7793564276
 H,0,-2.3047330289,-0.0882925137,1.7415721697
 C,0,-0.611956724,0.8812957703,0.8515602694
 O,0,-0.0402131145,0.9858305934,1.926885171
 C,0,-4.0038257951,-0.472777886,-0.4659801743
 C,0,-4.6306341316,-0.4770637547,-1.7217198185
 C,0,-4.687443463,-1.0690510469,0.6120956819
 C,0,-5.8901384433,-1.0377201449,-1.8940356494
 H,0,-4.1281257247,-0.0282887035,-2.5724227452
 C,0,-5.942312428,-1.6322018147,0.4557808097
 H,0,-4.2529244597,-1.0972129023,1.6049271211
 C,0,-6.5606582694,-1.6129745676,-0.8145848765
 H,0,-6.3664251452,-1.0209554776,-2.8707490571
 O,0,-7.8013610709,-2.1530763103,-0.9185688729
 H,0,-8.1162964584,-2.0749278141,-1.8301897572
 O,0,-6.5884235249,-2.140991628,1.551057293
 C,0,-6.757044088,-3.5672169865,1.5676549581
 H,0,-5.7861342536,-4.0709169155,1.5175294863
 H,0,-7.2367797783,-3.8030569148,2.51713633
 H,0,-7.3915137448,-3.9053419896,0.7463860389
 C,0,2.7702027191,0.0839162234,-0.1570714393
 H,0,1.887841671,-0.5323917578,-0.3110919184
 C,0,2.6154781933,1.4215569324,-0.0755205663
 H,0,3.4645593051,2.0786237438,0.0894117683
 C,0,1.3405221503,2.1366957092,-0.1826832845
 O,0,1.3173664499,3.358218807,-0.0791365924
 C,0,4.0126623758,-0.6718255408,-0.0588193405
 C,0,3.9682165216,-2.0691633751,-0.183734691
 C,0,5.2702309399,-0.0703729275,0.1457380799
 C,0,5.1241077905,-2.8352778202,-0.098054103
 H,0,3.0149033076,-2.5623449891,-0.3441650907
 C,0,6.4301017131,-0.8203751734,0.2357035077
 H,0,5.366716344,1.0039156276,0.2531347167
 C,0,6.3604604786,-2.2266272029,0.1183075258
 H,0,5.0707391005,-3.91693429,-0.1884776726
 O,0,7.5171558581,-2.9266612611,0.2381103698
 H,0,7.3371639287,-3.8728007238,0.1448874485
 O,0,7.6156954103,-0.1884909362,0.5028758788
 C,0,8.5742158589,-0.1846326594,-0.5664516293
 H,0,8.1565973984,0.295810609,-1.4573749461
 H,0,9.4232344926,0.3968590945,-0.2081110063
 H,0,8.9043589555,-1.1955251941,-0.8124919353
 C,0,0.0424582623,1.3810555211,-0.4409118976
 H,0,0.1910465425,0.5328452131,-1.1150580734
 H,0,-0.6389412459,2.0693690613,-0.9450073701
 O,0,-1.4523470568,4.6986767385,-1.0838352159
 O,0,-0.438566675,5.9453182254,0.4126906494
 N,0,-0.9322464517,4.9573665898,-0.0371250241
 Recover connectivity data from disk.
                           ----------------------------
                           !    Current Parameters    !
                           ! (Angstroms and Degrees)  !
 --------------------------                            --------------------------
 ! Name  Definition              Value                                          !
 --------------------------------------------------------------------------------
 ! R1    R(1,2)                  1.0874                                         !
 ! R2    R(1,3)                  1.3489                                         !
 ! R3    R(1,7)                  1.4578                                         !
 ! R4    R(3,4)                  1.0863                                         !
 ! R5    R(3,5)                  1.4698                                         !
 ! R6    R(5,6)                  1.2224                                         !
 ! R7    R(5,45)                 1.5325                                         !
 ! R8    R(7,8)                  1.4035                                         !
 ! R9    R(7,9)                  1.4089                                         !
 ! R10   R(8,10)                 1.3894                                         !
 ! R11   R(8,11)                 1.0852                                         !
 ! R12   R(9,12)                 1.3843                                         !
 ! R13   R(9,13)                 1.0841                                         !
 ! R14   R(10,14)                1.3949                                         !
 ! R15   R(10,15)                1.0868                                         !
 ! R16   R(12,14)                1.413                                          !
 ! R17   R(12,18)                1.3697                                         !
 ! R18   R(14,16)                1.3572                                         !
 ! R19   R(16,17)                0.9676                                         !
 ! R20   R(18,19)                1.4363                                         !
 ! R21   R(19,20)                1.0949                                         !
 ! R22   R(19,21)                1.0896                                         !
 ! R23   R(19,22)                1.0915                                         !
 ! R24   R(23,24)                1.0873                                         !
 ! R25   R(23,25)                1.349                                          !
 ! R26   R(23,29)                1.4576                                         !
 ! R27   R(25,26)                1.0862                                         !
 ! R28   R(25,27)                1.4657                                         !
 ! R29   R(27,28)                1.2261                                         !
 ! R30   R(27,45)                1.524                                          !
 ! R31   R(29,30)                1.4036                                         !
 ! R32   R(29,31)                1.4089                                         !
 ! R33   R(30,32)                1.3894                                         !
 ! R34   R(30,33)                1.0853                                         !
 ! R35   R(31,34)                1.3842                                         !
 ! R36   R(31,35)                1.0839                                         !
 ! R37   R(32,36)                1.3949                                         !
 ! R38   R(32,37)                1.0867                                         !
 ! R39   R(34,36)                1.4129                                         !
 ! R40   R(34,40)                1.3698                                         !
 ! R41   R(36,38)                1.3573                                         !
 ! R42   R(38,39)                0.9676                                         !
 ! R43   R(40,41)                1.436                                          !
 ! R44   R(41,42)                1.095                                          !
 ! R45   R(41,43)                1.0897                                         !
 ! R46   R(41,44)                1.0915                                         !
 ! R47   R(45,46)                1.0936                                         !
 ! R48   R(45,47)                1.0919                                         !
 ! R49   R(47,48)                2.7558                                         !
 ! R50   R(48,50)                1.1971                                         !
 ! R51   R(49,50)                1.1925                                         !
 ! A1    A(2,1,3)              118.3695                                         !
 ! A2    A(2,1,7)              114.1532                                         !
 ! A3    A(3,1,7)              127.4769                                         !
 ! A4    A(1,3,4)              121.4522                                         !
 ! A5    A(1,3,5)              125.3572                                         !
 ! A6    A(4,3,5)              113.1889                                         !
 ! A7    A(3,5,6)              120.1969                                         !
 ! A8    A(3,5,45)             118.8508                                         !
 ! A9    A(6,5,45)             120.9516                                         !
 ! A10   A(1,7,8)              118.8507                                         !
 ! A11   A(1,7,9)              123.332                                          !
 ! A12   A(8,7,9)              117.8157                                         !
 ! A13   A(7,8,10)             121.1351                                         !
 ! A14   A(7,8,11)             119.5598                                         !
 ! A15   A(10,8,11)            119.3033                                         !
 ! A16   A(7,9,12)             121.7085                                         !
 ! A17   A(7,9,13)             121.1486                                         !
 ! A18   A(12,9,13)            117.1405                                         !
 ! A19   A(8,10,14)            120.4111                                         !
 ! A20   A(8,10,15)            120.1671                                         !
 ! A21   A(14,10,15)           119.418                                          !
 ! A22   A(9,12,14)            119.5173                                         !
 ! A23   A(9,12,18)            119.2387                                         !
 ! A24   A(14,12,18)           121.1695                                         !
 ! A25   A(10,14,12)           119.4062                                         !
 ! A26   A(10,14,16)           122.9754                                         !
 ! A27   A(12,14,16)           117.6154                                         !
 ! A28   A(14,16,17)           109.7295                                         !
 ! A29   A(12,18,19)           115.6901                                         !
 ! A30   A(18,19,20)           110.6207                                         !
 ! A31   A(18,19,21)           106.0627                                         !
 ! A32   A(18,19,22)           111.541                                          !
 ! A33   A(20,19,21)           109.3129                                         !
 ! A34   A(20,19,22)           109.7847                                         !
 ! A35   A(21,19,22)           109.4313                                         !
 ! A36   A(24,23,25)           118.5254                                         !
 ! A37   A(24,23,29)           114.043                                          !
 ! A38   A(25,23,29)           127.4314                                         !
 ! A39   A(23,25,26)           121.2873                                         !
 ! A40   A(23,25,27)           125.3891                                         !
 ! A41   A(26,25,27)           113.322                                          !
 ! A42   A(25,27,28)           119.757                                          !
 ! A43   A(25,27,45)           120.7534                                         !
 ! A44   A(28,27,45)           119.4842                                         !
 ! A45   A(23,29,30)           118.8937                                         !
 ! A46   A(23,29,31)           123.3186                                         !
 ! A47   A(30,29,31)           117.7856                                         !
 ! A48   A(29,30,32)           121.1388                                         !
 ! A49   A(29,30,33)           119.5629                                         !
 ! A50   A(32,30,33)           119.2973                                         !
 ! A51   A(29,31,34)           121.7403                                         !
 ! A52   A(29,31,35)           121.1259                                         !
 ! A53   A(34,31,35)           117.1286                                         !
 ! A54   A(30,32,36)           120.4205                                         !
 ! A55   A(30,32,37)           120.1883                                         !
 ! A56   A(36,32,37)           119.3879                                         !
 ! A57   A(31,34,36)           119.5121                                         !
 ! A58   A(31,34,40)           119.2097                                         !
 ! A59   A(36,34,40)           121.1993                                         !
 ! A60   A(32,36,34)           119.3974                                         !
 ! A61   A(32,36,38)           122.9537                                         !
 ! A62   A(34,36,38)           117.645                                          !
 ! A63   A(36,38,39)           109.711                                          !
 ! A64   A(34,40,41)           115.7039                                         !
 ! A65   A(40,41,42)           110.6388                                         !
 ! A66   A(40,41,43)           106.0587                                         !
 ! A67   A(40,41,44)           111.5456                                         !
 ! A68   A(42,41,43)           109.3046                                         !
 ! A69   A(42,41,44)           109.7739                                         !
 ! A70   A(43,41,44)           109.4317                                         !
 ! A71   A(5,45,27)            112.489                                          !
 ! A72   A(5,45,46)            108.9643                                         !
 ! A73   A(5,45,47)            109.1752                                         !
 ! A74   A(27,45,46)           111.9181                                         !
 ! A75   A(27,45,47)           107.2895                                         !
 ! A76   A(46,45,47)           106.8058                                         !
 ! A77   A(45,47,48)           143.9917                                         !
 ! A78   A(47,48,50)            91.9423                                         !
 ! A79   A(48,50,49)           133.5276                                         !
 ! D1    D(2,1,3,4)            179.0277                                         !
 ! D2    D(2,1,3,5)             -0.4599                                         !
 ! D3    D(7,1,3,4)             -0.7329                                         !
 ! D4    D(7,1,3,5)            179.7794                                         !
 ! D5    D(2,1,7,8)             -1.6016                                         !
 ! D6    D(2,1,7,9)            177.9244                                         !
 ! D7    D(3,1,7,8)            178.1675                                         !
 ! D8    D(3,1,7,9)             -2.3065                                         !
 ! D9    D(1,3,5,6)            177.798                                          !
 ! D10   D(1,3,5,45)            -2.5057                                         !
 ! D11   D(4,3,5,6)             -1.7265                                         !
 ! D12   D(4,3,5,45)           177.9698                                         !
 ! D13   D(3,5,45,27)          173.3671                                         !
 ! D14   D(3,5,45,46)          -61.921                                          !
 ! D15   D(3,5,45,47)           54.3859                                         !
 ! D16   D(6,5,45,27)           -6.939                                          !
 ! D17   D(6,5,45,46)          117.7729                                         !
 ! D18   D(6,5,45,47)         -125.9202                                         !
 ! D19   D(1,7,8,10)          -179.7635                                         !
 ! D20   D(1,7,8,11)            -0.2558                                         !
 ! D21   D(9,7,8,10)             0.6842                                         !
 ! D22   D(9,7,8,11)          -179.808                                          !
 ! D23   D(1,7,9,12)           179.817                                          !
 ! D24   D(1,7,9,13)             0.3845                                         !
 ! D25   D(8,7,9,12)            -0.6524                                         !
 ! D26   D(8,7,9,13)           179.9151                                         !
 ! D27   D(7,8,10,14)           -0.0742                                         !
 ! D28   D(7,8,10,15)          179.2069                                         !
 ! D29   D(11,8,10,14)        -179.5832                                         !
 ! D30   D(11,8,10,15)          -0.3021                                         !
 ! D31   D(7,9,12,14)            0.0104                                         !
 ! D32   D(7,9,12,18)         -176.8873                                         !
 ! D33   D(13,9,12,14)         179.4646                                         !
 ! D34   D(13,9,12,18)           2.5669                                         !
 ! D35   D(8,10,14,12)          -0.5855                                         !
 ! D36   D(8,10,14,16)         178.7685                                         !
 ! D37   D(15,10,14,12)       -179.872                                          !
 ! D38   D(15,10,14,16)         -0.518                                          !
 ! D39   D(9,12,14,10)           0.6152                                         !
 ! D40   D(9,12,14,16)        -178.7732                                         !
 ! D41   D(18,12,14,10)        177.4513                                         !
 ! D42   D(18,12,14,16)         -1.9371                                         !
 ! D43   D(9,12,18,19)        -112.2189                                         !
 ! D44   D(14,12,18,19)         70.9363                                         !
 ! D45   D(10,14,16,17)          0.3144                                         !
 ! D46   D(12,14,16,17)        179.6793                                         !
 ! D47   D(12,18,19,20)         58.8178                                         !
 ! D48   D(12,18,19,21)        177.2466                                         !
 ! D49   D(12,18,19,22)        -63.6856                                         !
 ! D50   D(24,23,25,26)        179.272                                          !
 ! D51   D(24,23,25,27)         -0.246                                          !
 ! D52   D(29,23,25,26)         -0.5669                                         !
 ! D53   D(29,23,25,27)        179.9152                                         !
 ! D54   D(24,23,29,30)          0.7998                                         !
 ! D55   D(24,23,29,31)       -179.7458                                         !
 ! D56   D(25,23,29,30)       -179.3552                                         !
 ! D57   D(25,23,29,31)          0.0991                                         !
 ! D58   D(23,25,27,28)        179.2472                                         !
 ! D59   D(23,25,27,45)         -1.6                                            !
 ! D60   D(26,25,27,28)         -0.3042                                         !
 ! D61   D(26,25,27,45)        178.8486                                         !
 ! D62   D(25,27,45,5)          86.757                                          !
 ! D63   D(25,27,45,46)        -36.3159                                         !
 ! D64   D(25,27,45,47)       -153.1652                                         !
 ! D65   D(28,27,45,5)         -94.0879                                         !
 ! D66   D(28,27,45,46)        142.8392                                         !
 ! D67   D(28,27,45,47)         25.9899                                         !
 ! D68   D(23,29,30,32)        179.9832                                         !
 ! D69   D(23,29,30,33)         -0.3846                                         !
 ! D70   D(31,29,30,32)          0.4985                                         !
 ! D71   D(31,29,30,33)       -179.8692                                         !
 ! D72   D(23,29,31,34)        179.9197                                         !
 ! D73   D(23,29,31,35)          0.7704                                         !
 ! D74   D(30,29,31,34)         -0.6203                                         !
 ! D75   D(30,29,31,35)       -179.7696                                         !
 ! D76   D(29,30,32,36)          0.1405                                         !
 ! D77   D(29,30,32,37)        179.4728                                         !
 ! D78   D(33,30,32,36)       -179.4927                                         !
 ! D79   D(33,30,32,37)         -0.1605                                         !
 ! D80   D(29,31,34,36)          0.1018                                         !
 ! D81   D(29,31,34,40)       -176.7071                                         !
 ! D82   D(35,31,34,36)        179.2835                                         !
 ! D83   D(35,31,34,40)          2.4746                                         !
 ! D84   D(30,32,36,34)         -0.6715                                         !
 ! D85   D(30,32,36,38)        178.5964                                         !
 ! D86   D(37,32,36,34)        179.9909                                         !
 ! D87   D(37,32,36,38)         -0.7411                                         !
 ! D88   D(31,34,36,32)          0.5503                                         !
 ! D89   D(31,34,36,38)       -178.7563                                         !
 ! D90   D(40,34,36,32)        177.294                                          !
 ! D91   D(40,34,36,38)         -2.0126                                         !
 ! D92   D(31,34,40,41)       -112.2504                                         !
 ! D93   D(36,34,40,41)         70.9963                                         !
 ! D94   D(32,36,38,39)          0.3676                                         !
 ! D95   D(34,36,38,39)        179.6476                                         !
 ! D96   D(34,40,41,42)         58.6036                                         !
 ! D97   D(34,40,41,43)        177.0297                                         !
 ! D98   D(34,40,41,44)        -63.902                                          !
 ! D99   D(5,45,47,48)          86.0647                                         !
 ! D100  D(27,45,47,48)        -36.1019                                         !
 ! D101  D(46,45,47,48)       -156.2606                                         !
 ! D102  D(45,47,48,50)        -15.5683                                         !
 ! D103  D(47,48,50,49)        149.7421                                         !
 --------------------------------------------------------------------------------
                          Input orientation:                          
 ---------------------------------------------------------------------
 Center     Atomic      Atomic             Coordinates (Angstroms)
 Number     Number       Type             X           Y           Z
 ---------------------------------------------------------------------
      1          6           0       -2.684105    0.133611   -0.340614
      2          1           0       -2.280594    0.518086   -1.274298
      3          6           0       -1.943719    0.263702    0.779356
      4          1           0       -2.304733   -0.088293    1.741572
      5          6           0       -0.611957    0.881296    0.851560
      6          8           0       -0.040213    0.985831    1.926885
      7          6           0       -4.003826   -0.472778   -0.465980
      8          6           0       -4.630634   -0.477064   -1.721720
      9          6           0       -4.687443   -1.069051    0.612096
     10          6           0       -5.890138   -1.037720   -1.894036
     11          1           0       -4.128126   -0.028289   -2.572423
     12          6           0       -5.942312   -1.632202    0.455781
     13          1           0       -4.252924   -1.097213    1.604927
     14          6           0       -6.560658   -1.612975   -0.814585
     15          1           0       -6.366425   -1.020955   -2.870749
     16          8           0       -7.801361   -2.153076   -0.918569
     17          1           0       -8.116296   -2.074928   -1.830190
     18          8           0       -6.588424   -2.140992    1.551057
     19          6           0       -6.757044   -3.567217    1.567655
     20          1           0       -5.786134   -4.070917    1.517529
     21          1           0       -7.236780   -3.803057    2.517136
     22          1           0       -7.391514   -3.905342    0.746386
     23          6           0        2.770203    0.083916   -0.157071
     24          1           0        1.887842   -0.532392   -0.311092
     25          6           0        2.615478    1.421557   -0.075521
     26          1           0        3.464559    2.078624    0.089412
     27          6           0        1.340522    2.136696   -0.182683
     28          8           0        1.317366    3.358219   -0.079137
     29          6           0        4.012662   -0.671826   -0.058819
     30          6           0        3.968217   -2.069163   -0.183735
     31          6           0        5.270231   -0.070373    0.145738
     32          6           0        5.124108   -2.835278   -0.098054
     33          1           0        3.014903   -2.562345   -0.344165
     34          6           0        6.430102   -0.820375    0.235704
     35          1           0        5.366716    1.003916    0.253135
     36          6           0        6.360460   -2.226627    0.118308
     37          1           0        5.070739   -3.916934   -0.188478
     38          8           0        7.517156   -2.926661    0.238110
     39          1           0        7.337164   -3.872801    0.144887
     40          8           0        7.615695   -0.188491    0.502876
     41          6           0        8.574216   -0.184633   -0.566452
     42          1           0        8.156597    0.295811   -1.457375
     43          1           0        9.423234    0.396859   -0.208111
     44          1           0        8.904359   -1.195525   -0.812492
     45          6           0        0.042458    1.381056   -0.440912
     46          1           0        0.191047    0.532845   -1.115058
     47          1           0       -0.638941    2.069369   -0.945007
     48          8           0       -1.452347    4.698677   -1.083835
     49          8           0       -0.438567    5.945318    0.412691
     50          7           0       -0.932246    4.957367   -0.037125
 ---------------------------------------------------------------------
                    Distance matrix (angstroms):
                    1          2          3          4          5
     1  C    0.000000
     2  H    1.087387   0.000000
     3  C    1.348862   2.096591   0.000000
     4  H    2.128065   3.076321   1.086320   0.000000
     5  C    2.504817   2.726820   1.469771   2.144228   0.000000
     6  O    3.585804   3.935183   2.337012   2.513192   1.222351
     7  C    1.457768   2.145861   2.517401   2.812122   3.882551
     8  C    2.463606   2.590984   3.744814   4.189911   4.961520
     9  C    2.523374   3.445346   3.054870   2.813346   4.524466
    10  C    3.750172   3.979123   4.941149   5.193668   6.251410
    11  H    2.663152   2.323150   4.011398   4.683899   4.991437
    12  C    3.790548   4.585313   4.437105   4.155587   5.906522
    13  H    2.785902   3.845675   2.804654   2.198191   4.211734
    14  C    4.278186   4.803302   5.232465   5.193409   6.662167
    15  H    4.614552   4.648798   5.876559   6.216165   7.112528
    16  O    5.634650   6.143332   6.560163   6.446131   8.001769
    17  H    6.050222   6.410005   7.097861   7.104820   8.499774
    18  O    4.898565   5.797476   5.286904   4.753932   6.733623
    19  C    5.824642   6.693654   6.202052   5.652985   7.619984
    20  H    5.545569   6.414208   5.839347   5.294492   7.193055
    21  H    6.662652   7.590193   6.897456   6.223027   8.282849
    22  H    6.297174   7.054884   6.860064   6.437049   8.299720
    23  C    5.457621   5.191074   4.809395   5.421206   3.618308
    24  H    4.620295   4.405352   4.062475   4.689172   3.098268
    25  C    5.460280   5.121020   4.780975   5.458017   3.401132
    26  H    6.463286   6.107517   5.746254   6.380431   4.316532
    27  C    4.498323   4.113879   3.901265   4.684145   2.541232
    28  O    5.145701   4.737097   4.576868   5.320999   3.274696
    29  C    6.750913   6.519076   6.087383   6.594801   4.962669
    30  C    7.009294   6.850607   6.428125   6.854236   5.545722
    31  C    7.971801   7.705695   7.249424   7.741259   6.000332
    32  C    8.357112   8.213294   7.767091   8.131287   6.900516
    33  H    6.304513   6.196490   5.816939   6.226537   5.142230
    34  C    9.182102   8.941353   8.461185   8.893870   7.270870
    35  H    8.119464   7.813478   7.366634   7.890469   6.009799
    36  C    9.358712   9.172820   8.694718   9.071551   7.668862
    37  H    8.750295   8.653930   8.222958   8.531189   7.509842
    38  O   10.666110  10.495216   9.998976  10.333743   8.997740
    39  H   10.803373  10.667485  10.180766  10.480366   9.289206
    40  O   10.339299  10.079392   9.574096   9.997965   8.304233
    41  C   11.265082  10.900539  10.613160  11.121501   9.355893
    42  H   10.899279  10.441163  10.345066  10.946243   9.086337
    43  H   12.110926  11.752917  11.410541  11.898818  10.102606
    44  H   11.673978  11.324880  11.060928  11.549587   9.881423
    45  C    3.000054   2.614540   2.585040   3.525837   1.532483
    46  H    3.004272   2.476809   2.866787   3.843835   2.152631
    47  H    2.880130   2.282528   2.817146   3.827280   2.154043
    48  O    4.786380   4.266100   4.835487   5.623572   4.361698
    49  O    6.275815   5.974433   5.889031   6.453911   5.085960
    50  N    5.140986   4.801651   4.870339   5.523238   4.184101
                    6          7          8          9         10
     6  O    0.000000
     7  C    4.854232   0.000000
     8  C    6.043537   1.403492   0.000000
     9  C    5.248615   1.408944   2.408396   0.000000
    10  C    7.274326   2.432422   1.389381   2.779955   0.000000
    11  H    6.163054   2.156414   1.085177   3.396642   2.140993
    12  C    6.622161   2.439598   2.792195   1.384294   2.424411
    13  H    4.710591   2.177298   3.404971   1.084119   3.863515
    14  C    7.535625   2.821164   2.416233   2.416651   1.394894
    15  H    8.189349   3.415448   2.151524   3.866717   1.086784
    16  O    8.842215   4.177261   3.675266   3.635179   2.418331
    17  H    9.418438   4.619564   3.835985   4.328230   2.456757
    18  O    7.266177   3.678522   4.160849   2.375801   3.684220
    19  C    8.122506   4.614264   4.989053   3.381889   4.374149
    20  H    7.665108   4.478564   4.974304   3.322368   4.566166
    21  H    8.664434   5.517403   5.985159   4.195603   5.377636
    22  H    8.908354   4.972802   5.046493   3.921043   4.177225
    23  C    3.613137   6.803881   7.585197   7.585344   8.903742
    24  H    3.321285   5.894005   6.669592   6.661430   7.953492
    25  C    3.354427   6.896097   7.669477   7.746522   9.038836
    26  H    4.105354   7.911693   8.680086   8.754211  10.057636
    27  C    2.771498   5.954130   6.697393   6.873489   8.080105
    28  O    3.390482   6.568201   7.265410   7.492414   8.635176
    29  C    4.807977   8.029289   8.803962   8.734973  10.078063
    30  C    5.463992   8.135205   8.879212   8.749515  10.058636
    31  C    5.699901   9.302917  10.083646  10.018489  11.386408
    32  C    6.735834   9.435886  10.166241   9.994519  11.303556
    33  H    5.203937   7.324185   8.043650   7.903829   9.166589
    34  C    6.927297  10.463270  11.237849  11.126694  12.504853
    35  H    5.660093   9.513402  10.297590  10.271912  11.640249
    36  C    7.386438  10.527859  11.280551  11.119352  12.471576
    37  H    7.391461   9.710147  10.406737  10.196739  11.460351
    38  O    8.676023  11.800437  12.546325  12.350823  13.706556
    39  H    9.011521  11.855436  12.579485  12.355990  13.680512
    40  O    7.875263  11.663309  12.450088  12.335094  13.743141
    41  C    9.044064  12.581743  13.258515  13.343267  14.550182
    42  H    8.894776  12.224953  12.813294  13.081091  14.116648
    43  H    9.719153  13.457664  14.162132  14.210308  15.472548
    44  H    9.605617  12.933046  13.584510  13.666841  14.834817
    45  C    2.401978   4.450814   5.189496   5.429900   6.569456
    46  H    3.084169   4.362285   4.963523   5.417453   6.328846
    47  H    3.127347   4.244340   4.798043   5.353935   6.174928
    48  O    4.984354   5.799632   6.107102   6.827058   7.297717
    49  O    5.200768   7.394261   7.960913   8.203298   9.154422
    50  N    4.519531   6.253398   6.785939   7.130267   7.998117
                   11         12         13         14         15
    11  H    0.000000
    12  C    3.877348   0.000000
    13  H    4.313748   2.112056   0.000000
    14  C    3.393882   1.412993   3.383147   0.000000
    15  H    2.466652   3.408709   4.950190   2.148493   0.000000
    16  O    4.554406   2.369854   4.480433   1.357154   2.674275
    17  H    4.543693   3.185573   5.261330   1.914384   2.292525
    18  O    5.245919   1.369656   2.558697   2.424012   4.566852
    19  C    6.047766   2.375781   3.517517   3.087507   5.131809
    20  H    5.984943   2.664401   3.346832   3.475647   5.375499
    21  H    7.058060   3.261509   4.130025   4.044004   6.125922
    22  H    6.057700   2.711421   4.298072   2.895151   4.738582
    23  C    7.309819   8.901043   7.336486   9.506668   9.594934
    24  H    6.446674   7.944117   6.457489   8.532193   8.655834
    25  C    7.335719   9.101841   7.506201   9.693094   9.718732
    26  H    8.317049  10.118977   8.481880  10.721478  10.724654
    27  C    6.348553   8.225078   6.703757   8.768579   8.751771
    28  O    6.880283   8.825722   7.329057   9.344352   9.274207
    29  C    8.544283  10.014423   8.442093  10.641995  10.758917
    30  C    8.684570   9.940749   8.469425  10.557617  10.729567
    31  C    9.783623  11.325041   9.688866  11.969619  12.058796
    32  C    9.980256  11.145393   9.687608  11.770353  11.958760
    33  H    7.899964   9.040840   7.665957   9.634001   9.837115
    34  C   10.953955  12.400973  10.773971  13.057227  13.169714
    35  H    9.959982  11.613971   9.938791  12.257667  12.309564
    36  C   11.049125  12.321747  10.776342  12.969278  13.128660
    37  H   10.267613  11.265983   9.904435  11.873906  12.099173
    38  O   12.325268  13.523324  11.989573  14.178110  14.354461
    39  H   12.394229  13.470762  12.006904  14.113003  14.318360
    40  O   12.140859  13.634739  11.954264  14.308524  14.407430
    41  C   12.860709  14.624295  13.041596  15.204149  15.140409
    42  H   12.339481  14.358156  12.857466  14.854436  14.650928
    43  H   13.762634  15.513152  13.876479  16.121168  16.075235
    44  H   13.202479  14.907141  13.377881  15.470650  15.409859
    45  C    4.891151   6.760271   5.364474   7.259821   7.262751
    46  H    4.592824   6.691267   5.459330   7.090863   6.963992
    47  H    4.384411   6.617370   5.439695   6.974482   6.786948
    48  O    5.632041   7.912663   6.976031   8.124302   7.749543
    49  O    7.629399   9.365462   8.097407   9.803775   9.718511
    50  N    6.441905   8.292535   7.097969   8.686360   8.561545
                   16         17         18         19         20
    16  O    0.000000
    17  H    0.967649   0.000000
    18  O    2.751439   3.711010   0.000000
    19  C    3.044947   3.952195   1.436255   0.000000
    20  H    3.697814   4.541019   2.090312   1.094939   0.000000
    21  H    3.852954   4.760171   2.028826   1.089625   1.781947
    22  H    2.451629   3.242602   2.098900   1.091496   1.788664
    23  C   10.832450  11.223894   9.769944  10.347651   9.658045
    24  H    9.842576  10.235715   8.826226   9.352748   8.646093
    25  C   11.045328  11.422577  10.002465  10.743932  10.163276
    26  H   12.076600  12.452031  11.000183  11.770382  11.199630
    27  C   10.125102  10.482532   9.174565  10.058274   9.602833
    28  O   10.687853  11.026299   9.767311  10.764278  10.401977
    29  C   11.937522  12.337670  10.822808  11.270106  10.490716
    30  C   11.792794  12.196159  10.698472  10.970084  10.101914
    31  C   13.279191  13.679241  12.119821  12.605757  11.837625
    32  C   12.969441  13.374854  11.848417  12.019654  11.098211
    33  H   10.839235  11.240527   9.797617  10.007786   9.121401
    34  C   14.340257  14.745830  13.151281  13.535880  12.706121
    35  H   13.591827  13.986106  12.429820  13.023394  12.318226
    36  C   14.199919  14.608085  13.028189  13.265245  12.365233
    37  H   13.012886  13.415890  11.921243  11.962557  10.991172
    38  O   15.381590  15.792661  14.188322  14.350289  13.413566
    39  H   15.272961  15.682561  14.103137  14.169134  13.196376
    40  O   15.606593  16.015536  14.375950  14.802878  13.989703
    41  C   16.497220  16.844686  15.434274  15.844362  15.022178
    42  H   16.153755  16.448905  15.244813  15.700016  14.910336
    43  H   17.426807  17.786962  16.306703  16.753169  15.945650
    44  H   16.733477  17.073716  15.700528  16.017789  15.149504
    45  C    8.616481   8.968790   7.767970   8.645980   8.217785
    46  H    8.433941   8.736352   7.760077   8.501966   7.990734
    47  H    8.314445   8.594742   7.704143   8.689980   8.382171
    48  O    9.342581   9.531368   8.950028  10.173260  10.121985
    49  O   11.025742  11.327065  10.222770  11.478041  11.407985
    50  N    9.925728  10.211700   9.214193  10.448546  10.367598
                   21         22         23         24         25
    21  H    0.000000
    22  H    1.780439   0.000000
    23  C   11.063437  10.954036   0.000000
    24  H   10.097269   9.929828   1.087253   0.000000
    25  C   11.449255  11.366234   1.349027   2.098300   0.000000
    26  H   12.450168  12.413452   2.126439   3.076336   1.086222
    27  C   10.776818  10.659167   2.501709   2.727650   1.465749
    28  O   11.454166  11.370374   3.582997   3.939048   2.331473
    29  C   11.957847  11.881044   1.457568   2.144282   2.516874
    30  C   11.655601  11.544702   2.464082   2.589565   3.745229
    31  C   13.265812  13.243396   2.523022   3.444229   3.053281
    32  C   12.671518  12.589635   3.750473   3.977699   4.941090
    33  H   10.715569  10.549240   2.664129   2.322084   4.012877
    34  C   14.173390  14.170916   3.790366   4.584108   4.435592
    35  H   13.677748  13.679055   2.785059   3.844628   2.802097
    36  C   13.896922  13.868286   4.278364   4.801993   5.231798
    37  H   12.601918  12.497274   4.615220   4.647687   5.877121
    38  O   14.954620  14.949401   5.635008   6.141932   6.559864
    39  H   14.765916  14.740991   6.050118   6.407914   7.097402
    40  O   15.418118  15.462555   4.897809   5.795612   5.284787
    41  C   16.510272  16.446025   5.824627   6.700279   6.190914
    42  H   16.418085  16.255768   5.545172   6.426288   5.820724
    43  H   17.396044  17.382628   6.660583   7.593172   6.885719
    44  H   16.685982  16.593031   6.300351   7.065597   6.851443
    45  C    9.413415   9.198892   3.033764   2.661498   2.599150
    46  H    9.336246   8.980963   2.787709   2.158751   2.783580
    47  H    9.487007   9.173615   4.023075   3.681798   3.430294
    48  O   10.895234  10.613791   6.323356   6.254444   5.320095
    49  O   12.069599  12.061937   6.706479   6.920749   5.479960
    50  N   11.091276  10.994709   6.121522   6.177815   5.008969
                   26         27         28         29         30
    26  H    0.000000
    27  C    2.142182   0.000000
    28  O    2.505236   1.226123   0.000000
    29  C    2.808445   3.878591   4.848329   0.000000
    30  C    4.187173   4.959237   6.041062   1.403614   0.000000
    31  C    2.807456   4.519029   5.237456   1.408924   2.408102
    32  C    5.189959   6.248456   7.269872   2.432566   1.389373
    33  H    4.682816   4.991053   6.164815   2.156620   1.085252
    34  C    4.149703   5.901113   6.610585   2.439841   2.792182
    35  H    2.190891   4.205160   4.695783   2.176898   3.404478
    36  C    5.188667   6.658000   7.527436   2.821513   2.416372
    37  H    6.213192   7.110625   8.187039   3.415709   2.151705
    38  O    6.441935   7.997841   8.833898   4.177790   3.675354
    39  H    7.100676   8.495944   9.411471   4.619529   3.835480
    40  O    4.747915   6.727130   7.251678   3.678445   4.160825
    41  C    5.626818   7.606719   8.090188   4.615498   4.991308
    42  H    5.252256   7.174439   7.619250   4.479339   4.975721
    43  H    6.198602   8.267885   8.630839   5.517125   5.986575
    44  H    6.412870   8.289269   8.879012   4.977045   5.052136
    45  C    3.532509   1.524022   2.380220   4.485848   5.232755
    46  H    3.815241   2.182419   3.213171   4.143865   4.680259
    47  H    4.231882   2.122250   2.497600   5.471462   6.239623
    48  O    5.693606   3.895631   3.236906   7.730413   8.717589
    49  O    5.503656   4.245613   3.165166   7.988889   9.165554
    50  N    5.256907   3.625307   2.760398   7.492690   8.567856
                   31         32         33         34         35
    31  C    0.000000
    32  C    2.779476   0.000000
    33  H    3.396532   2.140983   0.000000
    34  C    1.384159   2.424221   3.877407   0.000000
    35  H    1.083946   3.862849   4.313468   2.111665   0.000000
    36  C    2.416358   1.394932   3.394015   1.412861   3.382619
    37  H    3.866204   1.086741   2.466903   3.408295   4.949484
    38  O    3.635325   2.418271   4.554344   2.370260   4.480407
    39  H    4.327894   2.456235   4.542951   3.185641   5.260869
    40  O    2.375437   3.684373   5.245946   1.369778   2.557755
    41  C    3.381802   4.375907   6.050528   2.375889   3.517445
    42  H    3.321923   4.565902   5.987095   2.663301   3.348237
    43  H    4.194157   5.379713   7.059894   3.261514   4.127542
    44  H    3.923144   4.182046   6.064092   2.713190   4.299769
    45  C    5.457143   6.611972   4.939149   6.790147   5.382533
    46  H    5.267978   6.059178   4.260123   6.525456   5.374143
    47  H    6.378600   7.614829   5.929955   7.727617   6.216000
    48  O    8.333591  10.048980   8.557212   9.712575   7.870094
    49  O    8.297600  10.406876   9.213014   9.642849   7.625236
    50  N    7.986384   9.869572   8.498254   9.362740   7.442510
                   36         37         38         39         40
    36  C    0.000000
    37  H    2.148170   0.000000
    38  O    1.357330   2.673495   0.000000
    39  H    1.914300   2.291236   0.967609   0.000000
    40  O    2.424357   4.566844   2.752705   3.712125   0.000000
    41  C    3.088584   5.132961   3.046870   3.954603   1.436049
    42  H    3.474417   5.373997   3.697010   4.540489   2.090384
    43  H    4.045963   6.128084   3.857206   4.765112   2.028629
    44  H    2.898444   4.742584   2.454573   3.246611   2.098801
    45  C    7.296934   7.308627   8.653820   9.008823   7.791542
    46  H    6.870047   6.668620   8.214081   8.489062   7.633050
    47  H    8.281174   8.307142   9.637531  10.005774   8.679477
    48  O   10.509279  10.843481  11.846742  12.338375  10.422641
    49  O   10.634572  11.312731  11.917887  12.527137  10.124371
    50  N   10.238042  10.715034  11.559673  12.099096   9.991935
                   41         42         43         44         45
    41  C    0.000000
    42  H    1.094977   0.000000
    43  H    1.089667   1.781921   0.000000
    44  H    1.091528   1.788604   1.780504   0.000000
    45  C    8.675138   8.249255   9.435137   9.236348   0.000000
    46  H    8.431683   7.976426   9.277626   8.888230   1.093623
    47  H    9.492423   8.987187  10.226812  10.087203   1.091876
    48  O   11.164513  10.576227  11.728205  11.919589   3.695187
    49  O   10.943732  10.454230  11.332516  11.822985   4.668246
    50  N   10.820960  10.312822  11.316512  11.628331   3.728685
                   46         47         48         49         50
    46  H    0.000000
    47  H    1.754623   0.000000
    48  O    4.478378   2.755751   0.000000
    49  O    5.659089   4.111749   2.195781   0.000000
    50  N    4.690428   3.041514   1.197091   1.192519   0.000000
 Stoichiometry    C21H20NO8(2)
 Framework group  C1[X(C21H20NO8)]
 Deg. of freedom   144
 Full point group                 C1      NOp   1
 Largest Abelian subgroup         C1      NOp   1
 Largest concise Abelian subgroup C1      NOp   1
                         Standard orientation:                         
 ---------------------------------------------------------------------
 Center     Atomic      Atomic             Coordinates (Angstroms)
 Number     Number       Type             X           Y           Z
 ---------------------------------------------------------------------
      1          6           0       -2.751635    0.256058   -0.312564
      2          1           0       -2.341337    0.675132   -1.228229
      3          6           0       -1.998279    0.298418    0.805510
      4          1           0       -2.364682   -0.091341    1.750987
      5          6           0       -0.643946    0.861900    0.897689
      6          8           0       -0.060407    0.887355    1.971457
      7          6           0       -4.093930   -0.293825   -0.457346
      8          6           0       -4.730160   -0.207514   -1.705364
      9          6           0       -4.790893   -0.921728    0.593892
     10          6           0       -6.010944   -0.711446   -1.895166
     11          1           0       -4.217903    0.267623   -2.535693
     12          6           0       -6.067014   -1.429181    0.419890
     13          1           0       -4.350054   -1.019209    1.579525
     14          6           0       -6.694027   -1.318931   -0.841558
     15          1           0       -6.493820   -0.624671   -2.864908
     16          8           0       -7.954729   -1.806719   -0.962212
     17          1           0       -8.273583   -1.668120   -1.865243
     18          8           0       -6.723111   -1.972090    1.492617
     19          6           0       -6.944534   -3.389985    1.434552
     20          1           0       -5.993450   -3.925579    1.348123
     21          1           0       -7.425351   -3.658790    2.374681
     22          1           0       -7.597478   -3.659899    0.602582
     23          6           0        2.698306   -0.003742   -0.184978
     24          1           0        1.792465   -0.578045   -0.363154
     25          6           0        2.594082    1.332352   -0.030504
     26          1           0        3.468268    1.947962    0.161071
     27          6           0        1.345820    2.098566   -0.086866
     28          8           0        1.368921    3.312774    0.082083
     29          6           0        3.912516   -0.808800   -0.139369
     30          6           0        3.815157   -2.194816   -0.338400
     31          6           0        5.193132   -0.265822    0.084827
     32          6           0        4.942378   -3.006369   -0.305057
     33          1           0        2.842945   -2.643303   -0.515701
     34          6           0        6.324963   -1.061673    0.123272
     35          1           0        5.330341    0.796862    0.248582
     36          6           0        6.202153   -2.456064   -0.068483
     37          1           0        4.848112   -4.078902   -0.452677
     38          8           0        7.332900   -3.203542    0.002458
     39          1           0        7.117122   -4.136044   -0.139478
     40          8           0        7.535273   -0.489053    0.412317
     41          6           0        8.484971   -0.462874   -0.664542
     42          1           0        8.078633    0.079824   -1.524393
     43          1           0        9.357780    0.066918   -0.283886
     44          1           0        8.775369   -1.470507   -0.967492
     45          6           0        0.018587    1.406103   -0.372506
     46          1           0        0.130300    0.590509   -1.092464
     47          1           0       -0.640617    2.145105   -0.832419
     48          8           0       -1.356703    4.806173   -0.822513
     49          8           0       -0.285703    5.932410    0.728617
     50          7           0       -0.819257    4.988892    0.231428
 ---------------------------------------------------------------------
 Rotational constants (GHZ):           0.1839381           0.0485142           0.0403748
 Standard basis: 6-311G(d) (5D, 7F)
 There are   630 symmetry adapted cartesian basis functions of A   symmetry.
 There are   600 symmetry adapted basis functions of A   symmetry.
   600 basis functions,  1060 primitive gaussians,   630 cartesian basis functions
   109 alpha electrons      108 beta electrons
       nuclear repulsion energy      2550.8499493201 Hartrees.
 NAtoms=   50 NActive=   50 NUniq=   50 SFac= 1.00D+00 NAtFMM=   60 NAOKFM=F Big=F
 Integral buffers will be    131072 words long.
 Raffenetti 2 integral format.
 Two-electron integral symmetry is turned on.
 Using the following non-standard input for PCM:
 Eps=7
 EpsInf=1.85341
 HbondAcidity=0
 HbondBasicity=0.48
 SurfaceTensionAtInterface=60.62
 CarbonAromaticity=0
 ElectronegativeHalogenicity=0
 --- end of non-standard input.
 ------------------------------------------------------------------------------
 Polarizable Continuum Model (PCM)
 =================================
 Model                : PCM.
 Atomic radii         : SMD-Coulomb.
 Polarization charges : Total charges.
 Charge compensation  : None.
 Solution method      : On-the-fly selection.
 Cavity type          : VdW (van der Waals Surface) (Alpha=1.000).
 Cavity algorithm     : GePol (No added spheres)
                        Default sphere list used, NSphG=   50.
                        Lebedev-Laikov grids with approx.  5.0 points / Ang**2.
                        Smoothing algorithm: York/Karplus (Gamma=1.0000).
                        Polarization charges: spherical gaussians, with
                                              point-specific exponents (IZeta= 3).
                        Self-potential: point-specific (ISelfS= 7).
                        Self-field    : sphere-specific E.n sum rule (ISelfD= 2).
 Solvent              : Generic,
                        Eps                           =   7.000000
                        Eps(infinity)                 =   1.853410
                        RSolv                         =   0.000000 Ang.
                        Molar volume                  =   0.000000 cm**3/mol
                        Thermal expansion coefficient =   0.000000 K**-1
                        Absolute temperature          = 298.150000 K
                        Numeral density               =   0.000000 Ang**-3
                        Hydrogen bond acidity         =   0.000000
                        Hydrogen bond basicity        =   0.480000
                        Surface tension at interface  =  60.620000 (cal/mol)*Ang**-2
                        Carbon aromaticity            =   0.000000
                        Electronegative halogenicity  =   0.000000
 ------------------------------------------------------------------------------
 ------------------------------------------------------------------------------
 Atomic radii for non-electrostatic terms: SMD-CDS.
 ------------------------------------------------------------------------------
 Nuclear repulsion after PCM non-electrostatic terms =     2550.8470025338 Hartrees.
 One-electron integrals computed using PRISM.
 NBasis=   600 RedAO= T EigKep=  1.75D-04  NBF=   600
 NBsUse=   600 1.00D-06 EigRej= -1.00D+00 NBFU=   600
 Initial guess from the checkpoint file:  "CURCUMIN-Reag-2-B3LYP-6-311G-D-298-NBO.chk"
 B after Tr=    -0.000000    0.000000    0.000000
         Rot=    1.000000    0.000000   -0.000000    0.000000 Ang=   0.00 deg.
 Initial guess <Sx>= 0.0000 <Sy>= 0.0000 <Sz>= 0.5000 <S**2>= 0.7533 S= 0.5017
 Requested convergence on RMS density matrix=1.00D-08 within 128 cycles.
 Requested convergence on MAX density matrix=1.00D-06.
 Requested convergence on             energy=1.00D-06.
 No special actions if energy rises.
 Inv3:  Mode=1 IEnd=    57605772.
 Iteration    1 A*A^-1 deviation from unit magnitude is 3.55D-15 for   2415.
 Iteration    1 A*A^-1 deviation from orthogonality  is 3.58D-15 for   1181    511.
 Iteration    1 A^-1*A deviation from unit magnitude is 3.33D-15 for   3659.
 Iteration    1 A^-1*A deviation from orthogonality  is 3.31D-15 for   1908   1803.
 Error on total polarization charges =  0.03509
 SCF Done:  E(UB3LYP) =  -1469.00757209     A.U. after    1 cycles
            NFock=  1  Conv=0.67D-08     -V/T= 2.0034
 <Sx>= 0.0000 <Sy>= 0.0000 <Sz>= 0.5000 <S**2>= 0.7533 S= 0.5017
 <L.S>=  0.00000000000    
 SMD-CDS (non-electrostatic) energy       (kcal/mol) =      -1.85
 (included in total energy above)
 Annihilation of the first spin contaminant:
 S**2 before annihilation     0.7533,   after     0.7500

 **********************************************************************

            Population analysis using the SCF density.

 **********************************************************************

 Orbital symmetries:
 Alpha Orbitals:
       Occupied  (A) (A) (A) (A) (A) (A) (A) (A) (A) (A) (A) (A)
                 (A) (A) (A) (A) (A) (A) (A) (A) (A) (A) (A) (A)
                 (A) (A) (A) (A) (A) (A) (A) (A) (A) (A) (A) (A)
                 (A) (A) (A) (A) (A) (A) (A) (A) (A) (A) (A) (A)
                 (A) (A) (A) (A) (A) (A) (A) (A) (A) (A) (A) (A)
                 (A) (A) (A) (A) (A) (A) (A) (A) (A) (A) (A) (A)
                 (A) (A) (A) (A) (A) (A) (A) (A) (A) (A) (A) (A)
                 (A) (A) (A) (A) (A) (A) (A) (A) (A) (A) (A) (A)
                 (A) (A) (A) (A) (A) (A) (A) (A) (A) (A) (A) (A)
                 (A)
       Virtual   (A) (A) (A) (A) (A) (A) (A) (A) (A) (A) (A) (A)
                 (A) (A) (A) (A) (A) (A) (A) (A) (A) (A) (A) (A)
                 (A) (A) (A) (A) (A) (A) (A) (A) (A) (A) (A) (A)
                 (A) (A) (A) (A) (A) (A) (A) (A) (A) (A) (A) (A)
                 (A) (A) (A) (A) (A) (A) (A) (A) (A) (A) (A) (A)
                 (A) (A) (A) (A) (A) (A) (A) (A) (A) (A) (A) (A)
                 (A) (A) (A) (A) (A) (A) (A) (A) (A) (A) (A) (A)
                 (A) (A) (A) (A) (A) (A) (A) (A) (A) (A) (A) (A)
                 (A) (A) (A) (A) (A) (A) (A) (A) (A) (A) (A) (A)
                 (A) (A) (A) (A) (A) (A) (A) (A) (A) (A) (A) (A)
                 (A) (A) (A) (A) (A) (A) (A) (A) (A) (A) (A) (A)
                 (A) (A) (A) (A) (A) (A) (A) (A) (A) (A) (A) (A)
                 (A) (A) (A) (A) (A) (A) (A) (A) (A) (A) (A) (A)
                 (A) (A) (A) (A) (A) (A) (A) (A) (A) (A) (A) (A)
                 (A) (A) (A) (A) (A) (A) (A) (A) (A) (A) (A) (A)
                 (A) (A) (A) (A) (A) (A) (A) (A) (A) (A) (A) (A)
                 (A) (A) (A) (A) (A) (A) (A) (A) (A) (A) (A) (A)
                 (A) (A) (A) (A) (A) (A) (A) (A) (A) (A) (A) (A)
                 (A) (A) (A) (A) (A) (A) (A) (A) (A) (A) (A) (A)
                 (A) (A) (A) (A) (A) (A) (A) (A) (A) (A) (A) (A)
                 (A) (A) (A) (A) (A) (A) (A) (A) (A) (A) (A) (A)
                 (A) (A) (A) (A) (A) (A) (A) (A) (A) (A) (A) (A)
                 (A) (A) (A) (A) (A) (A) (A) (A) (A) (A) (A) (A)
                 (A) (A) (A) (A) (A) (A) (A) (A) (A) (A) (A) (A)
                 (A) (A) (A) (A) (A) (A) (A) (A) (A) (A) (A) (A)
                 (A) (A) (A) (A) (A) (A) (A) (A) (A) (A) (A) (A)
                 (A) (A) (A) (A) (A) (A) (A) (A) (A) (A) (A) (A)
                 (A) (A) (A) (A) (A) (A) (A) (A) (A) (A) (A) (A)
                 (A) (A) (A) (A) (A) (A) (A) (A) (A) (A) (A) (A)
                 (A) (A) (A) (A) (A) (A) (A) (A) (A) (A) (A) (A)
                 (A) (A) (A) (A) (A) (A) (A) (A) (A) (A) (A) (A)
                 (A) (A) (A) (A) (A) (A) (A) (A) (A) (A) (A) (A)
                 (A) (A) (A) (A) (A) (A) (A) (A) (A) (A) (A) (A)
                 (A) (A) (A) (A) (A) (A) (A) (A) (A) (A) (A) (A)
                 (A) (A) (A) (A) (A) (A) (A) (A) (A) (A) (A) (A)
                 (A) (A) (A) (A) (A) (A) (A) (A) (A) (A) (A) (A)
                 (A) (A) (A) (A) (A) (A) (A) (A) (A) (A) (A) (A)
                 (A) (A) (A) (A) (A) (A) (A) (A) (A) (A) (A) (A)
                 (A) (A) (A) (A) (A) (A) (A) (A) (A) (A) (A) (A)
                 (A) (A) (A) (A) (A) (A) (A) (A) (A) (A) (A) (A)
                 (A) (A) (A) (A) (A) (A) (A) (A) (A) (A) (A)
 Beta  Orbitals:
       Occupied  (A) (A) (A) (A) (A) (A) (A) (A) (A) (A) (A) (A)
                 (A) (A) (A) (A) (A) (A) (A) (A) (A) (A) (A) (A)
                 (A) (A) (A) (A) (A) (A) (A) (A) (A) (A) (A) (A)
                 (A) (A) (A) (A) (A) (A) (A) (A) (A) (A) (A) (A)
                 (A) (A) (A) (A) (A) (A) (A) (A) (A) (A) (A) (A)
                 (A) (A) (A) (A) (A) (A) (A) (A) (A) (A) (A) (A)
                 (A) (A) (A) (A) (A) (A) (A) (A) (A) (A) (A) (A)
                 (A) (A) (A) (A) (A) (A) (A) (A) (A) (A) (A) (A)
                 (A) (A) (A) (A) (A) (A) (A) (A) (A) (A) (A) (A)
       Virtual   (A) (A) (A) (A) (A) (A) (A) (A) (A) (A) (A) (A)
                 (A) (A) (A) (A) (A) (A) (A) (A) (A) (A) (A) (A)
                 (A) (A) (A) (A) (A) (A) (A) (A) (A) (A) (A) (A)
                 (A) (A) (A) (A) (A) (A) (A) (A) (A) (A) (A) (A)
                 (A) (A) (A) (A) (A) (A) (A) (A) (A) (A) (A) (A)
                 (A) (A) (A) (A) (A) (A) (A) (A) (A) (A) (A) (A)
                 (A) (A) (A) (A) (A) (A) (A) (A) (A) (A) (A) (A)
                 (A) (A) (A) (A) (A) (A) (A) (A) (A) (A) (A) (A)
                 (A) (A) (A) (A) (A) (A) (A) (A) (A) (A) (A) (A)
                 (A) (A) (A) (A) (A) (A) (A) (A) (A) (A) (A) (A)
                 (A) (A) (A) (A) (A) (A) (A) (A) (A) (A) (A) (A)
                 (A) (A) (A) (A) (A) (A) (A) (A) (A) (A) (A) (A)
                 (A) (A) (A) (A) (A) (A) (A) (A) (A) (A) (A) (A)
                 (A) (A) (A) (A) (A) (A) (A) (A) (A) (A) (A) (A)
                 (A) (A) (A) (A) (A) (A) (A) (A) (A) (A) (A) (A)
                 (A) (A) (A) (A) (A) (A) (A) (A) (A) (A) (A) (A)
                 (A) (A) (A) (A) (A) (A) (A) (A) (A) (A) (A) (A)
                 (A) (A) (A) (A) (A) (A) (A) (A) (A) (A) (A) (A)
                 (A) (A) (A) (A) (A) (A) (A) (A) (A) (A) (A) (A)
                 (A) (A) (A) (A) (A) (A) (A) (A) (A) (A) (A) (A)
                 (A) (A) (A) (A) (A) (A) (A) (A) (A) (A) (A) (A)
                 (A) (A) (A) (A) (A) (A) (A) (A) (A) (A) (A) (A)
                 (A) (A) (A) (A) (A) (A) (A) (A) (A) (A) (A) (A)
                 (A) (A) (A) (A) (A) (A) (A) (A) (A) (A) (A) (A)
                 (A) (A) (A) (A) (A) (A) (A) (A) (A) (A) (A) (A)
                 (A) (A) (A) (A) (A) (A) (A) (A) (A) (A) (A) (A)
                 (A) (A) (A) (A) (A) (A) (A) (A) (A) (A) (A) (A)
                 (A) (A) (A) (A) (A) (A) (A) (A) (A) (A) (A) (A)
                 (A) (A) (A) (A) (A) (A) (A) (A) (A) (A) (A) (A)
                 (A) (A) (A) (A) (A) (A) (A) (A) (A) (A) (A) (A)
                 (A) (A) (A) (A) (A) (A) (A) (A) (A) (A) (A) (A)
                 (A) (A) (A) (A) (A) (A) (A) (A) (A) (A) (A) (A)
                 (A) (A) (A) (A) (A) (A) (A) (A) (A) (A) (A) (A)
                 (A) (A) (A) (A) (A) (A) (A) (A) (A) (A) (A) (A)
                 (A) (A) (A) (A) (A) (A) (A) (A) (A) (A) (A) (A)
                 (A) (A) (A) (A) (A) (A) (A) (A) (A) (A) (A) (A)
                 (A) (A) (A) (A) (A) (A) (A) (A) (A) (A) (A) (A)
                 (A) (A) (A) (A) (A) (A) (A) (A) (A) (A) (A) (A)
                 (A) (A) (A) (A) (A) (A) (A) (A) (A) (A) (A) (A)
                 (A) (A) (A) (A) (A) (A) (A) (A) (A) (A) (A) (A)
                 (A) (A) (A) (A) (A) (A) (A) (A) (A) (A) (A) (A)
 The electronic state is 2-A.
 Alpha  occ. eigenvalues --  -19.21560 -19.21454 -19.16235 -19.16144 -19.13559
 Alpha  occ. eigenvalues --  -19.13457 -19.10063 -19.10021 -14.54228 -10.25879
 Alpha  occ. eigenvalues --  -10.25481 -10.24848 -10.24742 -10.23323 -10.23205
 Alpha  occ. eigenvalues --  -10.20746 -10.20661 -10.19579 -10.19429 -10.18933
 Alpha  occ. eigenvalues --  -10.18804 -10.18381 -10.18275 -10.18146 -10.18048
 Alpha  occ. eigenvalues --  -10.18045 -10.17918 -10.17468 -10.17308 -10.17074
 Alpha  occ. eigenvalues --   -1.27531  -1.12690  -1.08319  -1.08222  -1.05060
 Alpha  occ. eigenvalues --   -1.04960  -1.04064  -1.03201  -0.86944  -0.86822
 Alpha  occ. eigenvalues --   -0.81201  -0.80645  -0.76762  -0.76298  -0.76192
 Alpha  occ. eigenvalues --   -0.74603  -0.72553  -0.69035  -0.68938  -0.66561
 Alpha  occ. eigenvalues --   -0.66389  -0.65914  -0.62756  -0.61935  -0.58796
 Alpha  occ. eigenvalues --   -0.58653  -0.56716  -0.56338  -0.56152  -0.55920
 Alpha  occ. eigenvalues --   -0.55589  -0.55075  -0.52326  -0.51401  -0.51203
 Alpha  occ. eigenvalues --   -0.50440  -0.49415  -0.47820  -0.47479  -0.47340
 Alpha  occ. eigenvalues --   -0.46697  -0.46334  -0.46236  -0.44377  -0.44160
 Alpha  occ. eigenvalues --   -0.43973  -0.43654  -0.43416  -0.42658  -0.41902
 Alpha  occ. eigenvalues --   -0.41646  -0.41383  -0.41126  -0.40628  -0.38806
 Alpha  occ. eigenvalues --   -0.37913  -0.37824  -0.37721  -0.37493  -0.37173
 Alpha  occ. eigenvalues --   -0.37010  -0.36659  -0.36620  -0.36462  -0.36011
 Alpha  occ. eigenvalues --   -0.35609  -0.34292  -0.34188  -0.29382  -0.29082
 Alpha  occ. eigenvalues --   -0.28490  -0.28375  -0.27557  -0.25726  -0.25366
 Alpha  occ. eigenvalues --   -0.25256  -0.24723  -0.22148  -0.21985
 Alpha virt. eigenvalues --   -0.07350  -0.07222  -0.07140  -0.01437  -0.01333
 Alpha virt. eigenvalues --    0.01019   0.01197   0.03727   0.03795   0.05452
 Alpha virt. eigenvalues --    0.06317   0.06738   0.06920   0.07248   0.07470
 Alpha virt. eigenvalues --    0.07895   0.08270   0.08915   0.10147   0.11055
 Alpha virt. eigenvalues --    0.11747   0.12196   0.12346   0.12854   0.13478
 Alpha virt. eigenvalues --    0.14294   0.14574   0.15356   0.16129   0.16253
 Alpha virt. eigenvalues --    0.16659   0.16872   0.17523   0.19752   0.20482
 Alpha virt. eigenvalues --    0.21781   0.21991   0.23254   0.24449   0.25186
 Alpha virt. eigenvalues --    0.25504   0.25732   0.26520   0.27102   0.27655
 Alpha virt. eigenvalues --    0.28490   0.29783   0.30199   0.30747   0.30891
 Alpha virt. eigenvalues --    0.31215   0.32209   0.32413   0.33008   0.34755
 Alpha virt. eigenvalues --    0.35456   0.35683   0.35796   0.36173   0.36495
 Alpha virt. eigenvalues --    0.37170   0.37365   0.37559   0.38064   0.38482
 Alpha virt. eigenvalues --    0.39133   0.39407   0.40036   0.40380   0.40478
 Alpha virt. eigenvalues --    0.41017   0.41503   0.42446   0.42702   0.43021
 Alpha virt. eigenvalues --    0.43173   0.43447   0.43819   0.44338   0.44776
 Alpha virt. eigenvalues --    0.45264   0.45627   0.46052   0.46608   0.46719
 Alpha virt. eigenvalues --    0.47680   0.48211   0.49039   0.49220   0.49564
 Alpha virt. eigenvalues --    0.50169   0.50948   0.51552   0.52047   0.52151
 Alpha virt. eigenvalues --    0.52593   0.53038   0.53777   0.54567   0.54844
 Alpha virt. eigenvalues --    0.55592   0.56230   0.56511   0.57004   0.57157
 Alpha virt. eigenvalues --    0.57746   0.57973   0.58282   0.58571   0.58694
 Alpha virt. eigenvalues --    0.59285   0.59673   0.60133   0.60580   0.61202
 Alpha virt. eigenvalues --    0.61817   0.62144   0.62866   0.63173   0.63326
 Alpha virt. eigenvalues --    0.63465   0.64323   0.64631   0.64859   0.65147
 Alpha virt. eigenvalues --    0.66062   0.66494   0.67342   0.67987   0.69093
 Alpha virt. eigenvalues --    0.69204   0.70501   0.70692   0.71577   0.72515
 Alpha virt. eigenvalues --    0.73420   0.74930   0.75023   0.75494   0.75838
 Alpha virt. eigenvalues --    0.76844   0.77892   0.78289   0.78959   0.79102
 Alpha virt. eigenvalues --    0.79660   0.79914   0.80036   0.80473   0.80660
 Alpha virt. eigenvalues --    0.80919   0.81632   0.82547   0.83073   0.83814
 Alpha virt. eigenvalues --    0.84173   0.85013   0.85063   0.86082   0.87371
 Alpha virt. eigenvalues --    0.88646   0.88733   0.89429   0.90113   0.90755
 Alpha virt. eigenvalues --    0.91471   0.92627   0.93889   0.94231   0.94533
 Alpha virt. eigenvalues --    0.95586   0.95668   0.96857   0.97388   0.98112
 Alpha virt. eigenvalues --    0.98659   0.99542   1.00503   1.01153   1.02842
 Alpha virt. eigenvalues --    1.04127   1.04637   1.05537   1.05874   1.07443
 Alpha virt. eigenvalues --    1.09168   1.09721   1.11122   1.11580   1.13337
 Alpha virt. eigenvalues --    1.14027   1.14433   1.14954   1.15112   1.15306
 Alpha virt. eigenvalues --    1.16255   1.17645   1.19484   1.19947   1.20176
 Alpha virt. eigenvalues --    1.21995   1.23150   1.23267   1.23854   1.23892
 Alpha virt. eigenvalues --    1.26473   1.27015   1.28569   1.28841   1.32215
 Alpha virt. eigenvalues --    1.33823   1.36088   1.37444   1.37810   1.38214
 Alpha virt. eigenvalues --    1.39434   1.42097   1.44195   1.44615   1.46099
 Alpha virt. eigenvalues --    1.46606   1.46950   1.47328   1.49874   1.49956
 Alpha virt. eigenvalues --    1.50683   1.51117   1.52236   1.52414   1.52826
 Alpha virt. eigenvalues --    1.53165   1.53921   1.54674   1.55382   1.55717
 Alpha virt. eigenvalues --    1.56061   1.57314   1.58531   1.58760   1.60583
 Alpha virt. eigenvalues --    1.62343   1.62730   1.63219   1.64204   1.66512
 Alpha virt. eigenvalues --    1.67840   1.68116   1.68619   1.69063   1.69246
 Alpha virt. eigenvalues --    1.69776   1.70464   1.71118   1.72615   1.73237
 Alpha virt. eigenvalues --    1.74690   1.75513   1.76119   1.76671   1.77223
 Alpha virt. eigenvalues --    1.77582   1.78651   1.78944   1.79861   1.80020
 Alpha virt. eigenvalues --    1.82077   1.82765   1.83606   1.83945   1.84417
 Alpha virt. eigenvalues --    1.86469   1.87322   1.88519   1.90713   1.90839
 Alpha virt. eigenvalues --    1.92198   1.95209   1.95941   1.96389   1.97501
 Alpha virt. eigenvalues --    2.00309   2.02188   2.02578   2.02666   2.04760
 Alpha virt. eigenvalues --    2.08857   2.09665   2.10165   2.12221   2.12688
 Alpha virt. eigenvalues --    2.14168   2.15422   2.16583   2.16911   2.17241
 Alpha virt. eigenvalues --    2.22909   2.24214   2.25029   2.27671   2.28388
 Alpha virt. eigenvalues --    2.29016   2.30483   2.31051   2.31171   2.31517
 Alpha virt. eigenvalues --    2.31657   2.32286   2.33606   2.34145   2.36648
 Alpha virt. eigenvalues --    2.37795   2.38886   2.38981   2.40434   2.40896
 Alpha virt. eigenvalues --    2.44458   2.45381   2.48966   2.50867   2.50991
 Alpha virt. eigenvalues --    2.51362   2.52820   2.53305   2.56672   2.58424
 Alpha virt. eigenvalues --    2.63448   2.63534   2.64085   2.65116   2.65808
 Alpha virt. eigenvalues --    2.65997   2.69007   2.69657   2.72682   2.73413
 Alpha virt. eigenvalues --    2.73537   2.74046   2.74665   2.75788   2.76003
 Alpha virt. eigenvalues --    2.76473   2.77691   2.81109   2.81303   2.81683
 Alpha virt. eigenvalues --    2.82783   2.84291   2.86194   2.86976   2.89801
 Alpha virt. eigenvalues --    2.90932   2.91343   2.92723   2.93754   2.94560
 Alpha virt. eigenvalues --    2.94767   2.95281   2.96067   2.96571   2.98572
 Alpha virt. eigenvalues --    2.98942   2.99728   3.01013   3.01496   3.03378
 Alpha virt. eigenvalues --    3.03527   3.04570   3.08555   3.08653   3.10339
 Alpha virt. eigenvalues --    3.12641   3.13817   3.14539   3.14557   3.14686
 Alpha virt. eigenvalues --    3.15040   3.16225   3.16608   3.17615   3.18670
 Alpha virt. eigenvalues --    3.18883   3.19546   3.20190   3.22854   3.25326
 Alpha virt. eigenvalues --    3.25364   3.26429   3.29422   3.29737   3.29809
 Alpha virt. eigenvalues --    3.29974   3.31347   3.31543   3.32552   3.33279
 Alpha virt. eigenvalues --    3.33411   3.34903   3.35107   3.36367   3.38712
 Alpha virt. eigenvalues --    3.40124   3.42934   3.44583   3.45640   3.46241
 Alpha virt. eigenvalues --    3.47459   3.47872   3.48302   3.50067   3.52155
 Alpha virt. eigenvalues --    3.54919   3.58335   3.61442   3.64744   3.65441
 Alpha virt. eigenvalues --    3.69934   3.70529   3.71440   3.71608   3.87110
 Alpha virt. eigenvalues --    3.87230   3.88111   3.89740   3.90037   3.91290
 Alpha virt. eigenvalues --    3.94389   3.94744   4.00886   4.06702   4.07343
 Alpha virt. eigenvalues --    4.07459   4.14836   4.34590   4.44974   4.53749
 Alpha virt. eigenvalues --    4.77570   4.78304   4.78795   4.78893   4.80094
 Alpha virt. eigenvalues --    4.81029   4.81095   4.84976   4.91061   4.92591
 Alpha virt. eigenvalues --    4.96665   4.96727   5.06640   5.09705   5.10984
 Alpha virt. eigenvalues --    5.11061   5.16310   5.16408   5.37919   5.50062
 Alpha virt. eigenvalues --    5.50219   5.59905   5.62586   5.68137   5.68235
 Alpha virt. eigenvalues --    5.94420  23.22546  23.24496  23.42210  23.42303
 Alpha virt. eigenvalues --   23.53868  23.56431  23.71684  23.78711  23.78833
 Alpha virt. eigenvalues --   23.81497  23.85326  23.86168  23.86994  23.98928
 Alpha virt. eigenvalues --   23.99042  24.05242  24.05365  24.11830  24.11946
 Alpha virt. eigenvalues --   24.15674  24.15794  35.27510  49.73699  49.84589
 Alpha virt. eigenvalues --   49.86477  49.86540  49.92865  49.92958  49.97031
 Alpha virt. eigenvalues --   49.98969
  Beta  occ. eigenvalues --  -19.20659 -19.20569 -19.16235 -19.16144 -19.13559
  Beta  occ. eigenvalues --  -19.13457 -19.10063 -19.09978 -14.53085 -10.25879
  Beta  occ. eigenvalues --  -10.25483 -10.24848 -10.24742 -10.23323 -10.23205
  Beta  occ. eigenvalues --  -10.20746 -10.20661 -10.19579 -10.19430 -10.18933
  Beta  occ. eigenvalues --  -10.18804 -10.18381 -10.18275 -10.18146 -10.18048
  Beta  occ. eigenvalues --  -10.18045 -10.17918 -10.17467 -10.17308 -10.17071
  Beta  occ. eigenvalues --   -1.25695  -1.10629  -1.08319  -1.08222  -1.05060
  Beta  occ. eigenvalues --   -1.04960  -1.04042  -1.03151  -0.86944  -0.86822
  Beta  occ. eigenvalues --   -0.81199  -0.80643  -0.76759  -0.76297  -0.76192
  Beta  occ. eigenvalues --   -0.74600  -0.72551  -0.69035  -0.68938  -0.66539
  Beta  occ. eigenvalues --   -0.65916  -0.63148  -0.62750  -0.61930  -0.58795
  Beta  occ. eigenvalues --   -0.58644  -0.56339  -0.55907  -0.55099  -0.54508
  Beta  occ. eigenvalues --   -0.53903  -0.52520  -0.51904  -0.51381  -0.51201
  Beta  occ. eigenvalues --   -0.50437  -0.49403  -0.47813  -0.47472  -0.47328
  Beta  occ. eigenvalues --   -0.46690  -0.46334  -0.46235  -0.44371  -0.44160
  Beta  occ. eigenvalues --   -0.43967  -0.43639  -0.43413  -0.42657  -0.41898
  Beta  occ. eigenvalues --   -0.41628  -0.41378  -0.41116  -0.40601  -0.38798
  Beta  occ. eigenvalues --   -0.37911  -0.37812  -0.37709  -0.37486  -0.37086
  Beta  occ. eigenvalues --   -0.36639  -0.36551  -0.36146  -0.35806  -0.35630
  Beta  occ. eigenvalues --   -0.34293  -0.34187  -0.33093  -0.29379  -0.29077
  Beta  occ. eigenvalues --   -0.28490  -0.28372  -0.25809  -0.25366  -0.25261
  Beta  occ. eigenvalues --   -0.24791  -0.22147  -0.21981
  Beta virt. eigenvalues --   -0.12785  -0.07250  -0.07140  -0.05631  -0.01437
  Beta virt. eigenvalues --   -0.01333   0.01020   0.01202   0.03727   0.03795
  Beta virt. eigenvalues --    0.05461   0.06318   0.06739   0.06923   0.07251
  Beta virt. eigenvalues --    0.07474   0.07896   0.08272   0.08923   0.10149
  Beta virt. eigenvalues --    0.11068   0.11751   0.12200   0.12347   0.12893
  Beta virt. eigenvalues --    0.13519   0.14304   0.14575   0.15361   0.16132
  Beta virt. eigenvalues --    0.16260   0.16660   0.16876   0.17533   0.19762
  Beta virt. eigenvalues --    0.20513   0.21804   0.22078   0.24263   0.24461
  Beta virt. eigenvalues --    0.25195   0.25510   0.25802   0.26525   0.27109
  Beta virt. eigenvalues --    0.27670   0.28494   0.29816   0.30205   0.30752
  Beta virt. eigenvalues --    0.30912   0.31242   0.32230   0.32417   0.33011
  Beta virt. eigenvalues --    0.34782   0.35466   0.35697   0.35801   0.36185
  Beta virt. eigenvalues --    0.36509   0.37248   0.37492   0.37645   0.38352
  Beta virt. eigenvalues --    0.38499   0.39400   0.40016   0.40079   0.40382
  Beta virt. eigenvalues --    0.40759   0.41089   0.41720   0.42464   0.42711
  Beta virt. eigenvalues --    0.43026   0.43230   0.43461   0.43906   0.44370
  Beta virt. eigenvalues --    0.44791   0.45299   0.45630   0.46068   0.46618
  Beta virt. eigenvalues --    0.46731   0.47691   0.48243   0.49089   0.49224
  Beta virt. eigenvalues --    0.49880   0.50206   0.51031   0.51559   0.52056
  Beta virt. eigenvalues --    0.52250   0.52634   0.53103   0.54040   0.54588
  Beta virt. eigenvalues --    0.55081   0.55859   0.56722   0.56832   0.57195
  Beta virt. eigenvalues --    0.57501   0.57985   0.58033   0.58403   0.58573
  Beta virt. eigenvalues --    0.58729   0.59304   0.59689   0.60202   0.60691
  Beta virt. eigenvalues --    0.61286   0.61837   0.62186   0.62951   0.63214
  Beta virt. eigenvalues --    0.63339   0.63546   0.64347   0.64677   0.64861
  Beta virt. eigenvalues --    0.65178   0.66090   0.66555   0.67438   0.68127
  Beta virt. eigenvalues --    0.69163   0.69254   0.70538   0.70790   0.71769
  Beta virt. eigenvalues --    0.72579   0.74122   0.74975   0.75085   0.76026
  Beta virt. eigenvalues --    0.76878   0.77253   0.77968   0.78359   0.79060
  Beta virt. eigenvalues --    0.79190   0.79682   0.80040   0.80101   0.80618
  Beta virt. eigenvalues --    0.80899   0.81459   0.82160   0.82853   0.83259
  Beta virt. eigenvalues --    0.83827   0.84228   0.85080   0.85411   0.86156
  Beta virt. eigenvalues --    0.87495   0.88656   0.88752   0.89474   0.90121
  Beta virt. eigenvalues --    0.90877   0.91593   0.92662   0.93906   0.94423
  Beta virt. eigenvalues --    0.94562   0.95662   0.95685   0.96946   0.97401
  Beta virt. eigenvalues --    0.98137   0.98677   0.99657   1.00527   1.01155
  Beta virt. eigenvalues --    1.02854   1.04141   1.04646   1.05547   1.05876
  Beta virt. eigenvalues --    1.07460   1.09172   1.09739   1.11214   1.11615
  Beta virt. eigenvalues --    1.13339   1.14033   1.14450   1.14966   1.15113
  Beta virt. eigenvalues --    1.15309   1.16372   1.17676   1.19520   1.19953
  Beta virt. eigenvalues --    1.20189   1.22044   1.23151   1.23268   1.23868
  Beta virt. eigenvalues --    1.23895   1.26474   1.27032   1.28578   1.28844
  Beta virt. eigenvalues --    1.32323   1.33896   1.36129   1.37448   1.37812
  Beta virt. eigenvalues --    1.38234   1.40384   1.42816   1.44200   1.44658
  Beta virt. eigenvalues --    1.46127   1.46682   1.46954   1.47353   1.49883
  Beta virt. eigenvalues --    1.49957   1.50696   1.51128   1.52249   1.52422
  Beta virt. eigenvalues --    1.52827   1.53169   1.53931   1.54677   1.55384
  Beta virt. eigenvalues --    1.55721   1.56065   1.57324   1.58539   1.58771
  Beta virt. eigenvalues --    1.60599   1.62374   1.62739   1.63228   1.64216
  Beta virt. eigenvalues --    1.66540   1.67844   1.68139   1.68624   1.69072
  Beta virt. eigenvalues --    1.69262   1.70299   1.70537   1.71128   1.72671
  Beta virt. eigenvalues --    1.73259   1.74747   1.75563   1.76120   1.76751
  Beta virt. eigenvalues --    1.78550   1.78928   1.79760   1.80012   1.80379
  Beta virt. eigenvalues --    1.81397   1.82118   1.82806   1.83618   1.83946
  Beta virt. eigenvalues --    1.84423   1.86474   1.87329   1.88525   1.90713
  Beta virt. eigenvalues --    1.90839   1.92206   1.95209   1.95943   1.96393
  Beta virt. eigenvalues --    1.97506   2.00317   2.02192   2.02580   2.02670
  Beta virt. eigenvalues --    2.04767   2.08864   2.09674   2.10181   2.12226
  Beta virt. eigenvalues --    2.14142   2.14443   2.15447   2.16754   2.16918
[...]
   384. RY*(   7) C  31                  0.00006     2.60566   
   385. RY*(   8) C  31                  0.00004     3.48171   
   386. RY*(   9) C  31                  0.00003     1.58672   
   387. RY*(  10) C  31                  0.00003     2.57413   
   388. RY*(  11) C  31                  0.00000    21.36261   
   389. RY*(  12) C  31                  0.00000     2.65921   
   390. RY*(  13) C  31                  0.00001     2.19175   
   391. RY*(   1) C  32                  0.00250     1.37872   
   392. RY*(   2) C  32                  0.00111     1.37170   
   393. RY*(   3) C  32                  0.00042     0.75811   
   394. RY*(   4) C  32                  0.00037     1.07734   
   395. RY*(   5) C  32                  0.00026     1.49502   
   396. RY*(   6) C  32                  0.00011     3.27609   
   397. RY*(   7) C  32                  0.00006     4.18953   
   398. RY*(   8) C  32                  0.00003     4.96406   
   399. RY*(   9) C  32                  0.00003     1.52094   
   400. RY*(  10) C  32                  0.00002     2.13744   
   401. RY*(  11) C  32                  0.00001     2.11261   
   402. RY*(  12) C  32                  0.00000     2.62567   
   403. RY*(  13) C  32                  0.00000    18.37032   
   404. RY*(   1) H  33                  0.00079     0.44446   
   405. RY*(   2) H  33                  0.00011     2.26561   
   406. RY*(   1) C  34                  0.00311     1.47919   
   407. RY*(   2) C  34                  0.00202     1.34056   
   408. RY*(   3) C  34                  0.00151     1.26083   
   409. RY*(   4) C  34                  0.00090     2.39929   
   410. RY*(   5) C  34                  0.00079     1.24732   
   411. RY*(   6) C  34                  0.00030     1.66560   
   412. RY*(   7) C  34                  0.00025     1.68774   
   413. RY*(   8) C  34                  0.00009     2.91024   
   414. RY*(   9) C  34                  0.00006     2.40837   
   415. RY*(  10) C  34                  0.00002     3.31030   
   416. RY*(  11) C  34                  0.00002     2.60534   
   417. RY*(  12) C  34                  0.00001     2.71033   
   418. RY*(  13) C  34                  0.00001    20.84611   
   419. RY*(   1) H  35                  0.00129     0.46459   
   420. RY*(   2) H  35                  0.00014     2.26150   
   421. RY*(   1) C  36                  0.00324     1.28148   
   422. RY*(   2) C  36                  0.00153     1.52389   
   423. RY*(   3) C  36                  0.00138     1.50284   
   424. RY*(   4) C  36                  0.00081     2.25625   
   425. RY*(   5) C  36                  0.00041     1.91027   
   426. RY*(   6) C  36                  0.00037     1.66701   
   427. RY*(   7) C  36                  0.00021     0.62726   
   428. RY*(   8) C  36                  0.00015     3.46060   
   429. RY*(   9) C  36                  0.00004     2.39784   
   430. RY*(  10) C  36                  0.00004     5.16072   
   431. RY*(  11) C  36                  0.00001    18.41849   
   432. RY*(  12) C  36                  0.00001     2.18097   
   433. RY*(  13) C  36                  0.00000     2.64738   
   434. RY*(   1) H  37                  0.00116     0.39275   
   435. RY*(   2) H  37                  0.00010     2.24638   
   436. RY*(   1) O  38                  0.00084     0.94137   
   437. RY*(   2) O  38                  0.00057     1.40324   
   438. RY*(   3) O  38                  0.00011     1.68193   
   439. RY*(   4) O  38                  0.00008     1.36193   
   440. RY*(   5) O  38                  0.00001     3.52858   
   441. RY*(   6) O  38                  0.00000     5.00075   
   442. RY*(   7) O  38                  0.00001     4.98494   
   443. RY*(   8) O  38                  0.00000     4.76074   
   444. RY*(   9) O  38                  0.00000    49.35556   
   445. RY*(  10) O  38                  0.00000     2.86290   
   446. RY*(  11) O  38                  0.00000     2.71921   
   447. RY*(  12) O  38                  0.00000     2.90284   
   448. RY*(  13) O  38                  0.00001     3.12644   
   449. RY*(   1) H  39                  0.00042     0.97122   
   450. RY*(   2) H  39                  0.00020     1.65315   
   451. RY*(   1) O  40                  0.00170     1.07494   
   452. RY*(   2) O  40                  0.00107     1.17559   
   453. RY*(   3) O  40                  0.00018     1.91172   
   454. RY*(   4) O  40                  0.00010     2.30007   
   455. RY*(   5) O  40                  0.00006     2.78947   
   456. RY*(   6) O  40                  0.00004     2.84031   
   457. RY*(   7) O  40                  0.00001     5.09012   
   458. RY*(   8) O  40                  0.00000     4.97257   
   459. RY*(   9) O  40                  0.00000    49.61750   
   460. RY*(  10) O  40                  0.00000     4.90082   
   461. RY*(  11) O  40                  0.00000     3.01999   
   462. RY*(  12) O  40                  0.00001     3.21757   
   463. RY*(  13) O  40                  0.00000     2.92029   
   464. RY*(   1) C  41                  0.00113     1.40654   
   465. RY*(   2) C  41                  0.00103     1.39906   
   466. RY*(   3) C  41                  0.00068     0.90869   
   467. RY*(   4) C  41                  0.00026     0.97837   
   468. RY*(   5) C  41                  0.00010     1.07676   
   469. RY*(   6) C  41                  0.00005     1.87787   
   470. RY*(   7) C  41                  0.00000    23.16126   
   471. RY*(   8) C  41                  0.00001     2.43861   
   472. RY*(   9) C  41                  0.00001     2.41996   
   473. RY*(  10) C  41                  0.00000     1.69616   
   474. RY*(  11) C  41                  0.00000     1.70330   
   475. RY*(  12) C  41                  0.00000     1.36550   
   476. RY*(  13) C  41                  0.00000     2.68592   
   477. RY*(   1) H  42                  0.00100     0.39408   
   478. RY*(   2) H  42                  0.00006     2.11760   
   479. RY*(   1) H  43                  0.00046     0.37914   
   480. RY*(   2) H  43                  0.00006     2.04732   
   481. RY*(   1) H  44                  0.00102     0.46027   
   482. RY*(   2) H  44                  0.00007     2.07584   
   483. RY*(   1) C  45                  0.00183     0.89658   
   484. RY*(   2) C  45                  0.00162     0.91140   
   485. RY*(   3) C  45                  0.00093     1.19351   
   486. RY*(   4) C  45                  0.00049     1.01162   
   487. RY*(   5) C  45                  0.00012     2.79718   
   488. RY*(   6) C  45                  0.00013     1.85097   
   489. RY*(   7) C  45                  0.00009     2.26910   
   490. RY*(   8) C  45                  0.00005     2.39784   
   491. RY*(   9) C  45                  0.00003     2.10943   
   492. RY*(  10) C  45                  0.00003     2.07322   
   493. RY*(  11) C  45                  0.00002     3.00654   
   494. RY*(  12) C  45                  0.00001     2.55773   
   495. RY*(  13) C  45                  0.00000    22.59633   
   496. RY*(   1) H  46                  0.00099     0.47652   
   497. RY*(   2) H  46                  0.00006     2.32333   
   498. RY*(   1) H  47                  0.00204     0.54586   
   499. RY*(   2) H  47                  0.00008     2.34969   
   539. BD*(   1) C   1 - H   2          0.00813     0.44071   
   540. BD*(   1) C   1 - C   3          0.00734     0.64764   
   541. BD*(   2) C   1 - C   3          0.06580     0.03972   
   542. BD*(   1) C   1 - C   7          0.01277     0.49952   
   543. BD*(   1) C   3 - H   4          0.00834     0.44426   
   544. BD*(   1) C   3 - C   5          0.02594     0.46946   
   545. BD*(   1) C   5 - O   6          0.00581     0.59753   
   546. BD*(   2) C   5 - O   6          0.08811     0.02033   
   547. BD*(   1) C   5 - C  45          0.03408     0.37837   
   548. BD*(   1) C   7 - C   8          0.01141     0.56338   
   549. BD*(   2) C   7 - C   8          0.19980     0.02890  554(v),557(v),541(v),180(g)
                                                    206(v),168(g),167(g),111(v)
   550. BD*(   1) C   7 - C   9          0.01310     0.55955   
   551. BD*(   1) C   8 - C  10          0.00690     0.58025   
   552. BD*(   1) C   8 - H  11          0.00684     0.44845   
   553. BD*(   1) C   9 - C  12          0.01223     0.58176   
   554. BD*(   2) C   9 - C  12          0.16031     0.02910  549(v),557(v),195(g),541(r)
                                                    563(v)
   555. BD*(   1) C   9 - H  13          0.00647     0.44766   
   556. BD*(   1) C  10 - C  14          0.01304     0.55469   
   557. BD*(   2) C  10 - C  14          0.19192     0.01825  549(v),554(v),240(g),208(g)
                                                    206(g)
   558. BD*(   1) C  10 - H  15          0.00675     0.43396   
   559. BD*(   1) C  12 - C  14          0.02297     0.52322   
   560. BD*(   1) C  12 - O  18          0.01405     0.36312   
   561. BD*(   1) C  14 - O  16          0.01096     0.34951   
   562. BD*(   1) O  16 - H  17          0.00368     0.38267   
   563. BD*(   1) O  18 - C  19          0.00519     0.28463   
   564. BD*(   1) C  19 - H  20          0.00857     0.39527   
   565. BD*(   1) C  19 - H  21          0.00444     0.41006   
   566. BD*(   1) C  19 - H  22          0.00919     0.40737   
   567. BD*(   1) C  23 - H  24          0.00826     0.44168   
   568. BD*(   1) C  23 - C  25          0.00730     0.64971   
   569. BD*(   2) C  23 - C  25          0.06538     0.04268   
   570. BD*(   1) C  23 - C  29          0.01270     0.50086   
   571. BD*(   1) C  25 - H  26          0.00838     0.44604   
   572. BD*(   1) C  25 - C  27          0.02563     0.47858   
   573. BD*(   1) C  27 - O  28          0.00641     0.59406   
   574. BD*(   2) C  27 - O  28          0.08692     0.02347   
   575. BD*(   1) C  27 - C  45          0.02901     0.39177   
   576. BD*(   1) C  29 - C  30          0.01141     0.56438   
   577. BD*(   2) C  29 - C  30          0.19982     0.03017  582(v),585(v),569(v),367(g)
                                                    393(v),355(g),354(g),298(v)
   578. BD*(   1) C  29 - C  31          0.01309     0.56081   
   579. BD*(   1) C  30 - C  32          0.00690     0.58130   
   580. BD*(   1) C  30 - H  33          0.00685     0.44917   
   581. BD*(   1) C  31 - C  34          0.01222     0.58318   
   582. BD*(   2) C  31 - C  34          0.16013     0.03046  577(v),585(v),382(g),569(r)
                                                    591(v)
   583. BD*(   1) C  31 - H  35          0.00646     0.44940   
   584. BD*(   1) C  32 - C  36          0.01304     0.55563   
   585. BD*(   2) C  32 - C  36          0.19222     0.01922  577(v),582(v),427(g),395(g)
                                                    393(g)
   586. BD*(   1) C  32 - H  37          0.00676     0.43480   
   587. BD*(   1) C  34 - C  36          0.02296     0.52449   
   588. BD*(   1) C  34 - O  40          0.01407     0.36403   
   589. BD*(   1) C  36 - O  38          0.01097     0.35024   
   590. BD*(   1) O  38 - H  39          0.00369     0.38346   
   591. BD*(   1) O  40 - C  41          0.00519     0.28578   
   592. BD*(   1) C  41 - H  42          0.00858     0.39609   
   593. BD*(   1) C  41 - H  43          0.00446     0.41077   
   594. BD*(   1) C  41 - H  44          0.00921     0.40809   
   595. BD*(   1) C  45 - H  46          0.00598     0.40291   
   596. BD*(   1) C  45 - H  47          0.00550     0.41172   
       -------------------------------
              Total Lewis   94.86749  ( 97.8151%)
        Valence non-Lewis    1.93364  (  1.9937%)
        Rydberg non-Lewis    0.18540  (  0.1912%)
       -------------------------------
            Total unit  1   96.98654  (100.0000%)
           Charge unit  1    0.01346
 
 Molecular unit  2  (NO2)
    59. BD (   1) O  48 - N  50          0.98855    -1.00703  600(g),597(g),498(r)
    60. BD (   1) O  49 - N  50          0.99663    -1.01649  597(g),502(v)
    61. BD (   2) O  49 - N  50          0.99779    -0.49871  599(g),501(v),597(g),339(r)
    62. BD (   3) O  49 - N  50          0.99473    -0.61204  600(g),597(g),500(v),573(r)
    90. CR (   1) O  48                  0.99990   -19.01266  598(v),526(v),600(v),530(v)
    91. CR (   1) O  49                  0.99989   -19.01168  526(v),597(v),530(v)
    92. CR (   1) N  50                  0.99980   -14.41562  597(g)
   105. LP (   1) O  48                  0.99052    -0.81234  598(v),526(v),600(v),597(g)
                                                    530(v),528(v),529(v),533(v)
                                                    596(r)
   106. LP (   2) O  48                  0.75967    -0.33626  600(v),599(v),597(g),527(v)
                                                    528(v),526(v),501(g),596(r)
   107. LP (   3) O  48                  0.73721    -0.37278  599(v),600(v),597(g),598(v)
                                                    526(v),528(v),500(g),527(v)
                                                    503(g),509(g),535(v),498(r)
   108. LP (   1) O  49                  0.99087    -0.81025  597(v),526(v),530(v),528(v)
                                                    600(g)
   500. RY*(   1) O  48                  0.00116     1.29001   
   501. RY*(   2) O  48                  0.00070     0.92451   
   502. RY*(   3) O  48                  0.00007     1.87609   
   503. RY*(   4) O  48                  0.00003     3.75411   
   504. RY*(   5) O  48                  0.00002     1.62788   
   505. RY*(   6) O  48                  0.00000     4.76234   
   506. RY*(   7) O  48                  0.00000    49.50440   
   507. RY*(   8) O  48                  0.00000     4.63039   
   508. RY*(   9) O  48                  0.00000     2.82613   
   509. RY*(  10) O  48                  0.00000     2.97411   
   510. RY*(  11) O  48                  0.00000     3.01158   
   511. RY*(  12) O  48                  0.00000     2.79306   
   512. RY*(  13) O  48                  0.00000     3.67671   
   513. RY*(   1) O  49                  0.00126     1.30062   
   514. RY*(   2) O  49                  0.00078     0.91062   
   515. RY*(   3) O  49                  0.00007     2.01309   
   516. RY*(   4) O  49                  0.00000     4.68939   
   517. RY*(   5) O  49                  0.00001     4.59142   
   518. RY*(   6) O  49                  0.00000    49.19856   
   519. RY*(   7) O  49                  0.00001     1.06693   
   520. RY*(   8) O  49                  0.00000     4.74108   
   521. RY*(   9) O  49                  0.00001     3.17476   
   522. RY*(  10) O  49                  0.00000     2.92085   
   523. RY*(  11) O  49                  0.00000     3.19892   
   524. RY*(  12) O  49                  0.00001     2.95624   
   525. RY*(  13) O  49                  0.00001     2.81572   
   526. RY*(   1) N  50                  0.00915     1.00307   
   527. RY*(   2) N  50                  0.00426     2.17324   
   528. RY*(   3) N  50                  0.00156     3.17606   
   529. RY*(   4) N  50                  0.00100     1.45555   
   530. RY*(   5) N  50                  0.00077     1.12358   
   531. RY*(   6) N  50                  0.00008     1.65619   
   532. RY*(   7) N  50                  0.00000     3.56291   
   533. RY*(   8) N  50                  0.00000     3.43528   
   534. RY*(   9) N  50                  0.00001     1.86813   
   535. RY*(  10) N  50                  0.00001     2.93369   
   536. RY*(  11) N  50                  0.00000    33.01770   
   537. RY*(  12) N  50                  0.00000     2.09186   
   538. RY*(  13) N  50                  0.00000     3.50526   
   597. BD*(   1) O  48 - N  50          0.04228     0.34328   
   598. BD*(   1) O  49 - N  50          0.03083     0.35298   
   599. BD*(   2) O  49 - N  50          0.23989    -0.10063  600(g),598(g),527(g),514(g)
                                                    501(v),530(g),341(r),339(r)
   600. BD*(   3) O  49 - N  50          0.22391     0.01240  598(g),599(g),513(g),597(g)
                                                    526(g),528(g),500(v),530(g)
                                                    521(g),523(g),546(r)
       -------------------------------
              Total Lewis   10.45555  ( 94.9344%)
        Valence non-Lewis    0.53691  (  4.8751%)
        Rydberg non-Lewis    0.02099  (  0.1905%)
       -------------------------------
            Total unit  2   11.01345  (100.0000%)
           Charge unit  2    0.48655
 1\1\GINC-N01\SP\UB3LYP\6-311G(d)\C21H20N1O8(2)\UNKNOWN\07-Nov-2024\0\\
 # pop=nbo b3lyp/6-311g(d) scrf=(smd,solvent=generic,read) temperature=
 298.15 Geom=Check Guess=Read\\Reagente 1\\0,2\C,0,-2.6841049157,0.1336
 107802,-0.3406136542\H,0,-2.2805937987,0.5180860226,-1.2742982993\C,0,
 -1.9437189777,0.2637019597,0.7793564276\H,0,-2.3047330289,-0.088292513
 7,1.7415721697\C,0,-0.611956724,0.8812957703,0.8515602694\O,0,-0.04021
 31145,0.9858305934,1.926885171\C,0,-4.0038257951,-0.472777886,-0.46598
 01743\C,0,-4.6306341316,-0.4770637547,-1.7217198185\C,0,-4.687443463,-
 1.0690510469,0.6120956819\C,0,-5.8901384433,-1.0377201449,-1.894035649
 4\H,0,-4.1281257247,-0.0282887035,-2.5724227452\C,0,-5.942312428,-1.63
 22018147,0.4557808097\H,0,-4.2529244597,-1.0972129023,1.6049271211\C,0
 ,-6.5606582694,-1.6129745676,-0.8145848765\H,0,-6.3664251452,-1.020955
 4776,-2.8707490571\O,0,-7.8013610709,-2.1530763103,-0.9185688729\H,0,-
 8.1162964584,-2.0749278141,-1.8301897572\O,0,-6.5884235249,-2.14099162
 8,1.551057293\C,0,-6.757044088,-3.5672169865,1.5676549581\H,0,-5.78613
 42536,-4.0709169155,1.5175294863\H,0,-7.2367797783,-3.8030569148,2.517
 13633\H,0,-7.3915137448,-3.9053419896,0.7463860389\C,0,2.7702027191,0.
 0839162234,-0.1570714393\H,0,1.887841671,-0.5323917578,-0.3110919184\C
 ,0,2.6154781933,1.4215569324,-0.0755205663\H,0,3.4645593051,2.07862374
 38,0.0894117683\C,0,1.3405221503,2.1366957092,-0.1826832845\O,0,1.3173
 664499,3.358218807,-0.0791365924\C,0,4.0126623758,-0.6718255408,-0.058
 8193405\C,0,3.9682165216,-2.0691633751,-0.183734691\C,0,5.2702309399,-
 0.0703729275,0.1457380799\C,0,5.1241077905,-2.8352778202,-0.098054103\
 H,0,3.0149033076,-2.5623449891,-0.3441650907\C,0,6.4301017131,-0.82037
 51734,0.2357035077\H,0,5.366716344,1.0039156276,0.2531347167\C,0,6.360
 4604786,-2.2266272029,0.1183075258\H,0,5.0707391005,-3.91693429,-0.188
 4776726\O,0,7.5171558581,-2.9266612611,0.2381103698\H,0,7.3371639287,-
 3.8728007238,0.1448874485\O,0,7.6156954103,-0.1884909362,0.5028758788\
 C,0,8.5742158589,-0.1846326594,-0.5664516293\H,0,8.1565973984,0.295810
 609,-1.4573749461\H,0,9.4232344926,0.3968590945,-0.2081110063\H,0,8.90
 43589555,-1.1955251941,-0.8124919353\C,0,0.0424582623,1.3810555211,-0.
 4409118976\H,0,0.1910465425,0.5328452131,-1.1150580734\H,0,-0.63894124
 59,2.0693690613,-0.9450073701\O,0,-1.4523470568,4.6986767385,-1.083835
 2159\O,0,-0.438566675,5.9453182254,0.4126906494\N,0,-0.9322464517,4.95
 73665898,-0.0371250241\\Version=ES64L-G16RevA.03\State=2-A\HF=-1469.00
 75721\S2=0.75331\S2-1=0.\S2A=0.750008\RMSD=6.689e-09\Dipole=-0.8307816
 ,-4.1611229,-3.0519983\Quadrupole=22.8675338,-10.3086719,-12.5588619,-
 6.1039923,6.6439943,-0.608249\PG=C01 [X(C21H20N1O8)]\\@


 MY DESCRIPTION OF EXPERIENCE IS NOT WHAT HAPPENS
 TO A MAN.  EXPERIENCE IS WHAT A MAN DOES WITH WHAT
 HAPPENS TO HIM.
                         - CHUCK KNOX, SEATTLE SEAHAWKS, 1985
 Job cpu time:       0 days  0 hours  1 minutes  6.9 seconds.
 Elapsed time:       0 days  0 hours  1 minutes 15.4 seconds.
 File lengths (MBytes):  RWF=    658 Int=      0 D2E=      0 Chk=     69 Scr=      1
 Normal termination of Gaussian 16 at Thu Nov  7 10:18:25 2024.
