
                                 *****************
                                 * O   R   C   A *
                                 *****************

                                            #,                                       
                                            ###                                      
                                            ####                                     
                                            #####                                    
                                            ######                                   
                                           ########,                                 
                                     ,,################,,,,,                         
                               ,,#################################,,                 
                          ,,##########################################,,             
                       ,#########################################, ''#####,          
                    ,#############################################,,   '####,        
                  ,##################################################,,,,####,       
                ,###########''''           ''''###############################       
              ,#####''   ,,,,##########,,,,          '''####'''          '####       
            ,##' ,,,,###########################,,,                        '##       
           ' ,,###''''                  '''############,,,                           
         ,,##''                                '''############,,,,        ,,,,,,###''
      ,#''                                            '''#######################'''  
     '                                                          ''''####''''         
             ,#######,   #######,   ,#######,      ##                                
            ,#'     '#,  ##    ##  ,#'     '#,    #''#        ######   ,####,        
            ##       ##  ##   ,#'  ##            #'  '#       #        #'  '#        
            ##       ##  #######   ##           ,######,      #####,   #    #        
            '#,     ,#'  ##    ##  '#,     ,#' ,#      #,         ##   #,  ,#        
             '#######'   ##     ##  '#######'  #'      '#     #####' # '####'        



                  #######################################################
                  #                        -***-                        #
                  #          Department of theory and spectroscopy      #
                  #    Directorship and core code : Frank Neese         #
                  #        Max Planck Institute fuer Kohlenforschung    #
                  #                Kaiser Wilhelm Platz 1               #
                  #                 D-45470 Muelheim/Ruhr               #
                  #                      Germany                        #
                  #                                                     #
                  #                  All rights reserved                #
                  #                        -***-                        #
                  #######################################################


                         Program Version 5.0.4 -  RELEASE  -


 With contributions from (in alphabetic order):
   Daniel Aravena         : Magnetic Suceptibility
   Michael Atanasov       : Ab Initio Ligand Field Theory (pilot matlab implementation)
   Alexander A. Auer      : GIAO ZORA, VPT2 properties, NMR spectrum
   Ute Becker             : Parallelization
   Giovanni Bistoni       : ED, misc. LED, open-shell LED, HFLD
   Martin Brehm           : Molecular dynamics
   Dmytro Bykov           : SCF Hessian
   Vijay G. Chilkuri      : MRCI spin determinant printing, contributions to CSF-ICE
   Dipayan Datta          : RHF DLPNO-CCSD density
   Achintya Kumar Dutta   : EOM-CC, STEOM-CC
   Dmitry Ganyushin       : Spin-Orbit,Spin-Spin,Magnetic field MRCI
   Miquel Garcia          : C-PCM and meta-GGA Hessian, CC/C-PCM, Gaussian charge scheme
   Yang Guo               : DLPNO-NEVPT2, F12-NEVPT2, CIM, IAO-localization
   Andreas Hansen         : Spin unrestricted coupled pair/coupled cluster methods
   Benjamin Helmich-Paris : MC-RPA, TRAH-SCF, COSX integrals
   Lee Huntington         : MR-EOM, pCC
   Robert Izsak           : Overlap fitted RIJCOSX, COSX-SCS-MP3, EOM
   Marcus Kettner         : VPT2
   Christian Kollmar      : KDIIS, OOCD, Brueckner-CCSD(T), CCSD density, CASPT2, CASPT2-K
   Simone Kossmann        : Meta GGA functionals, TD-DFT gradient, OOMP2, MP2 Hessian
   Martin Krupicka        : Initial AUTO-CI
   Lucas Lang             : DCDCAS
   Marvin Lechner         : AUTO-CI (C++ implementation), FIC-MRCC
   Dagmar Lenk            : GEPOL surface, SMD
   Dimitrios Liakos       : Extrapolation schemes; Compound Job, initial MDCI parallelization
   Dimitrios Manganas     : Further ROCIS development; embedding schemes
   Dimitrios Pantazis     : SARC Basis sets
   Anastasios Papadopoulos: AUTO-CI, single reference methods and gradients
   Taras Petrenko         : DFT Hessian,TD-DFT gradient, ASA, ECA, R-Raman, ABS, FL, XAS/XES, NRVS
   Peter Pinski           : DLPNO-MP2, DLPNO-MP2 Gradient
   Christoph Reimann      : Effective Core Potentials
   Marius Retegan         : Local ZFS, SOC
   Christoph Riplinger    : Optimizer, TS searches, QM/MM, DLPNO-CCSD(T), (RO)-DLPNO pert. Triples
   Tobias Risthaus        : Range-separated hybrids, TD-DFT gradient, RPA, STAB
   Michael Roemelt        : Original ROCIS implementation
   Masaaki Saitow         : Open-shell DLPNO-CCSD energy and density
   Barbara Sandhoefer     : DKH picture change effects
   Avijit Sen             : IP-ROCIS
   Kantharuban Sivalingam : CASSCF convergence, NEVPT2, FIC-MRCI
   Bernardo de Souza      : ESD, SOC TD-DFT
   Georgi Stoychev        : AutoAux, RI-MP2 NMR, DLPNO-MP2 response
   Willem Van den Heuvel  : Paramagnetic NMR
   Boris Wezisla          : Elementary symmetry handling
   Frank Wennmohs         : Technical directorship


 We gratefully acknowledge several colleagues who have allowed us to
 interface, adapt or use parts of their codes:
   Stefan Grimme, W. Hujo, H. Kruse, P. Pracht,  : VdW corrections, initial TS optimization,
                  C. Bannwarth, S. Ehlert          DFT functionals, gCP, sTDA/sTD-DF
   Ed Valeev, F. Pavosevic, A. Kumar             : LibInt (2-el integral package), F12 methods
   Garnet Chan, S. Sharma, J. Yang, R. Olivares  : DMRG
   Ulf Ekstrom                                   : XCFun DFT Library
   Mihaly Kallay                                 : mrcc  (arbitrary order and MRCC methods)
   Jiri Pittner, Ondrej Demel                    : Mk-CCSD
   Frank Weinhold                                : gennbo (NPA and NBO analysis)
   Christopher J. Cramer and Donald G. Truhlar   : smd solvation model
   Lars Goerigk                                  : TD-DFT with DH, B97 family of functionals
   V. Asgeirsson, H. Jonsson                     : NEB implementation
   FAccTs GmbH                                   : IRC, NEB, NEB-TS, DLPNO-Multilevel, CI-OPT
                                                   MM, QMMM, 2- and 3-layer-ONIOM, Crystal-QMMM,
                                                   LR-CPCM, SF, NACMEs, symmetry and pop. for TD-DFT,
                                                   nearIR, NL-DFT gradient (VV10), updates on ESD,
                                                   ML-optimized integration grids
   S Lehtola, MJT Oliveira, MAL Marques          : LibXC Library
   Liviu Ungur et al                             : ANISO software


 Your calculation uses the libint2 library for the computation of 2-el integrals
 For citations please refer to: http://libint.valeyev.net

 Your ORCA version has been built with support for libXC version: 5.1.0
 For citations please refer to: https://tddft.org/programs/libxc/

 This ORCA versions uses:
   CBLAS   interface :  Fast vector & matrix operations
   LAPACKE interface :  Fast linear algebra routines
   SCALAPACK package :  Parallel linear algebra routines
   Shared memory     :  Shared parallel matrices
   BLAS/LAPACK       :  OpenBLAS 0.3.15  USE64BITINT DYNAMIC_ARCH NO_AFFINITY Zen SINGLE_THREADED
        Core in use  :  Zen
   Copyright (c) 2011-2014, The OpenBLAS Project


Your calculation utilizes the DFT-NL dispersion correction.
Cite in your paper:
Vydrov, O. A.; Van Voorhis, T. J. Chem. Phys. 2010, 133, 244103
Hujo, W.; Grimme, S. J. Chem. Theory Comput. 2011, 7, 3866 
   

================================================================================

----- Orbital basis set information -----
Your calculation utilizes the basis: 6-311G(d)
   H, Li - Ne  : R. Krishnan, J. S. Binkley, R. Seeger and J. A. Pople, J. Chem. Phys. 72, 650 (1980).
   Na - Ar     : A. D. McLean and G. S. Chandler J. Chem. Phys. 72, 5639, (1980).
   K  - Ca     : J.-P. Blaudeau, M. P. McGrath, L. A. Curtiss and L. Radom, J. Chem. Phys. 107, 5016 (1997).
   Ga - Kr     : L. A. Curtiss, M. P. McGrath, J.-P. Blandeau, N. E. Davis, R. C. Binning and L. Radom, J. Chem. Phys. 103, 6104 (1995).
   Pol./Diff.
   H, Li - Cl  : T. Clark, J. Chandrasekhar and P. v. R. Schleyer, J. Comp. Chem. 4, 294 (1983).
   H - Ne      : M. J. Frisch, J. A. Pople and J. S. Binkley, J. Chem. Phys. 80, 3265 (1984).

----- AuxJ basis set information -----
Your calculation utilizes the auxiliary basis: def2/J
   F. Weigend, Phys. Chem. Chem. Phys. 8, 1057 (2006).

================================================================================
                                        WARNINGS
                       Please study these warnings very carefully!
================================================================================

Using LibXC functional ID 531 : wB97M-V exchange-correlation functional
[ 1]  N. Mardirossian and M. Head-Gordon, J. Chem. Phys. 144, 214110 (2016)
Using LibXC functional ID 531 : wB97M-V exchange-correlation functional
[ 1]  N. Mardirossian and M. Head-Gordon, J. Chem. Phys. 144, 214110 (2016)

WARNING: B97M-V or wB97M-V functional requested.
  ===> : libXC variant has now been activated.
         Any manually given DFX/HFX/RangeSep scaling parameters are IGNORED!

Your calculation utilizes LibXC
 by S Lehtola, C Steigemann, MJT Oliveira & MAL Marques
Please cite in your paper:
 S Lehtola, C Steigemann, MJT Oliveira & MAL Marques, SoftwareX, 7, (2018), 1.
   


WARNING: your system is open-shell and RHF/RKS was chosen
  ===> : WILL SWITCH to UHF/UKS


WARNING: Geometry Optimization
  ===> : Switching off AutoStart
         For restart on a previous wavefunction, please use MOREAD

WARNING: Analytic gradients for DFT-NL dispersion can only be done using the self-consistent method,
  ===>   Switching to SCNL

WARNING: Self-consistent DFT-NL dispersion not compatible with AutoTRAH.
  ===>   Switching AutoTRAH off


INFO   : the flag for use of the SHARK integral package has been found!

================================================================================
                                       INPUT FILE
================================================================================
NAME = CURCUMIN-OPT-FREQ-Reag-WB97M-V-6-311G-D-298.inp
|  1> ! Opt NumFreq wb97M-V 6-311G(d) CPCM RIJDX
|  2> %maxcore 2000
|  3> %cpcm
|  4> epsilon 7 # Dielectric constant
|  5> refrac 1.85341 # Refractive index
|  6> end
|  7> 
|  8> * xyz 0 2
|  9> C     -2.751635    0.256058   -0.312564
| 10> H     -2.341337    0.675132   -1.228229
| 11> C     -1.998279    0.298418    0.805510
| 12> H     -2.364682   -0.091341    1.750987
| 13> C     -0.643946    0.861900    0.897689
| 14> O     -0.060407    0.887355    1.971457
| 15> C     -4.093930   -0.293825   -0.457346
| 16> C     -4.730160   -0.207514   -1.705364
| 17> C     -4.790893   -0.921728    0.593892
| 18> C     -6.010944   -0.711446   -1.895166
| 19> H     -4.217903    0.267623   -2.535693
| 20> C     -6.067014   -1.429181    0.419890
| 21> H     -4.350054   -1.019209    1.579525
| 22> C     -6.694027   -1.318931   -0.841558
| 23> H     -6.493820   -0.624671   -2.864908
| 24> O     -7.954729   -1.806719   -0.962212
| 25> H     -8.273583   -1.668120   -1.865243
| 26> O     -6.723111   -1.972090    1.492617
| 27> C     -6.944534   -3.389985    1.434552
| 28> H     -5.993450   -3.925579    1.348123
| 29> H     -7.425351   -3.658790    2.374681
| 30> H     -7.597478   -3.659899    0.602582
| 31> C      2.698306   -0.003742   -0.184978
| 32> H      1.792465   -0.578045   -0.363154
| 33> C      2.594082    1.332352   -0.030504
| 34> H      3.468268    1.947962    0.161071
| 35> C      1.345820    2.098566   -0.086866
| 36> O      1.368921    3.312774    0.082083
| 37> C      3.912516   -0.808800   -0.139369
| 38> C      3.815157   -2.194816   -0.338400
| 39> C      5.193132   -0.265822    0.084827
| 40> C      4.942378   -3.006369   -0.305057
| 41> H      2.842945   -2.643303   -0.515701
| 42> C      6.324963   -1.061673    0.123272
| 43> H      5.330341    0.796862    0.248582
| 44> C      6.202153   -2.456064   -0.068483
| 45> H      4.848112   -4.078902   -0.452677
| 46> O      7.332900   -3.203542    0.002458
| 47> H      7.117122   -4.136044   -0.139478
| 48> O      7.535273   -0.489053    0.412317
| 49> C      8.484971   -0.462874   -0.664542
| 50> H      8.078633    0.079824   -1.524393
| 51> H      9.357780    0.066918   -0.283886
| 52> H      8.775369   -1.470507   -0.967492
| 53> C      0.018587    1.406103   -0.372506
| 54> H      0.130300    0.590509   -1.092464
| 55> H     -0.640617    2.145105   -0.832419
| 56> O     -1.356703    4.806173   -0.822513
| 57> O     -0.285703    5.932410    0.728617
| 58> N     -0.819257    4.988892    0.231428
| 59> *
| 60> 
| 61>                          ****END OF INPUT****
================================================================================

                       *****************************
                       * Geometry Optimization Run *
                       *****************************

Geometry optimization settings:
Update method            Update   .... BFGS
Choice of coordinates    CoordSys .... Z-matrix Internals
Initial Hessian          InHess   .... Almoef's Model

Convergence Tolerances:
Energy Change            TolE     ....  5.0000e-06 Eh
Max. Gradient            TolMAXG  ....  3.0000e-04 Eh/bohr
RMS Gradient             TolRMSG  ....  1.0000e-04 Eh/bohr
Max. Displacement        TolMAXD  ....  4.0000e-03 bohr
RMS Displacement         TolRMSD  ....  2.0000e-03 bohr
Strict Convergence                ....  False
------------------------------------------------------------------------------
                        ORCA OPTIMIZATION COORDINATE SETUP
------------------------------------------------------------------------------

The optimization will be done in new redundant internal coordinates
Making redundant internal coordinates   ...  (new redundants) done
Evaluating the initial hessian          ...  (Almloef) done
Evaluating the coordinates              ...  done
Calculating the B-matrix                .... done
Calculating the G-matrix                .... done
Diagonalizing the G-matrix              .... done
Small eigenvalue found = 6.503e-04
Small eigenvalue found = 1.206e-03
Small eigenvalue found = 4.704e-03
Small eigenvalue found = 6.184e-03
Small eigenvalue found = 7.584e-03
Small eigenvalue found = 1.084e-02
Small eigenvalue found = 1.684e-02
Small eigenvalue found = 2.215e-02
Small eigenvalue found = 2.695e-02
Small eigenvalue found = 2.880e-02
The first mode is                       ....  112
The number of degrees of freedom        ....  144

    -----------------------------------------------------------------
                    Redundant Internal Coordinates


    -----------------------------------------------------------------
         Definition                    Initial Value    Approx d2E/dq
    -----------------------------------------------------------------
      1. B(H   1,C   0)                  1.0874         0.363574   
      2. B(C   2,C   0)                  1.3489         0.726727   
      3. B(H   3,C   2)                  1.0863         0.365002   
      4. B(C   4,C   2)                  1.4698         0.466089   
      5. B(O   5,C   4)                  1.2224         1.035971   
      6. B(C   6,C   0)                  1.4578         0.487100   
      7. B(C   7,C   6)                  1.4035         0.594586   
      8. B(C   8,C   6)                  1.4089         0.582795   
      9. B(C   9,C   7)                  1.3894         0.626219   
     10. B(H  10,C   7)                  1.0852         0.366537   
     11. B(C  11,C   8)                  1.3843         0.638031   
     12. B(H  12,C   8)                  1.0841         0.367964   
     13. B(C  13,C  11)                  1.4130         0.574187   
     14. B(C  13,C   9)                  1.3949         0.613663   
     15. B(H  14,C   9)                  1.0868         0.364380   
     16. B(O  15,C  13)                  1.3572         0.631366   
     17. B(H  16,O  15)                  0.9676         0.505551   
     18. B(O  17,C  11)                  1.3697         0.603023   
     19. B(C  18,O  17)                  1.4363         0.472150   
     20. B(H  19,C  18)                  1.0949         0.353625   
     21. B(H  20,C  18)                  1.0896         0.360596   
     22. B(H  21,C  18)                  1.0915         0.358126   
     23. B(H  23,C  22)                  1.0873         0.363753   
     24. B(C  24,C  22)                  1.3490         0.726289   
     25. B(H  25,C  24)                  1.0862         0.365133   
     26. B(C  26,C  24)                  1.4657         0.473028   
     27. B(O  27,C  26)                  1.2261         1.021716   
     28. B(C  28,C  22)                  1.4576         0.487459   
     29. B(C  29,C  28)                  1.4036         0.594317   
     30. B(C  30,C  28)                  1.4089         0.582837   
     31. B(C  31,C  29)                  1.3894         0.626237   
     32. B(H  32,C  29)                  1.0853         0.366436   
     33. B(C  33,C  30)                  1.3842         0.638346   
     34. B(H  34,C  30)                  1.0839         0.368198   
     35. B(C  35,C  33)                  1.4129         0.574466   
     36. B(C  35,C  31)                  1.3949         0.613578   
     37. B(H  36,C  31)                  1.0867         0.364438   
     38. B(O  37,C  35)                  1.3573         0.630955   
     39. B(H  38,O  37)                  0.9676         0.505624   
     40. B(O  39,C  33)                  1.3698         0.602752   
     41. B(C  40,O  39)                  1.4360         0.472506   
     42. B(H  41,C  40)                  1.0950         0.353575   
     43. B(H  42,C  40)                  1.0897         0.360541   
     44. B(H  43,C  40)                  1.0915         0.358084   
     45. B(C  44,C  26)                  1.5240         0.381870   
     46. B(C  44,C   4)                  1.5325         0.370183   
     47. B(H  45,C  44)                  1.0936         0.355338   
     48. B(H  46,C  44)                  1.0919         0.357626   
     49. B(O  47,H  46)                  2.7558         0.000710   
     50. B(O  47,O  27)                  3.2369         0.000567   
     51. B(O  48,O  27)                  3.1652         0.000738   
     52. B(N  49,H  46)                  3.0415         0.000248   
     53. B(N  49,O  27)                  2.7604         0.003263   
     54. B(N  49,O  48)                  1.1925         1.035332   
     55. B(N  49,O  47)                  1.1971         1.018092   
     56. A(C   2,C   0,C   6)          127.4769         0.427689   
     57. A(H   1,C   0,C   2)          118.3696         0.363164   
     58. A(H   1,C   0,C   6)          114.1532         0.339428   
     59. A(C   0,C   2,C   4)          125.3572         0.424325   
     60. A(H   3,C   2,C   4)          113.1890         0.337162   
     61. A(C   0,C   2,H   3)          121.4522         0.363407   
     62. A(C   2,C   4,O   5)          120.1968         0.449354   
     63. A(C   2,C   4,C  44)          118.8509         0.376846   
     64. A(O   5,C   4,C  44)          120.9516         0.431045   
     65. A(C   0,C   6,C   8)          123.3320         0.411185   
     66. A(C   7,C   6,C   8)          117.8157         0.426058   
     67. A(C   0,C   6,C   7)          118.8507         0.412649   
     68. A(C   6,C   7,H  10)          119.5598         0.351471   
     69. A(C   6,C   7,C   9)          121.1351         0.431586   
     70. A(C   9,C   7,H  10)          119.3033         0.354569   
     71. A(C   6,C   8,C  11)          121.7085         0.431482   
     72. A(C   6,C   8,H  12)          121.1486         0.350514   
     73. A(C  11,C   8,H  12)          117.1405         0.355929   
     74. A(C   7,C   9,H  14)          120.1672         0.354214   
     75. A(C   7,C   9,C  13)          120.4111         0.434043   
     76. A(C  13,C   9,H  14)          119.4179         0.353001   
     77. A(C  13,C  11,O  17)          121.1695         0.423225   
     78. A(C   8,C  11,O  17)          119.2387         0.431297   
     79. A(C   8,C  11,C  13)          119.5172         0.430330   
     80. A(C  11,C  13,O  15)          117.6154         0.426718   
     81. A(C   9,C  13,O  15)          122.9754         0.431838   
     82. A(C   9,C  13,C  11)          119.4062         0.427335   
     83. A(C  13,O  15,H  16)          109.7296         0.369485   
     84. A(C  11,O  17,C  18)          115.6901         0.406116   
     85. A(O  17,C  18,H  21)          111.5410         0.334780   
     86. A(H  19,C  18,H  20)          109.3129         0.290075   
     87. A(O  17,C  18,H  20)          106.0627         0.335163   
     88. A(O  17,C  18,H  19)          110.6207         0.334078   
     89. A(H  20,C  18,H  21)          109.4313         0.290651   
     90. A(H  19,C  18,H  21)          109.7848         0.289762   
     91. A(C  24,C  22,C  28)          127.4314         0.427699   
     92. A(H  23,C  22,C  24)          118.5254         0.363157   
     93. A(H  23,C  22,C  28)          114.0430         0.339498   
     94. A(H  25,C  24,C  26)          113.3220         0.338013   
     95. A(C  22,C  24,C  26)          125.3891         0.425403   
     96. A(C  22,C  24,H  25)          121.2873         0.363392   
     97. A(C  24,C  26,O  27)          119.7570         0.449429   
     98. A(O  27,C  26,C  44)          119.4842         0.432381   
     99. A(C  24,C  26,C  44)          120.7535         0.379849   
    100. A(O  47,O  27,N  49)           21.1696         0.109883   
    101. A(O  47,O  27,O  48)           40.0973         0.103915   
    102. A(C  26,O  27,O  48)          146.9190         0.171079   
    103. A(O  48,O  27,N  49)           21.8759         0.111167   
    104. A(C  26,O  27,O  47)          113.7352         0.166326   
    105. A(C  26,O  27,N  49)          126.4286         0.203920   
    106. A(C  29,C  28,C  30)          117.7855         0.426029   
    107. A(C  22,C  28,C  30)          123.3187         0.411244   
    108. A(C  22,C  28,C  29)          118.8937         0.412670   
    109. A(C  31,C  29,H  32)          119.2973         0.354554   
    110. A(C  28,C  29,H  32)          119.5629         0.351428   
    111. A(C  28,C  29,C  31)          121.1388         0.431553   
    112. A(C  33,C  30,H  34)          117.1286         0.355997   
    113. A(C  28,C  30,H  34)          121.1259         0.350556   
    114. A(C  28,C  30,C  33)          121.7404         0.431525   
    115. A(C  35,C  31,H  36)          119.3879         0.353002   
    116. A(C  29,C  31,H  36)          120.1883         0.354225   
    117. A(C  29,C  31,C  35)          120.4205         0.434035   
    118. A(C  35,C  33,O  39)          121.1993         0.423228   
    119. A(C  30,C  33,O  39)          119.2097         0.431300   
    120. A(C  30,C  33,C  35)          119.5121         0.430406   
    121. A(C  33,C  35,O  37)          117.6450         0.426705   
    122. A(C  31,C  35,O  37)          122.9538         0.431777   
    123. A(C  31,C  35,C  33)          119.3974         0.427361   
    124. A(C  35,O  37,H  38)          109.7110         0.369453   
    125. A(C  33,O  39,C  40)          115.7039         0.406138   
    126. A(H  41,C  40,H  42)          109.3045         0.290061   
    127. A(O  39,C  40,H  42)          106.0587         0.335196   
    128. A(O  39,C  40,H  41)          110.6388         0.334112   
    129. A(H  42,C  40,H  43)          109.4317         0.290639   
    130. A(H  41,C  40,H  43)          109.7740         0.289751   
    131. A(O  39,C  40,H  43)          111.5456         0.334816   
    132. A(H  45,C  44,H  46)          106.8058         0.289918   
    133. A(C  26,C  44,H  46)          107.2896         0.325123   
    134. A(C   4,C  44,H  46)          109.1752         0.323468   
    135. A(C  26,C  44,H  45)          111.9180         0.324780   
    136. A(C   4,C  44,H  45)          108.9643         0.323127   
    137. A(C   4,C  44,C  26)          112.4890         0.364150   
    138. A(O  27,O  47,N  49)           56.3809         0.165616   
    139. A(O  27,O  48,N  49)           59.5955         0.170634   
    140. A(O  27,N  49,O  48)           98.5286         0.203298   
    141. A(O  27,N  49,O  47)          102.4495         0.202864   
    142. A(O  47,N  49,O  48)          133.5277         0.508333   
    143. D(H   3,C   2,C   0,H   1)    179.0277         0.037442   
    144. D(C   4,C   2,C   0,H   1)     -0.4599         0.037442   
    145. D(H   3,C   2,C   0,C   6)     -0.7330         0.037442   
    146. D(C   4,C   2,C   0,C   6)    179.7794         0.037442   
    147. D(O   5,C   4,C   2,H   3)     -1.7265         0.014794   
    148. D(C  44,C   4,C   2,H   3)    177.9698         0.014794   
    149. D(O   5,C   4,C   2,C   0)    177.7980         0.014794   
    150. D(C  44,C   4,C   2,C   0)     -2.5058         0.014794   
    151. D(C   8,C   6,C   0,H   1)    177.9243         0.016155   
    152. D(C   7,C   6,C   0,H   1)     -1.6017         0.016155   
    153. D(C   8,C   6,C   0,C   2)     -2.3064         0.016155   
    154. D(C   7,C   6,C   0,C   2)    178.1676         0.016155   
    155. D(C   9,C   7,C   6,C   0)   -179.7635         0.024348   
    156. D(C   9,C   7,C   6,C   8)      0.6843         0.024348   
    157. D(H  10,C   7,C   6,C   0)     -0.2558         0.024348   
    158. D(H  10,C   7,C   6,C   8)   -179.8081         0.024348   
    159. D(H  12,C   8,C   6,C   7)    179.9151         0.023346   
    160. D(C  11,C   8,C   6,C   0)    179.8170         0.023346   
    161. D(C  11,C   8,C   6,C   7)     -0.6524         0.023346   
    162. D(H  12,C   8,C   6,C   0)      0.3845         0.023346   
    163. D(H  14,C   9,C   7,H  10)     -0.3021         0.027169   
    164. D(C  13,C   9,C   7,H  10)   -179.5832         0.027169   
    165. D(H  14,C   9,C   7,C   6)    179.2069         0.027169   
    166. D(C  13,C   9,C   7,C   6)     -0.0743         0.027169   
    167. D(O  17,C  11,C   8,H  12)      2.5669         0.028272   
    168. D(O  17,C  11,C   8,C   6)   -176.8873         0.028272   
    169. D(C  13,C  11,C   8,H  12)    179.4646         0.028272   
    170. D(C  13,C  11,C   8,C   6)      0.0104         0.028272   
    171. D(O  15,C  13,C   9,C   7)    178.7685         0.026027   
    172. D(C  11,C  13,C   9,H  14)   -179.8719         0.026027   
    173. D(C  11,C  13,C   9,C   7)     -0.5855         0.026027   
    174. D(O  15,C  13,C  11,O  17)     -1.9370         0.022630   
    175. D(O  15,C  13,C  11,C   8)   -178.7732         0.022630   
    176. D(C   9,C  13,C  11,O  17)    177.4513         0.022630   
    177. D(C   9,C  13,C  11,C   8)      0.6151         0.022630   
    178. D(O  15,C  13,C   9,H  14)     -0.5180         0.026027   
    179. D(H  16,O  15,C  13,C  11)    179.6793         0.029325   
    180. D(H  16,O  15,C  13,C   9)      0.3145         0.029325   
    181. D(C  18,O  17,C  11,C  13)     70.9363         0.026576   
    182. D(C  18,O  17,C  11,C   8)   -112.2189         0.026576   
    183. D(H  21,C  18,O  17,C  11)    -63.6857         0.017575   
    184. D(H  19,C  18,O  17,C  11)     58.8178         0.017575   
    185. D(H  20,C  18,O  17,C  11)    177.2466         0.017575   
    186. D(C  26,C  24,C  22,C  28)    179.9152         0.037393   
    187. D(C  26,C  24,C  22,H  23)     -0.2460         0.037393   
    188. D(H  25,C  24,C  22,C  28)     -0.5669         0.037393   
    189. D(H  25,C  24,C  22,H  23)    179.2720         0.037393   
    190. D(C  44,C  26,C  24,C  22)     -1.6000         0.015235   
    191. D(O  27,C  26,C  24,H  25)     -0.3042         0.015235   
    192. D(O  27,C  26,C  24,C  22)    179.2472         0.015235   
    193. D(C  44,C  26,C  24,H  25)    178.8486         0.015235   
    194. D(N  49,O  27,C  26,C  44)      5.9806         0.103967   
    195. D(N  49,O  27,C  26,C  24)   -174.8557         0.103967   
    196. D(O  48,O  27,C  26,C  44)     17.4292         0.103967   
    197. D(O  48,O  27,C  26,C  24)   -163.4071         0.103967   
    198. D(O  47,O  27,C  26,C  44)    -13.7043         0.103967   
    199. D(O  47,O  27,C  26,C  24)    165.4593         0.103967   
    200. D(C  30,C  28,C  22,C  24)      0.0991         0.016179   
    201. D(C  30,C  28,C  22,H  23)   -179.7458         0.016179   
    202. D(C  29,C  28,C  22,C  24)   -179.3552         0.016179   
    203. D(C  29,C  28,C  22,H  23)      0.7998         0.016179   
    204. D(C  31,C  29,C  28,C  30)      0.4985         0.024325   
    205. D(C  31,C  29,C  28,C  22)    179.9832         0.024325   
    206. D(H  32,C  29,C  28,C  30)   -179.8693         0.024325   
    207. D(H  32,C  29,C  28,C  22)     -0.3846         0.024325   
    208. D(H  34,C  30,C  28,C  29)   -179.7696         0.023349   
    209. D(H  34,C  30,C  28,C  22)      0.7704         0.023349   
    210. D(C  33,C  30,C  28,C  29)     -0.6203         0.023349   
    211. D(C  33,C  30,C  28,C  22)    179.9197         0.023349   
    212. D(H  36,C  31,C  29,H  32)     -0.1604         0.027171   
    213. D(H  36,C  31,C  29,C  28)    179.4727         0.027171   
    214. D(C  35,C  31,C  29,H  32)   -179.4927         0.027171   
    215. D(C  35,C  31,C  29,C  28)      0.1405         0.027171   
    216. D(O  39,C  33,C  30,H  34)      2.4746         0.028302   
    217. D(O  39,C  33,C  30,C  28)   -176.7072         0.028302   
    218. D(C  35,C  33,C  30,H  34)    179.2835         0.028302   
    219. D(C  35,C  33,C  30,C  28)      0.1018         0.028302   
    220. D(O  37,C  35,C  33,O  39)     -2.0126         0.022653   
    221. D(O  37,C  35,C  33,C  30)   -178.7563         0.022653   
    222. D(C  31,C  35,C  33,O  39)    177.2940         0.022653   
    223. D(C  31,C  35,C  33,C  30)      0.5503         0.022653   
    224. D(O  37,C  35,C  31,H  36)     -0.7411         0.026019   
    225. D(O  37,C  35,C  31,C  29)    178.5964         0.026019   
    226. D(C  33,C  35,C  31,H  36)    179.9909         0.026019   
    227. D(C  33,C  35,C  31,C  29)     -0.6715         0.026019   
    228. D(H  38,O  37,C  35,C  33)    179.6475         0.029284   
    229. D(H  38,O  37,C  35,C  31)      0.3675         0.029284   
    230. D(C  40,O  39,C  33,C  35)     70.9963         0.026551   
    231. D(C  40,O  39,C  33,C  30)   -112.2504         0.026551   
    232. D(H  43,C  40,O  39,C  33)    -63.9020         0.017602   
    233. D(H  42,C  40,O  39,C  33)    177.0297         0.017602   
    234. D(H  41,C  40,O  39,C  33)     58.6036         0.017602   
    235. D(H  46,C  44,C  26,O  27)     25.9899         0.010875   
    236. D(H  45,C  44,C  26,O  27)    142.8393         0.010875   
    237. D(H  45,C  44,C  26,C  24)    -36.3159         0.010875   
    238. D(C   4,C  44,C  26,O  27)    -94.0879         0.010875   
    239. D(C   4,C  44,C  26,C  24)     86.7570         0.010875   
    240. D(H  46,C  44,C   4,O   5)   -125.9202         0.010261   
    241. D(H  46,C  44,C   4,C   2)     54.3859         0.010261   
    242. D(H  45,C  44,C   4,O   5)    117.7729         0.010261   
    243. D(H  45,C  44,C   4,C   2)    -61.9210         0.010261   
    244. D(H  46,C  44,C  26,C  24)   -153.1653         0.010875   
    245. D(C  26,C  44,C   4,O   5)     -6.9390         0.010261   
    246. D(C  26,C  44,C   4,C   2)    173.3671         0.010261   
    247. D(N  49,O  47,O  27,O  48)    -22.6474         0.001500   
    248. D(N  49,O  47,O  27,C  26)    131.3664         0.001500   
    249. D(N  49,O  48,O  27,O  47)     21.9136         0.001500   
    250. D(N  49,O  48,O  27,C  26)    -25.3800         0.001500   
    251. D(O  47,N  49,O  48,O  27)   -116.3020         0.117374   
    252. D(O  48,N  49,O  47,O  27)    114.7825         0.123065   
    253. D(O  48,N  49,O  27,O  47)   -138.2693         0.001501   
    254. D(O  48,N  49,O  27,C  26)    163.0960         0.001501   
    255. D(O  47,N  49,O  27,O  48)    138.2693         0.001501   
    256. D(O  47,N  49,O  27,C  26)    -58.6347         0.001501   
    -----------------------------------------------------------------

Number of atoms                         .... 50
Number of degrees of freedom            .... 256

         *************************************************************
         *                GEOMETRY OPTIMIZATION CYCLE   1            *
         *************************************************************
---------------------------------
CARTESIAN COORDINATES (ANGSTROEM)
---------------------------------
  C     -2.751635    0.256058   -0.312564
  H     -2.341337    0.675132   -1.228229
  C     -1.998279    0.298418    0.805510
  H     -2.364682   -0.091341    1.750987
  C     -0.643946    0.861900    0.897689
  O     -0.060407    0.887355    1.971457
  C     -4.093930   -0.293825   -0.457346
  C     -4.730160   -0.207514   -1.705364
  C     -4.790893   -0.921728    0.593892
  C     -6.010944   -0.711446   -1.895166
  H     -4.217903    0.267623   -2.535693
  C     -6.067014   -1.429181    0.419890
  H     -4.350054   -1.019209    1.579525
  C     -6.694027   -1.318931   -0.841558
  H     -6.493820   -0.624671   -2.864908
  O     -7.954729   -1.806719   -0.962212
  H     -8.273583   -1.668120   -1.865243
  O     -6.723111   -1.972090    1.492617
  C     -6.944534   -3.389985    1.434552
  H     -5.993450   -3.925579    1.348123
  H     -7.425351   -3.658790    2.374681
  H     -7.597478   -3.659899    0.602582
  C      2.698306   -0.003742   -0.184978
  H      1.792465   -0.578045   -0.363154
  C      2.594082    1.332352   -0.030504
  H      3.468268    1.947962    0.161071
  C      1.345820    2.098566   -0.086866
  O      1.368921    3.312774    0.082083
  C      3.912516   -0.808800   -0.139369
  C      3.815157   -2.194816   -0.338400
  C      5.193132   -0.265822    0.084827
  C      4.942378   -3.006369   -0.305057
  H      2.842945   -2.643303   -0.515701
  C      6.324963   -1.061673    0.123272
  H      5.330341    0.796862    0.248582
  C      6.202153   -2.456064   -0.068483
  H      4.848112   -4.078902   -0.452677
  O      7.332900   -3.203542    0.002458
  H      7.117122   -4.136044   -0.139478
  O      7.535273   -0.489053    0.412317
  C      8.484971   -0.462874   -0.664542
  H      8.078633    0.079824   -1.524393
  H      9.357780    0.066918   -0.283886
  H      8.775369   -1.470507   -0.967492
  C      0.018587    1.406103   -0.372506
  H      0.130300    0.590509   -1.092464
  H     -0.640617    2.145105   -0.832419
  O     -1.356703    4.806173   -0.822513
  O     -0.285703    5.932410    0.728617
  N     -0.819257    4.988892    0.231428

----------------------------
CARTESIAN COORDINATES (A.U.)
----------------------------
  NO LB      ZA    FRAG     MASS         X           Y           Z
   0 C     6.0000    0    12.011   -5.199837    0.483879   -0.590660
   1 H     1.0000    0     1.008   -4.424486    1.275815   -2.321016
   2 C     6.0000    0    12.011   -3.776200    0.563928    1.522193
   3 H     1.0000    0     1.008   -4.468601   -0.172609    3.308886
   4 C     6.0000    0    12.011   -1.216882    1.628755    1.696386
   5 O     8.0000    0    15.999   -0.114153    1.676858    3.725514
   6 C     6.0000    0    12.011   -7.736407   -0.555249   -0.864259
   7 C     6.0000    0    12.011   -8.938707   -0.392145   -3.222671
   8 C     6.0000    0    12.011   -9.053476   -1.741813    1.122293
   9 C     6.0000    0    12.011  -11.359038   -1.344438   -3.581345
  10 H     1.0000    0     1.008   -7.970682    0.505734   -4.791765
  11 C     6.0000    0    12.011  -11.464995   -2.700761    0.793477
  12 H     1.0000    0     1.008   -8.220411   -1.926026    2.984870
  13 C     6.0000    0    12.011  -12.649878   -2.492418   -1.590314
  14 H     1.0000    0     1.008  -12.271541   -1.180457   -5.413892
  15 O     8.0000    0    15.999  -15.032259   -3.414204   -1.818317
  16 H     1.0000    0     1.008  -15.634806   -3.152290   -3.524798
  17 O     8.0000    0    15.999  -12.704839   -3.726710    2.820637
  18 C     6.0000    0    12.011  -13.123267   -6.406143    2.710910
  19 H     1.0000    0     1.008  -11.325979   -7.418269    2.547583
  20 H     1.0000    0     1.008  -14.031880   -6.914111    4.487497
  21 H     1.0000    0     1.008  -14.357153   -6.916207    1.138715
  22 C     6.0000    0    12.011    5.099059   -0.007071   -0.349558
  23 H     1.0000    0     1.008    3.387268   -1.092347   -0.686262
  24 C     6.0000    0    12.011    4.902105    2.517780   -0.057644
  25 H     1.0000    0     1.008    6.554077    3.681115    0.304380
  26 C     6.0000    0    12.011    2.543231    3.965715   -0.164153
  27 O     8.0000    0    15.999    2.586886    6.260236    0.155114
  28 C     6.0000    0    12.011    7.393584   -1.528410   -0.263369
  29 C     6.0000    0    12.011    7.209602   -4.147601   -0.639483
  30 C     6.0000    0    12.011    9.813597   -0.502331    0.160300
  31 C     6.0000    0    12.011    9.339741   -5.681214   -0.576474
  32 H     1.0000    0     1.008    5.372387   -4.995119   -0.974534
  33 C     6.0000    0    12.011   11.952448   -2.006271    0.232950
  34 H     1.0000    0     1.008   10.072885    1.505851    0.469752
  35 C     6.0000    0    12.011   11.720371   -4.641288   -0.129414
  36 H     1.0000    0     1.008    9.161604   -7.708008   -0.855436
  37 O     8.0000    0    15.999   13.857173   -6.053817    0.004645
  38 H     1.0000    0     1.008   13.449411   -7.815990   -0.263575
  39 O     8.0000    0    15.999   14.239602   -0.924176    0.779166
  40 C     6.0000    0    12.011   16.034271   -0.874705   -1.255802
  41 H     1.0000    0     1.008   15.266404    0.150845   -2.880685
  42 H     1.0000    0     1.008   17.683641    0.126457   -0.536467
  43 H     1.0000    0     1.008   16.583044   -2.778856   -1.828295
  44 C     6.0000    0    12.011    0.035124    2.657150   -0.703934
  45 H     1.0000    0     1.008    0.246231    1.115900   -2.064458
  46 H     1.0000    0     1.008   -1.210591    4.053661   -1.573044
  47 O     8.0000    0    15.999   -2.563797    9.082351   -1.554324
  48 O     8.0000    0    15.999   -0.539900   11.210630    1.376887
  49 N     7.0000    0    14.007   -1.548171    9.427640    0.437336

--------------------------------
INTERNAL COORDINATES (ANGSTROEM)
--------------------------------
 C      0   0   0     0.000000000000     0.00000000     0.00000000
 H      1   0   0     1.087386710653     0.00000000     0.00000000
 C      1   2   0     1.348862150782   118.36955048     0.00000000
 H      3   1   2     1.086319471435   121.45215818   179.02773430
 C      3   1   2     1.469771005039   125.35715683   359.54014745
 O      5   3   1     1.222351602187   120.19684073   177.79798671
 C      1   2   3     1.457768502965   114.15316858   179.79190449
 C      7   1   2     1.403491050896   118.85072068   358.39830471
 C      7   1   2     1.408943197372   123.33196952   177.92433280
 C      8   7   1     1.389381126431   121.13510809   180.23651268
 H      8   7   1     1.085176783321   119.55979754   359.74421016
 C      9   7   1     1.384294061915   121.70853976   179.81696278
 H      9   7   1     1.084118987921   121.14863530     0.38447975
 C     10   8   7     1.394894342873   120.41105097   359.92574144
 H     10   8   7     1.086783639261   120.16715632   179.20685682
 O     14  10   8     1.357152921916   122.97539247   178.76846170
 H     16  14  10     0.967647943768   109.72957647     0.31449808
 O     12   9   7     1.369655676518   119.23872349   183.11270507
 C     18  12   9     1.436254127994   115.69005508   247.78112891
 H     19  18  12     1.094939121565   110.62073506    58.81775289
 H     19  18  12     1.089625464164   106.06269756   177.24659888
 H     19  18  12     1.091495998816   111.54099596   296.31432118
 C      6   5   3     3.613137582352    80.50736126   140.15647208
 H     23   6   5     1.087252748935    65.91776821   313.51345711
 C     23   6   5     1.349026328760    68.18608683    91.44228118
 H     25  23   6     1.086221807607   121.28727676   135.14477481
 C     25  23   6     1.465748474154   125.38913654   315.62682525
 O     27  25  23     1.226123357606   119.75698451   179.24715008
 C     23   6   5     1.457568004707   138.90210697   213.92899231
 C     29  23   6     1.403614073062   118.89366191    81.11217715
 C     29  23   6     1.408923807151   123.31865616   260.56655932
 C     30  29  23     1.389372955797   121.13877929   179.98316449
 H     30  29  23     1.085252231840   119.56292053   359.61537823
 C     31  29  23     1.384159761295   121.74035904   179.91969836
 H     31  29  23     1.083946167280   121.12589134     0.77039449
 C     32  30  29     1.394932220979   120.42045687     0.14050762
 H     32  30  29     1.086740437844   120.18827763   179.47274439
 O     36  32  30     1.357330012920   122.95376292   178.59644097
 H     38  36  32     0.967608367773   109.71096314     0.36750365
 O     34  31  29     1.369777709165   119.20972482   183.29282246
 C     40  34  31     1.436049071977   115.70394322   247.74964361
 H     41  40  34     1.094977365816   110.63880988    58.60355985
 H     41  40  34     1.089666969345   106.05866861   177.02967301
 H     41  40  34     1.091528269718   111.54556647   296.09796725
 C     27  25  23     1.524021867382   120.75345276   358.40002188
 H     45  27  25     1.093623741956   111.91804949   323.68409087
 H     45  27  25     1.091876292072   107.28956469   206.83474531
 O     47  45  27     2.755750385803   143.99167635   323.89815853
 O     48  47  45     2.195781195172   111.78240550   356.76934741
 N     49  48  47     1.192519596888    23.28323157   327.15792418

---------------------------
INTERNAL COORDINATES (A.U.)
---------------------------
 C      0   0   0     0.000000000000     0.00000000     0.00000000
 H      1   0   0     2.054863084800     0.00000000     0.00000000
 C      1   2   0     2.548980057390   118.36955048     0.00000000
 H      3   1   2     2.052846294958   121.45215818   179.02773430
 C      3   1   2     2.777464679102   125.35715683   359.54014745
 O      5   3   1     2.309909767494   120.19684073   177.79798671
 C      1   2   3     2.754783237261   114.15316858   179.79190449
 C      7   1   2     2.652213717603   118.85072068   358.39830471
 C      7   1   2     2.662516781285   123.33196952   177.92433280
 C      8   7   1     2.625549824595   121.13510809   180.23651268
 H      8   7   1     2.050686927366   119.55979754   359.74421016
 C      9   7   1     2.615936665833   121.70853976   179.81696278
 H      9   7   1     2.048687983755   121.14863530     0.38447975
 C     10   8   7     2.635968293785   120.41105097   359.92574144
 H     10   8   7     2.053723445029   120.16715632   179.20685682
 O     14  10   8     2.564647344271   122.97539247   178.76846170
 H     16  14  10     1.828589607773   109.72957647     0.31449808
 O     12   9   7     2.588274126390   119.23872349   183.11270507
 C     18  12   9     2.714126960622   115.69005508   247.78112891
 H     19  18  12     2.069135073074   110.62073506    58.81775289
 H     19  18  12     2.059093715817   106.06269756   177.24659888
 H     19  18  12     2.062628514034   111.54099596   296.31432118
 C      6   5   3     6.827840514823    80.50736126   140.15647208
 H     23   6   5     2.054609933840    65.91776821   313.51345711
 C     23   6   5     2.549290308806    68.18608683    91.44228118
 H     25  23   6     2.052661737070   121.28727676   135.14477481
 C     25  23   6     2.769863197364   125.38913654   315.62682525
 O     27  25  23     2.317037352279   119.75698451   179.24715008
 C     23   6   5     2.754404350462   138.90210697   213.92899231
 C     29  23   6     2.652446195805   118.89366191    81.11217715
 C     29  23   6     2.662480139076   123.31865616   260.56655932
 C     30  29  23     2.625534384332   121.13877929   179.98316449
 H     30  29  23     2.050829504405   119.56292053   359.61537823
 C     31  29  23     2.615682874441   121.74035904   179.91969836
 H     31  29  23     2.048361400074   121.12589134     0.77039449
 C     32  30  29     2.636039873033   120.42045687     0.14050762
 H     32  30  29     2.053641806183   120.18827763   179.47274439
 O     36  32  30     2.564981997771   122.95376292   178.59644097
 H     38  36  32     1.828514819981   109.71096314     0.36750365
 O     34  31  29     2.588504734672   119.20972482   183.29282246
 C     40  34  31     2.713739460908   115.70394322   247.74964361
 H     41  40  34     2.069207344234   110.63880988    58.60355985
 H     41  40  34     2.059172149242   106.05866861   177.02967301
 H     41  40  34     2.062689497199   111.54556647   296.09796725
 C     27  25  23     2.879983951459   120.75345276   358.40002188
 H     45  27  25     2.066649365850   111.91804949   323.68409087
 H     45  27  25     2.063347164138   107.28956469   206.83474531
 O     47  45  27     5.207613522616   143.99167635   323.89815853
 O     48  47  45     4.149425108889   111.78240550   356.76934741
 N     49  48  47     2.253535447452    23.28323157   327.15792418

---------------------
BASIS SET INFORMATION
---------------------
There are 4 groups of distinct atoms

 Group   1 Type C   : 11s5p1d contracted to 4s3p1d pattern {6311/311/1}
 Group   2 Type H   : 5s contracted to 3s pattern {311}
 Group   3 Type O   : 11s5p1d contracted to 4s3p1d pattern {6311/311/1}
 Group   4 Type N   : 11s5p1d contracted to 4s3p1d pattern {6311/311/1}

Atom   0C    basis set group =>   1
Atom   1H    basis set group =>   2
Atom   2C    basis set group =>   1
Atom   3H    basis set group =>   2
Atom   4C    basis set group =>   1
Atom   5O    basis set group =>   3
Atom   6C    basis set group =>   1
Atom   7C    basis set group =>   1
Atom   8C    basis set group =>   1
Atom   9C    basis set group =>   1
Atom  10H    basis set group =>   2
Atom  11C    basis set group =>   1
Atom  12H    basis set group =>   2
Atom  13C    basis set group =>   1
Atom  14H    basis set group =>   2
Atom  15O    basis set group =>   3
Atom  16H    basis set group =>   2
Atom  17O    basis set group =>   3
Atom  18C    basis set group =>   1
Atom  19H    basis set group =>   2
Atom  20H    basis set group =>   2
Atom  21H    basis set group =>   2
Atom  22C    basis set group =>   1
Atom  23H    basis set group =>   2
Atom  24C    basis set group =>   1
Atom  25H    basis set group =>   2
Atom  26C    basis set group =>   1
Atom  27O    basis set group =>   3
Atom  28C    basis set group =>   1
Atom  29C    basis set group =>   1
Atom  30C    basis set group =>   1
Atom  31C    basis set group =>   1
Atom  32H    basis set group =>   2
Atom  33C    basis set group =>   1
Atom  34H    basis set group =>   2
Atom  35C    basis set group =>   1
Atom  36H    basis set group =>   2
Atom  37O    basis set group =>   3
Atom  38H    basis set group =>   2
Atom  39O    basis set group =>   3
Atom  40C    basis set group =>   1
Atom  41H    basis set group =>   2
Atom  42H    basis set group =>   2
Atom  43H    basis set group =>   2
Atom  44C    basis set group =>   1
Atom  45H    basis set group =>   2
Atom  46H    basis set group =>   2
Atom  47O    basis set group =>   3
Atom  48O    basis set group =>   3
Atom  49N    basis set group =>   4
---------------------------------
AUXILIARY/J BASIS SET INFORMATION
---------------------------------
There are 4 groups of distinct atoms

 Group   1 Type C   : 12s5p4d2f1g contracted to 6s4p3d1f1g pattern {711111/2111/211/2/1}
 Group   2 Type H   : 5s2p1d contracted to 3s1p1d pattern {311/2/1}
 Group   3 Type O   : 12s5p4d2f1g contracted to 6s4p3d1f1g pattern {711111/2111/211/2/1}
 Group   4 Type N   : 12s5p4d2f1g contracted to 6s4p3d1f1g pattern {711111/2111/211/2/1}

Atom   0C    basis set group =>   1
Atom   1H    basis set group =>   2
Atom   2C    basis set group =>   1
Atom   3H    basis set group =>   2
Atom   4C    basis set group =>   1
Atom   5O    basis set group =>   3
Atom   6C    basis set group =>   1
Atom   7C    basis set group =>   1
Atom   8C    basis set group =>   1
Atom   9C    basis set group =>   1
Atom  10H    basis set group =>   2
Atom  11C    basis set group =>   1
Atom  12H    basis set group =>   2
Atom  13C    basis set group =>   1
Atom  14H    basis set group =>   2
Atom  15O    basis set group =>   3
Atom  16H    basis set group =>   2
Atom  17O    basis set group =>   3
Atom  18C    basis set group =>   1
Atom  19H    basis set group =>   2
Atom  20H    basis set group =>   2
Atom  21H    basis set group =>   2
Atom  22C    basis set group =>   1
Atom  23H    basis set group =>   2
Atom  24C    basis set group =>   1
Atom  25H    basis set group =>   2
Atom  26C    basis set group =>   1
Atom  27O    basis set group =>   3
Atom  28C    basis set group =>   1
Atom  29C    basis set group =>   1
Atom  30C    basis set group =>   1
Atom  31C    basis set group =>   1
Atom  32H    basis set group =>   2
Atom  33C    basis set group =>   1
Atom  34H    basis set group =>   2
Atom  35C    basis set group =>   1
Atom  36H    basis set group =>   2
Atom  37O    basis set group =>   3
Atom  38H    basis set group =>   2
Atom  39O    basis set group =>   3
Atom  40C    basis set group =>   1
Atom  41H    basis set group =>   2
Atom  42H    basis set group =>   2
Atom  43H    basis set group =>   2
Atom  44C    basis set group =>   1
Atom  45H    basis set group =>   2
Atom  46H    basis set group =>   2
Atom  47O    basis set group =>   3
Atom  48O    basis set group =>   3
Atom  49N    basis set group =>   4
------------------------------------------------------------------------------
                           ORCA GTO INTEGRAL CALCULATION
                           -- RI-GTO INTEGRALS CHOSEN --
------------------------------------------------------------------------------
------------------------------------------------------------------------------
                   ___                                                        
                  /   \      - P O W E R E D   B Y -                         
                 /     \                                                     
                 |  |  |   _    _      __       _____    __    __             
                 |  |  |  | |  | |    /  \     |  _  \  |  |  /  |          
                  \  \/   | |  | |   /    \    | | | |  |  | /  /          
                 / \  \   | |__| |  /  /\  \   | |_| |  |  |/  /          
                |  |  |   |  __  | /  /__\  \  |    /   |      \           
                |  |  |   | |  | | |   __   |  |    \   |  |\   \          
                \     /   | |  | | |  |  |  |  | |\  \  |  | \   \       
                 \___/    |_|  |_| |__|  |__|  |_| \__\ |__|  \__/        
                                                                              
                      - O R C A' S   B I G   F R I E N D -                    
                                      &                                       
                       - I N T E G R A L  F E E D E R -                       
                                                                              
 v1 FN, 2020, v2 2021                                                         
------------------------------------------------------------------------------


Reading SHARK input file CURCUMIN-OPT-FREQ-Reag-WB97M-V-6-311G-D-298.SHARKINP.tmp ... ok
----------------------
SHARK INTEGRAL PACKAGE
----------------------

Number of atoms                             ...     50
Number of basis functions                   ...    600
Number of shells                            ...    300
Maximum angular momentum                    ...      2
Integral batch strategy                     ... SHARK/LIBINT Hybrid
RI-J (if used) integral strategy            ... SPLIT-RIJ (Revised 2003 algorithm where possible)
Printlevel                                  ...      1
Contraction scheme used                     ... SEGMENTED contraction
Coulomb Range Separation                    ... NOT USED
Exchange Range Separation                   ... Long Range
   Mu parameter                             ...  0.300000
   Scaling (regular/separated)              ...  0.150000  0.850000
Finite Nucleus Model                        ... NOT USED
Auxiliary Coulomb fitting basis             ... AVAILABLE
   # of basis functions in Aux-J            ...   1690
   # of shells in Aux-J                     ...    550
   Maximum angular momentum in Aux-J        ...      4
Auxiliary J/K fitting basis                 ... NOT available
Auxiliary Correlation fitting basis         ... NOT available
Auxiliary 'external' fitting basis          ... NOT available
Integral threshold                          ...     2.500000e-11
Primitive cut-off                           ...     2.500000e-12
Primitive pair pre-selection threshold      ...     2.500000e-12

Calculating pre-screening integrals         ... done (  0.1 sec) Dimension = 300
Organizing shell pair data                  ... done (  2.0 sec)
Shell pair information
Total number of shell pairs                 ...     45150
Shell pairs after pre-screening             ...     20202
Total number of primitive shell pairs       ...    187045
Primitive shell pairs kept                  ...     49477
          la=0 lb=0:   7066 shell pairs
          la=1 lb=0:   7510 shell pairs
          la=1 lb=1:   2052 shell pairs
          la=2 lb=0:   2197 shell pairs
          la=2 lb=1:   1188 shell pairs
          la=2 lb=2:    189 shell pairs

Calculating one electron integrals          ... done (  0.1 sec)
Calculating RI/J V-Matrix + Cholesky decomp.... done (  4.2 sec)
Calculating Nuclear repulsion               ... done (  0.1 sec) ENN=   2550.849908631144 Eh

SHARK setup successfully completed in   9.7 seconds

Maximum memory used throughout the entire GTOINT-calculation: 110.0 MB
-------------------------------------------------------------------------------
                                 ORCA SCF
-------------------------------------------------------------------------------

------------
SCF SETTINGS
------------
Hamiltonian:
 Density Functional     Method          .... DFT(GTOs)
  Functional kind                       .... Exchange-Correlation
  Functional name                       .... wB97M-V exchange-correlation functional
  Functional family                     .... Hybrid MGGA
  Functional refs                              
    [ 0] N. Mardirossian and M. Head-Gordon, J. Chem. Phys. 144, 214110 (2016)
  Fraction of HF Exchange (short range) .... 0.1500
  Fraction of HF Exchange (long range)  .... 1.0000
  Range separation parameter mu         .... 0.3000
  Functional external parameters         .... 0
   Density functional embedding theory  .... OFF
 Long-range corrected/Screened/Range-Separated Hybrid DFT is turned on
   Amount of maximum screened exact exchange              ....  0.850000
   Range separation parameter mu (erf(mu*r12)/r12)        ....  0.300000
   NL short-range parameter             ....  6.000000
   NL long-range parameter              ....  0.010000
 RI-approximation to the Coulomb term is turned on
   Number of AuxJ basis functions       .... 1690
   RIJ-ON(X) (HFX calculated with O(N)) .... on


General Settings:
 Integral files         IntName         .... CURCUMIN-OPT-FREQ-Reag-WB97M-V-6-311G-D-298
 Hartree-Fock type      HFTyp           .... UHF
 Total Charge           Charge          ....    0
 Multiplicity           Mult            ....    2
 Number of Electrons    NEL             ....  217
 Basis Dimension        Dim             ....  600
 Nuclear Repulsion      ENuc            ....   2550.8499086311 Eh

Convergence Acceleration:
 DIIS                   CNVDIIS         .... on
   Start iteration      DIISMaxIt       ....    12
   Startup error        DIISStart       ....  0.200000
   # of expansion vecs  DIISMaxEq       ....     5
   Bias factor          DIISBfac        ....   1.050
   Max. coefficient     DIISMaxC        ....  10.000
 Trust-Rad. Augm. Hess. CNVTRAH         .... off
 SOSCF                  CNVSOSCF        .... off
 Level Shifting         CNVShift        .... on
   Level shift para.    LevelShift      ....    0.2500
   Turn off err/grad.   ShiftErr        ....    0.0010
 Zerner damping         CNVZerner       .... off
 Static damping         CNVDamp         .... on
   Fraction old density DampFac         ....    0.7000
   Max. Damping (<1)    DampMax         ....    0.9800
   Min. Damping (>=0)   DampMin         ....    0.0000
   Turn off err/grad.   DampErr         ....    0.1000
 Fernandez-Rico         CNVRico         .... off

SCF Procedure:
 Maximum # iterations   MaxIter         ....   125
 SCF integral mode      SCFMode         .... Direct
   Integral package                     .... SHARK and LIBINT hybrid scheme
 Reset frequency        DirectResetFreq ....    20
 Integral Threshold     Thresh          ....  2.500e-11 Eh
 Primitive CutOff       TCut            ....  2.500e-12 Eh

Convergence Tolerance:
 Convergence Check Mode ConvCheckMode   .... Total+1el-Energy
 Convergence forced     ConvForced      .... 0
 Energy Change          TolE            ....  1.000e-08 Eh
 1-El. energy change                    ....  1.000e-05 Eh
 DIIS Error             TolErr          ....  5.000e-07


Diagonalization of the overlap matrix:
Smallest eigenvalue                        ... 1.748e-04
Time for diagonalization                   ...    0.030 sec
Threshold for overlap eigenvalues          ... 1.000e-08
Number of eigenvalues below threshold      ... 0
Time for construction of square roots      ...    0.409 sec
Total time needed                          ...    0.440 sec

Time for model grid setup =    1.514 sec

------------------------------
INITIAL GUESS: MODEL POTENTIAL
------------------------------
Loading Hartree-Fock densities                     ... done
Calculating cut-offs                               ... done
Initializing the effective Hamiltonian             ... done
Setting up the integral package (SHARK)            ... done
Starting the Coulomb interaction                   ... done (   1.2 sec)
Reading the grid                                   ... done
Mapping shells                                     ... done
Starting the XC term evaluation                    ... done (   0.6 sec)
  promolecular density results
     # of electrons  =    216.986776254
     EX              =   -185.012163511
     EC              =     -7.284009990
     EX+EC           =   -192.296173501
Transforming the Hamiltonian                       ... done (   0.0 sec)
Diagonalizing the Hamiltonian                      ... done (   0.0 sec)
Back transforming the eigenvectors                 ... done (   0.0 sec)
Now organizing SCF variables                       ... done
                      ------------------
                      INITIAL GUESS DONE (   4.0 sec)
                      ------------------
-------------------
DFT GRID GENERATION
-------------------

General Integration Accuracy     IntAcc      ... 4.388
Radial Grid Type                 RadialGrid  ... OptM3 with GC (2021)
Angular Grid (max. ang.)         AngularGrid ... 4 (Lebedev-302)
Angular grid pruning method      GridPruning ... 4 (adaptive)
Weight generation scheme         WeightScheme... Becke
Basis function cutoff            BFCut       ... 1.0000e-11
Integration weight cutoff        WCut        ... 1.0000e-14
Angular grids for H and He will be reduced by one unit
Partially contracted basis set               ... off
Rotationally invariant grid construction     ... off

Total number of grid points                  ...   244161
Total number of batches                      ...     3838
Average number of points per batch           ...       63
Average number of grid points per atom       ...     4883

------------------
NL GRID GENERATION
------------------

General Integration Accuracy     IntAcc      ... 4.004
Radial Grid Type                 RadialGrid  ... OptM3 with GC (2021)
Angular Grid (max. ang.)         AngularGrid ... 2 (Lebedev-110)
Angular grid pruning method      GridPruning ... 4 (adaptive)
Weight generation scheme         WeightScheme... Becke
Basis function cutoff            BFCut       ... 1.0000e-10
Integration weight cutoff        WCut        ... 1.0000e-14
Angular grids for H and He will be reduced by one unit
Partially contracted basis set               ... off
Rotationally invariant grid construction     ... off

Total number of grid points                  ...    78589
Total number of batches                      ...     1253
Average number of points per batch           ...       62
Average number of grid points per atom       ...     1572
Time for grid setup =    6.325 sec


--------------------
CPCM SOLVATION MODEL
--------------------
CPCM parameters:
  Epsilon                                         ...       7.0000
  Refrac                                          ...       1.8534
  Rsolv                                           ...       1.3000
  Surface type                                    ... GAUSSIAN VDW
  Epsilon function type                           ...         CPCM
Radii:
 Radius for C  used is    3.8550 Bohr (=   2.0400 Ang.)
 Radius for H  used is    2.4944 Bohr (=   1.3200 Ang.)
 Radius for O  used is    3.4469 Bohr (=   1.8240 Ang.)
 Radius for N  used is    3.5149 Bohr (=   1.8600 Ang.)
Calculating surface                               ...        done! (  0.0s)
GEPOL surface points                              ...         2784
GEPOL Volume                                      ...    3275.7545
GEPOL Surface-area                                ...    1736.7543
Calculating surface distance matrix               ...        done! (  0.0s)
Performing Cholesky decomposition & store         ...        done! (  5.4s)
Overall time for CPCM initialization              ...                 5.5s
--------------
SCF ITERATIONS
--------------
ITER       Energy         Delta-E        Max-DP      RMS-DP      [F,P]     Damp
               ***  Starting incremental Fock matrix formation  ***
  0  -1467.8210109790   0.000000000000 0.06021431  0.00046842  0.1494043 0.7000
  1  -1468.0993257071  -0.278314728167 0.04115890  0.00035050  0.0731911 0.7000
                               ***Turning on DIIS***
  2  -1468.2373194444  -0.137993737315 0.05716678  0.00067046  0.0297783 0.0000
  3  -1468.4764534822  -0.239134037730 0.03716561  0.00023248  0.0365194 0.0000
  4  -1468.5052335040  -0.028780021858 0.00650476  0.00005606  0.0056826 0.0000
  5  -1468.5069539136  -0.001720409560 0.00239555  0.00002496  0.0024773 0.0000
  6  -1468.5072960274  -0.000342113792 0.00211176  0.00002321  0.0008116 0.0000
  7  -1468.5074958341  -0.000199806773 0.00134774  0.00001294  0.0006776 0.0000
  8  -1468.5075379640  -0.000042129809 0.00034462  0.00000449  0.0003381 0.0000
  9  -1468.5075454080  -0.000007444047 0.00020963  0.00000219  0.0001483 0.0000
 10  -1468.5075468667  -0.000001458692 0.00006597  0.00000086  0.0000967 0.0000
 11  -1468.5075471717  -0.000000305001 0.00005902  0.00000058  0.0000876 0.0000
 12  -1468.5075473144  -0.000000142692 0.00003471  0.00000032  0.0000249 0.0000
 13  -1468.5075473633  -0.000000048926 0.00002206  0.00000016  0.0000114 0.0000
 14  -1468.5075473819  -0.000000018601 0.00001542  0.00000010  0.0000077 0.0000
 15  -1468.5075474037  -0.000000021745 0.00001343  0.00000009  0.0000057 0.0000
 16  -1468.5075474088  -0.000000005096 0.00001121  0.00000007  0.0000034 0.0000
 17  -1468.5075474162  -0.000000007416 0.00000516  0.00000004  0.0000027 0.0000
                 **** Energy Check signals convergence ****

               *****************************************************
               *                     SUCCESS                       *
               *           SCF CONVERGED AFTER  18 CYCLES          *
               *****************************************************


----------------
TOTAL SCF ENERGY
----------------

Total Energy       :        -1468.50754742 Eh          -39960.12190 eV

Components:
Nuclear Repulsion  :         2550.84990863 Eh           69412.15486 eV
Electronic Energy  :        -4019.35745605 Eh         -109372.27676 eV
One Electron Energy:        -7072.98878371 Eh         -192465.80958 eV
Two Electron Energy:         3053.63132766 Eh           83093.53282 eV
CPCM Dielectric    :           -0.04300854 Eh              -1.17032 eV

Virial components:
Potential Energy   :        -2933.53088973 Eh          -79825.43376 eV
Kinetic Energy     :         1465.02334231 Eh           39865.31186 eV
Virial Ratio       :            2.00237826


DFT components:
N(Alpha)           :      109.000117167593 electrons
N(Beta)            :      108.000117655918 electrons
N(Total)           :      217.000234823511 electrons
NL Energy, E(C,NL) :        0.825583192428 Eh       
E(XC)              :     -139.448821452805 Eh       
DFET-embed. en.    :        0.000000000000 Eh       
CPCM Solvation Model Properties:
Surface-charge          :           -0.02802080
Charge-correction       :            0.00008522 Eh               0.00232 eV
Free-energy (cav+disp)  :  This term is not implemented in the current solvation scheme

---------------
SCF CONVERGENCE
---------------

  Last Energy change         ...   -4.2633e-10  Tolerance :   1.0000e-08
  Last MAX-Density change    ...    4.1247e-06  Tolerance :   1.0000e-07
  Last RMS-Density change    ...    3.2025e-08  Tolerance :   5.0000e-09
  Last DIIS Error            ...    1.5716e-06  Tolerance :   5.0000e-07

             **** THE GBW FILE WAS UPDATED (CURCUMIN-OPT-FREQ-Reag-WB97M-V-6-311G-D-298.gbw) ****
             **** DENSITY CURCUMIN-OPT-FREQ-Reag-WB97M-V-6-311G-D-298.scfp WAS UPDATED ****
             **** ENERGY FILE WAS UPDATED (CURCUMIN-OPT-FREQ-Reag-WB97M-V-6-311G-D-298.en.tmp) ****
----------------------
UHF SPIN CONTAMINATION
----------------------

Warning: in a DFT calculation there is little theoretical justification to 
         calculate <S**2> as in Hartree-Fock theory. We will do it anyways
         but you should keep in mind that the values have only limited relevance

Expectation value of <S**2>     :     0.753306
Ideal value S*(S+1) for S=0.5   :     0.750000
Deviation                       :     0.003306

             **** THE GBW FILE WAS UPDATED (CURCUMIN-OPT-FREQ-Reag-WB97M-V-6-311G-D-298.gbw) ****
             **** DENSITY CURCUMIN-OPT-FREQ-Reag-WB97M-V-6-311G-D-298.scfp WAS UPDATED ****
----------------
ORBITAL ENERGIES
----------------
                 SPIN UP ORBITALS
  NO   OCC          E(Eh)            E(eV) 
   0   1.0000     -19.426644      -528.6259 
   1   1.0000     -19.425612      -528.5978 
   2   1.0000     -19.368464      -527.0427 
   3   1.0000     -19.367689      -527.0216 
   4   1.0000     -19.349339      -526.5223 
   5   1.0000     -19.348427      -526.4975 
   6   1.0000     -19.322903      -525.8029 
   7   1.0000     -19.320562      -525.7392 
   8   1.0000     -14.742651      -401.1679 
   9   1.0000     -10.446441      -284.2621 
  10   1.0000     -10.441810      -284.1361 
  11   1.0000     -10.424996      -283.6786 
  12   1.0000     -10.424104      -283.6543 
  13   1.0000     -10.409783      -283.2646 
  14   1.0000     -10.408811      -283.2381 
  15   1.0000     -10.382793      -282.5302 
  16   1.0000     -10.382019      -282.5091 
  17   1.0000     -10.377111      -282.3756 
  18   1.0000     -10.375797      -282.3398 
  19   1.0000     -10.365676      -282.0644 
  20   1.0000     -10.364594      -282.0349 
  21   1.0000     -10.360772      -281.9309 
  22   1.0000     -10.359884      -281.9068 
  23   1.0000     -10.358238      -281.8620 
  24   1.0000     -10.357158      -281.8326 
  25   1.0000     -10.355959      -281.8000 
  26   1.0000     -10.355833      -281.7965 
  27   1.0000     -10.355131      -281.7774 
  28   1.0000     -10.351863      -281.6885 
  29   1.0000     -10.349596      -281.6268 
  30   1.0000      -1.407412       -38.2976 
  31   1.0000      -1.256396       -34.1883 
  32   1.0000      -1.209826       -32.9210 
  33   1.0000      -1.208960       -32.8975 
  34   1.0000      -1.181566       -32.1521 
  35   1.0000      -1.180690       -32.1282 
  36   1.0000      -1.180203       -32.1150 
  37   1.0000      -1.170719       -31.8569 
  38   1.0000      -0.998188       -27.1621 
  39   1.0000      -0.997158       -27.1340 
  40   1.0000      -0.942157       -25.6374 
  41   1.0000      -0.935460       -25.4552 
  42   1.0000      -0.896114       -24.3845 
  43   1.0000      -0.887260       -24.1436 
  44   1.0000      -0.886366       -24.1193 
  45   1.0000      -0.871020       -23.7017 
  46   1.0000      -0.850659       -23.1476 
  47   1.0000      -0.811483       -22.0816 
  48   1.0000      -0.810617       -22.0580 
  49   1.0000      -0.786683       -21.4067 
  50   1.0000      -0.785078       -21.3631 
  51   1.0000      -0.778171       -21.1751 
  52   1.0000      -0.746566       -20.3151 
  53   1.0000      -0.738009       -20.0822 
  54   1.0000      -0.703932       -19.1550 
  55   1.0000      -0.702651       -19.1201 
  56   1.0000      -0.682598       -18.5744 
  57   1.0000      -0.678919       -18.4743 
  58   1.0000      -0.675715       -18.3871 
  59   1.0000      -0.672728       -18.3058 
  60   1.0000      -0.668727       -18.1970 
  61   1.0000      -0.664378       -18.0786 
  62   1.0000      -0.639206       -17.3937 
  63   1.0000      -0.625976       -17.0337 
  64   1.0000      -0.623763       -16.9734 
  65   1.0000      -0.618955       -16.8426 
  66   1.0000      -0.610300       -16.6071 
  67   1.0000      -0.592730       -16.1290 
  68   1.0000      -0.585607       -15.9352 
  69   1.0000      -0.583211       -15.8700 
  70   1.0000      -0.577671       -15.7192 
  71   1.0000      -0.576202       -15.6792 
  72   1.0000      -0.575376       -15.6568 
  73   1.0000      -0.554866       -15.0987 
  74   1.0000      -0.547036       -14.8856 
  75   1.0000      -0.546371       -14.8675 
  76   1.0000      -0.545236       -14.8366 
  77   1.0000      -0.543478       -14.7888 
  78   1.0000      -0.534235       -14.5373 
  79   1.0000      -0.530262       -14.4292 
  80   1.0000      -0.528998       -14.3948 
  81   1.0000      -0.522799       -14.2261 
  82   1.0000      -0.519817       -14.1449 
  83   1.0000      -0.514025       -13.9873 
  84   1.0000      -0.497355       -13.5337 
  85   1.0000      -0.483318       -13.1517 
  86   1.0000      -0.481352       -13.0983 
  87   1.0000      -0.480954       -13.0874 
  88   1.0000      -0.478382       -13.0174 
  89   1.0000      -0.477646       -12.9974 
  90   1.0000      -0.476562       -12.9679 
  91   1.0000      -0.472592       -12.8599 
  92   1.0000      -0.469862       -12.7856 
  93   1.0000      -0.466858       -12.7039 
  94   1.0000      -0.464602       -12.6425 
  95   1.0000      -0.462623       -12.5886 
  96   1.0000      -0.444139       -12.0856 
  97   1.0000      -0.443323       -12.0634 
  98   1.0000      -0.393780       -10.7153 
  99   1.0000      -0.391182       -10.6446 
 100   1.0000      -0.388365       -10.5679 
 101   1.0000      -0.386768       -10.5245 
 102   1.0000      -0.379798       -10.3348 
 103   1.0000      -0.368313       -10.0223 
 104   1.0000      -0.356193        -9.6925 
 105   1.0000      -0.345340        -9.3972 
 106   1.0000      -0.344316        -9.3693 
 107   1.0000      -0.303693        -8.2639 
 108   1.0000      -0.302099        -8.2205 
 109   0.0000      -0.000971        -0.0264 
 110   0.0000      -0.000049        -0.0013 
 111   0.0000       0.025485         0.6935 
 112   0.0000       0.064458         1.7540 
 113   0.0000       0.065281         1.7764 
 114   0.0000       0.091267         2.4835 
 115   0.0000       0.093344         2.5400 
 116   0.0000       0.110324         3.0021 
 117   0.0000       0.110924         3.0184 
 118   0.0000       0.117102         3.1865 
 119   0.0000       0.127653         3.4736 
 120   0.0000       0.132035         3.5929 
 121   0.0000       0.134218         3.6523 
 122   0.0000       0.141934         3.8622 
 123   0.0000       0.144167         3.9230 
 124   0.0000       0.152372         4.1463 
 125   0.0000       0.161280         4.3887 
 126   0.0000       0.166750         4.5375 
 127   0.0000       0.169584         4.6146 
 128   0.0000       0.184151         5.0110 
 129   0.0000       0.188491         5.1291 
 130   0.0000       0.189486         5.1562 
 131   0.0000       0.191834         5.2201 
 132   0.0000       0.195023         5.3068 
 133   0.0000       0.201821         5.4918 
 134   0.0000       0.213762         5.8168 
 135   0.0000       0.218193         5.9373 
 136   0.0000       0.224163         6.0998 
 137   0.0000       0.231695         6.3047 
 138   0.0000       0.233145         6.3442 
 139   0.0000       0.244706         6.6588 
 140   0.0000       0.259660         7.0657 
 141   0.0000       0.264000         7.1838 
 142   0.0000       0.273311         7.4372 
 143   0.0000       0.281912         7.6712 
 144   0.0000       0.302207         8.2235 
 145   0.0000       0.304044         8.2734 
 146   0.0000       0.320001         8.7077 
 147   0.0000       0.325918         8.8687 
 148   0.0000       0.332885         9.0583 
 149   0.0000       0.334448         9.1008 
 150   0.0000       0.339026         9.2254 
 151   0.0000       0.347540         9.4570 
 152   0.0000       0.351410         9.5623 
 153   0.0000       0.354638         9.6502 
 154   0.0000       0.364266         9.9122 
 155   0.0000       0.375159        10.2086 
 156   0.0000       0.380529        10.3547 
 157   0.0000       0.385918        10.5014 
 158   0.0000       0.388688        10.5767 
 159   0.0000       0.394590        10.7373 
 160   0.0000       0.401840        10.9346 
 161   0.0000       0.405961        11.0468 
 162   0.0000       0.410350        11.1662 
 163   0.0000       0.433344        11.7919 
 164   0.0000       0.438259        11.9256 
 165   0.0000       0.440790        11.9945 
 166   0.0000       0.443833        12.0773 
 167   0.0000       0.444695        12.1008 
 168   0.0000       0.447415        12.1748 
 169   0.0000       0.455591        12.3973 
 170   0.0000       0.457990        12.4625 
 171   0.0000       0.459980        12.5167 
 172   0.0000       0.465370        12.6634 
 173   0.0000       0.468522        12.7491 
 174   0.0000       0.476249        12.9594 
 175   0.0000       0.478596        13.0233 
 176   0.0000       0.483693        13.1620 
 177   0.0000       0.487603        13.2683 
 178   0.0000       0.489280        13.3140 
 179   0.0000       0.494477        13.4554 
 180   0.0000       0.500198        13.6111 
 181   0.0000       0.506400        13.7798 
 182   0.0000       0.511161        13.9094 
 183   0.0000       0.514422        13.9981 
 184   0.0000       0.516559        14.0563 
 185   0.0000       0.521555        14.1922 
 186   0.0000       0.525519        14.3001 
 187   0.0000       0.531447        14.4614 
 188   0.0000       0.536123        14.5887 
 189   0.0000       0.538634        14.6570 
 190   0.0000       0.543692        14.7946 
 191   0.0000       0.545125        14.8336 
 192   0.0000       0.551275        15.0010 
 193   0.0000       0.551517        15.0075 
 194   0.0000       0.562091        15.2953 
 195   0.0000       0.566969        15.4280 
 196   0.0000       0.575502        15.6602 
 197   0.0000       0.577289        15.7088 
 198   0.0000       0.579225        15.7615 
 199   0.0000       0.587491        15.9865 
 200   0.0000       0.595214        16.1966 
 201   0.0000       0.601324        16.3628 
 202   0.0000       0.604770        16.4566 
 203   0.0000       0.605972        16.4893 
 204   0.0000       0.609177        16.5766 
 205   0.0000       0.613338        16.6898 
 206   0.0000       0.623703        16.9718 
 207   0.0000       0.629927        17.1412 
 208   0.0000       0.633952        17.2507 
 209   0.0000       0.642915        17.4946 
 210   0.0000       0.650374        17.6976 
 211   0.0000       0.652296        17.7499 
 212   0.0000       0.653406        17.7801 
 213   0.0000       0.656034        17.8516 
 214   0.0000       0.660122        17.9628 
 215   0.0000       0.662875        18.0378 
 216   0.0000       0.665766        18.1164 
 217   0.0000       0.667937        18.1755 
 218   0.0000       0.669532        18.2189 
 219   0.0000       0.675364        18.3776 
 220   0.0000       0.677138        18.4259 
 221   0.0000       0.686330        18.6760 
 222   0.0000       0.688668        18.7396 
 223   0.0000       0.694123        18.8881 
 224   0.0000       0.698002        18.9936 
 225   0.0000       0.703218        19.1355 
 226   0.0000       0.710818        19.3423 
 227   0.0000       0.714070        19.4308 
 228   0.0000       0.714881        19.4529 
 229   0.0000       0.721183        19.6244 
 230   0.0000       0.725036        19.7292 
 231   0.0000       0.728806        19.8318 
 232   0.0000       0.732732        19.9387 
 233   0.0000       0.733998        19.9731 
 234   0.0000       0.743153        20.2222 
 235   0.0000       0.745298        20.2806 
 236   0.0000       0.757154        20.6032 
 237   0.0000       0.762575        20.7507 
 238   0.0000       0.772958        21.0333 
 239   0.0000       0.775639        21.1062 
 240   0.0000       0.791127        21.5277 
 241   0.0000       0.796240        21.6668 
 242   0.0000       0.802526        21.8379 
 243   0.0000       0.808362        21.9967 
 244   0.0000       0.828965        22.5573 
 245   0.0000       0.835576        22.7372 
 246   0.0000       0.836830        22.7713 
 247   0.0000       0.842605        22.9284 
 248   0.0000       0.848285        23.0830 
 249   0.0000       0.860069        23.4037 
 250   0.0000       0.862192        23.4614 
 251   0.0000       0.867562        23.6076 
 252   0.0000       0.873624        23.7725 
 253   0.0000       0.875763        23.8307 
 254   0.0000       0.880673        23.9643 
 255   0.0000       0.883978        24.0543 
 256   0.0000       0.888956        24.1897 
 257   0.0000       0.891443        24.2574 
 258   0.0000       0.897039        24.4097 
 259   0.0000       0.900361        24.5001 
 260   0.0000       0.908977        24.7345 
 261   0.0000       0.911910        24.8143 
 262   0.0000       0.919785        25.0286 
 263   0.0000       0.927699        25.2440 
 264   0.0000       0.933270        25.3956 
 265   0.0000       0.933950        25.4141 
 266   0.0000       0.938080        25.5264 
[...]
 52:    580.79   0.015731   79.50  0.008453  (-0.080126  0.041722 -0.017083)
 53:    593.70   0.002775   14.02  0.001459  (-0.021505 -0.026589 -0.017006)
 54:    596.13   0.002699   13.64  0.001413  (-0.028695 -0.017689 -0.016638)
 55:    613.48   0.003329   16.82  0.001693  (-0.039234 -0.000108 -0.012413)
 56:    647.28   0.000213    1.08  0.000103  (-0.003423  0.009484  0.001028)
 57:    652.51   0.001580    7.98  0.000756  (-0.017347  0.017179  0.012630)
 58:    719.98   0.001990   10.06  0.000862  ( 0.006387 -0.009501  0.027045)
 59:    750.67   0.000260    1.31  0.000108  ( 0.001799  0.004855  0.009020)
 60:    751.42   0.000192    0.97  0.000080  (-0.007500 -0.001659 -0.004535)
 61:    769.01   0.002190   11.07  0.000889  ( 0.023700  0.009623  0.015311)
 62:    770.62   0.002186   11.05  0.000885  (-0.024279 -0.000533  0.017191)
 63:    774.83   0.003723   18.82  0.001500  ( 0.015238 -0.033617  0.011718)
 64:    819.12   0.007495   37.88  0.002855  ( 0.021493 -0.048384 -0.007237)
 65:    819.78   0.008111   40.99  0.003088  (-0.052171  0.001259 -0.019088)
 66:    825.85   0.011774   59.50  0.004449  ( 0.008383 -0.041137  0.051830)
 67:    826.86   0.010717   54.16  0.004045  ( 0.032225 -0.036405 -0.040998)
 68:    858.75   0.001019    5.15  0.000370  ( 0.012605 -0.005503 -0.013458)
 69:    874.90   0.000454    2.30  0.000162  (-0.008939  0.009054 -0.000443)
 70:    887.28   0.003867   19.54  0.001360  (-0.009026  0.024630 -0.025919)
 71:    915.16   0.002303   11.64  0.000785  (-0.009399  0.004521  0.026010)
 72:    924.08   0.000636    3.22  0.000215  (-0.000091 -0.013202 -0.006371)
 73:    927.92   0.003715   18.77  0.001249  (-0.031055  0.016145  0.004911)
 74:    954.05   0.000312    1.57  0.000102  (-0.000530  0.005063 -0.008717)
 75:    954.61   0.000429    2.17  0.000140  ( 0.009470 -0.005753  0.004196)
 76:    964.66   0.006208   31.37  0.002008  ( 0.012168 -0.029640 -0.031331)
 77:    974.98   0.004429   22.38  0.001418  (-0.004125 -0.032232 -0.019018)
 78:    984.89   0.001112    5.62  0.000352  (-0.002761 -0.004515 -0.018012)
 79:   1012.40   0.011917   60.22  0.003673  (-0.003965 -0.003482  0.060377)
 80:   1018.12   0.012806   64.71  0.003925  ( 0.028105 -0.055540 -0.007106)
 81:   1059.07   0.024866  125.66  0.007327  ( 0.069855 -0.007396 -0.048915)
 82:   1060.21   0.023092  116.70  0.006797  ( 0.023537  0.076956 -0.017909)
 83:   1143.28   0.034511  174.40  0.009420  ( 0.073524 -0.002205  0.063318)
 84:   1145.62   0.032088  162.16  0.008741  ( 0.012945 -0.088458  0.027352)
 85:   1172.74   0.078454  396.47  0.020876  (-0.135467  0.047002 -0.017771)
 86:   1177.24   0.002303   11.64  0.000611  (-0.021348 -0.012433 -0.000494)
 87:   1177.76   0.002103   10.63  0.000557  (-0.019035  0.013692 -0.002738)
 88:   1188.82   0.007732   39.08  0.002030  ( 0.041007 -0.010046  0.015724)
 89:   1189.50   0.005640   28.50  0.001480  ( 0.018545 -0.024197  0.023455)
 90:   1200.05   0.031964  161.53  0.008312  ( 0.071583  0.046475  0.032061)
 91:   1204.56   0.028460  143.83  0.007373  ( 0.085459 -0.006143 -0.005678)
 92:   1206.58   0.065233  329.66  0.016871  ( 0.095345  0.088206 -0.000592)
 93:   1223.04   0.012094   61.12  0.003086  ( 0.022590 -0.050667  0.002901)
 94:   1224.08   0.004708   23.79  0.001200  (-0.025951  0.003670 -0.022656)
 95:   1268.64   0.012505   63.19  0.003076  (-0.053695  0.013874 -0.000590)
 96:   1272.89   0.009766   49.36  0.002394  (-0.010212 -0.034448  0.033217)
 97:   1289.90   0.013340   67.42  0.003227  (-0.032769 -0.036085  0.029180)
 98:   1290.36   0.061114  308.84  0.014780  ( 0.118207  0.019681 -0.020486)
 99:   1301.40   0.026366  133.24  0.006322  ( 0.031698 -0.072921  0.000230)
100:   1310.91   0.001288    6.51  0.000307  ( 0.009453  0.014316  0.003521)
101:   1319.21   0.078162  395.00  0.018489  (-0.096743  0.095212 -0.008064)
102:   1328.01   0.133358  673.94  0.031337  (-0.169599 -0.048663  0.014321)
103:   1341.23   0.000207    1.04  0.000048  ( 0.005129 -0.003181  0.003417)
104:   1362.21   0.009532   48.17  0.002184  (-0.041386  0.021338 -0.003947)
105:   1366.25   0.033184  167.70  0.007579  ( 0.084708  0.019731 -0.003826)
106:   1372.78   0.035519  179.50  0.008074  ( 0.082770  0.014065 -0.032024)
107:   1382.00   0.021304  107.66  0.004810  ( 0.050544  0.047361 -0.003566)
108:   1385.53   0.039882  201.55  0.008983  (-0.084735  0.041924 -0.006713)
109:   1449.71   0.001321    6.68  0.000284  ( 0.014450 -0.004428  0.007485)
110:   1464.77   0.011931   60.30  0.002542  (-0.043150 -0.005099 -0.025574)
111:   1468.50   0.000468    2.37  0.000100  (-0.001975 -0.002830  0.009359)
112:   1469.65   0.002708   13.69  0.000575  (-0.009983  0.006943 -0.020668)
113:   1484.61   0.002848   14.39  0.000599  ( 0.017958  0.002254  0.016467)
114:   1484.74   0.002835   14.33  0.000596  (-0.005379  0.023443 -0.004155)
115:   1496.44   0.003459   17.48  0.000721  ( 0.026664 -0.003055  0.001024)
116:   1496.86   0.009234   46.66  0.001925  ( 0.030950  0.021256 -0.022702)
117:   1501.24   0.000968    4.89  0.000201  ( 0.010376  0.000864 -0.009638)
118:   1501.43   0.001044    5.27  0.000217  ( 0.012551  0.001352  0.007587)
119:   1563.50   0.077005  389.15  0.015370  (-0.111211 -0.053732  0.010703)
120:   1565.02   0.060894  307.73  0.012142  (-0.095741  0.053907 -0.008365)
121:   1664.86   0.002416   12.21  0.000453  (-0.008067  0.004973 -0.019051)
122:   1665.05   0.002863   14.47  0.000537  (-0.006265 -0.021545  0.005756)
123:   1680.45   0.065324  330.12  0.012131  (-0.094293  0.039588 -0.040895)
124:   1680.76   0.041399  209.22  0.007687  ( 0.025159  0.079744  0.026351)
125:   1718.82   0.194908  984.98  0.035387  ( 0.135949  0.107880  0.072572)
126:   1721.21   0.041838  211.43  0.007585  (-0.056238  0.065921 -0.008787)
127:   1722.39   0.014354   72.54  0.002601  (-0.018453  0.046168  0.011346)
128:   1747.48   0.104079  525.97  0.018586  ( 0.085974 -0.074199  0.075427)
129:   1765.59   0.155633  786.50  0.027508  (-0.039965 -0.144383 -0.071163)
130:   3043.45   0.013744   69.46  0.001409  (-0.022449 -0.006828  0.029303)
131:   3043.94   0.013431   67.87  0.001377  ( 0.004014 -0.035048  0.011509)
132:   3088.01   0.001001    5.06  0.000101  ( 0.007849  0.005680  0.002706)
133:   3117.31   0.010283   51.97  0.001029  (-0.018417  0.025279 -0.007157)
134:   3118.82   0.010143   51.26  0.001015  (-0.029465 -0.007251 -0.009701)
135:   3134.19   0.000843    4.26  0.000084  (-0.005851  0.006692  0.002216)
136:   3162.38   0.008480   42.86  0.000837  (-0.023583 -0.013274 -0.010221)
137:   3162.85   0.008135   41.11  0.000803  (-0.013444 -0.001532  0.024890)
138:   3166.88   0.002967   15.00  0.000292  ( 0.016862  0.001711  0.002267)
139:   3169.14   0.001998   10.10  0.000197  (-0.010022 -0.006003  0.007767)
140:   3180.00   0.003765   19.03  0.000369  (-0.017262 -0.007389 -0.004106)
141:   3180.24   0.003567   18.03  0.000350  (-0.013954  0.012305 -0.001979)
142:   3185.31   0.002389   12.07  0.000234  ( 0.014667  0.004116  0.001394)
143:   3187.57   0.001643    8.31  0.000161  ( 0.008607  0.004665 -0.008066)
144:   3196.29   0.003217   16.26  0.000314  (-0.009364 -0.015032 -0.000659)
145:   3197.04   0.003058   15.45  0.000298  (-0.000333 -0.002967  0.017017)
146:   3206.23   0.000927    4.68  0.000090  (-0.002517 -0.002442  0.008826)
147:   3206.84   0.001101    5.56  0.000107  ( 0.007926  0.006617  0.000743)
148:   3806.52   0.038592  195.03  0.003164  (-0.040626 -0.013141 -0.036615)
149:   3808.47   0.038423  194.17  0.003148  ( 0.015794 -0.053800  0.002110)

* The epsilon (eps) is given for a Dirac delta lineshape.
** The dipole moment derivative (T) already includes vibrational overlap.

The first frequency considered to be a vibration is 6
The total number of vibrations considered is 144


--------------------------
THERMOCHEMISTRY AT 298.15K
--------------------------

Temperature         ... 298.15 K
Pressure            ... 1.00 atm
Total Mass          ... 414.39 AMU

Throughout the following assumptions are being made:
  (1) The electronic state is orbitally nondegenerate
      but the spin degeneracy is treated
  (2) There are no thermally accessible electronically excited states
  (3) Hindered rotations indicated by low frequency modes are not
      treated as such but are treated as vibrations and this may
      cause some error
  (4) All equations used are the standard statistical mechanics
      equations for an ideal gas
  (5) All vibrations are strictly harmonic

freq.      10.14  E(vib)   ...       0.58 
freq.      19.31  E(vib)   ...       0.57 
freq.      26.36  E(vib)   ...       0.56 
freq.      27.77  E(vib)   ...       0.55 
freq.      28.48  E(vib)   ...       0.55 
freq.      34.16  E(vib)   ...       0.55 
freq.      53.02  E(vib)   ...       0.52 
freq.      57.46  E(vib)   ...       0.51 
freq.      59.90  E(vib)   ...       0.51 
freq.      72.71  E(vib)   ...       0.49 
freq.      77.36  E(vib)   ...       0.49 
freq.      81.02  E(vib)   ...       0.48 
freq.      90.39  E(vib)   ...       0.47 
freq.      94.21  E(vib)   ...       0.47 
freq.     104.55  E(vib)   ...       0.46 
freq.     129.49  E(vib)   ...       0.43 
freq.     136.66  E(vib)   ...       0.42 
freq.     139.83  E(vib)   ...       0.41 
freq.     144.69  E(vib)   ...       0.41 
freq.     154.77  E(vib)   ...       0.40 
freq.     161.76  E(vib)   ...       0.39 
freq.     169.65  E(vib)   ...       0.38 
freq.     170.50  E(vib)   ...       0.38 
freq.     177.05  E(vib)   ...       0.37 
freq.     208.66  E(vib)   ...       0.34 
freq.     215.81  E(vib)   ...       0.34 
freq.     244.74  E(vib)   ...       0.31 
freq.     301.52  E(vib)   ...       0.26 
freq.     301.84  E(vib)   ...       0.26 
freq.     315.65  E(vib)   ...       0.25 
freq.     318.39  E(vib)   ...       0.25 
freq.     335.79  E(vib)   ...       0.24 
freq.     339.20  E(vib)   ...       0.23 
freq.     391.56  E(vib)   ...       0.20 
freq.     398.01  E(vib)   ...       0.20 
freq.     401.47  E(vib)   ...       0.19 
freq.     406.57  E(vib)   ...       0.19 
freq.     418.22  E(vib)   ...       0.18 
freq.     460.76  E(vib)   ...       0.16 
freq.     471.00  E(vib)   ...       0.15 
freq.     473.80  E(vib)   ...       0.15 
freq.     501.26  E(vib)   ...       0.14 
freq.     502.63  E(vib)   ...       0.14 
freq.     545.10  E(vib)   ...       0.12 
freq.     559.42  E(vib)   ...       0.12 
freq.     569.91  E(vib)   ...       0.11 
freq.     580.79  E(vib)   ...       0.11 
freq.     593.70  E(vib)   ...       0.10 
freq.     596.13  E(vib)   ...       0.10 
freq.     613.48  E(vib)   ...       0.10 
freq.     647.28  E(vib)   ...       0.09 
freq.     652.51  E(vib)   ...       0.08 
freq.     719.98  E(vib)   ...       0.07 
freq.     750.67  E(vib)   ...       0.06 
freq.     751.42  E(vib)   ...       0.06 
freq.     769.01  E(vib)   ...       0.06 
freq.     770.62  E(vib)   ...       0.05 
freq.     774.83  E(vib)   ...       0.05 
freq.     819.12  E(vib)   ...       0.05 
freq.     819.78  E(vib)   ...       0.05 
freq.     825.85  E(vib)   ...       0.04 
freq.     826.86  E(vib)   ...       0.04 
freq.     858.75  E(vib)   ...       0.04 
freq.     874.90  E(vib)   ...       0.04 
freq.     887.28  E(vib)   ...       0.04 
freq.     915.16  E(vib)   ...       0.03 
freq.     924.08  E(vib)   ...       0.03 
freq.     927.92  E(vib)   ...       0.03 
freq.     954.05  E(vib)   ...       0.03 
freq.     954.61  E(vib)   ...       0.03 
freq.     964.66  E(vib)   ...       0.03 
freq.     974.98  E(vib)   ...       0.03 
freq.     984.89  E(vib)   ...       0.02 
freq.    1012.40  E(vib)   ...       0.02 
freq.    1018.12  E(vib)   ...       0.02 
freq.    1059.07  E(vib)   ...       0.02 
freq.    1060.21  E(vib)   ...       0.02 
freq.    1143.28  E(vib)   ...       0.01 
freq.    1145.62  E(vib)   ...       0.01 
freq.    1172.74  E(vib)   ...       0.01 
freq.    1177.24  E(vib)   ...       0.01 
freq.    1177.76  E(vib)   ...       0.01 
freq.    1188.82  E(vib)   ...       0.01 
freq.    1189.50  E(vib)   ...       0.01 
freq.    1200.05  E(vib)   ...       0.01 
freq.    1204.56  E(vib)   ...       0.01 
freq.    1206.58  E(vib)   ...       0.01 
freq.    1223.04  E(vib)   ...       0.01 
freq.    1224.08  E(vib)   ...       0.01 
freq.    1268.64  E(vib)   ...       0.01 
freq.    1272.89  E(vib)   ...       0.01 
freq.    1289.90  E(vib)   ...       0.01 
freq.    1290.36  E(vib)   ...       0.01 
freq.    1301.40  E(vib)   ...       0.01 
freq.    1310.91  E(vib)   ...       0.01 
freq.    1319.21  E(vib)   ...       0.01 
freq.    1328.01  E(vib)   ...       0.01 
freq.    1341.23  E(vib)   ...       0.01 
freq.    1362.21  E(vib)   ...       0.01 
freq.    1366.25  E(vib)   ...       0.01 
freq.    1372.78  E(vib)   ...       0.01 
freq.    1382.00  E(vib)   ...       0.01 
freq.    1385.53  E(vib)   ...       0.00 
freq.    1449.71  E(vib)   ...       0.00 
freq.    1464.77  E(vib)   ...       0.00 
freq.    1468.50  E(vib)   ...       0.00 
freq.    1469.65  E(vib)   ...       0.00 
freq.    1484.61  E(vib)   ...       0.00 
freq.    1484.74  E(vib)   ...       0.00 
freq.    1496.44  E(vib)   ...       0.00 
freq.    1496.86  E(vib)   ...       0.00 
freq.    1501.24  E(vib)   ...       0.00 
freq.    1501.43  E(vib)   ...       0.00 
freq.    1563.50  E(vib)   ...       0.00 
freq.    1565.02  E(vib)   ...       0.00 
freq.    1664.86  E(vib)   ...       0.00 
freq.    1665.05  E(vib)   ...       0.00 
freq.    1680.45  E(vib)   ...       0.00 
freq.    1680.76  E(vib)   ...       0.00 
freq.    1718.82  E(vib)   ...       0.00 
freq.    1721.21  E(vib)   ...       0.00 
freq.    1722.39  E(vib)   ...       0.00 
freq.    1747.48  E(vib)   ...       0.00 
freq.    1765.59  E(vib)   ...       0.00 
freq.    3043.45  E(vib)   ...       0.00 
freq.    3043.94  E(vib)   ...       0.00 
freq.    3088.01  E(vib)   ...       0.00 
freq.    3117.31  E(vib)   ...       0.00 
freq.    3118.82  E(vib)   ...       0.00 
freq.    3134.19  E(vib)   ...       0.00 
freq.    3162.38  E(vib)   ...       0.00 
freq.    3162.85  E(vib)   ...       0.00 
freq.    3166.88  E(vib)   ...       0.00 
freq.    3169.14  E(vib)   ...       0.00 
freq.    3180.00  E(vib)   ...       0.00 
freq.    3180.24  E(vib)   ...       0.00 
freq.    3185.31  E(vib)   ...       0.00 
freq.    3187.57  E(vib)   ...       0.00 
freq.    3196.29  E(vib)   ...       0.00 
freq.    3197.04  E(vib)   ...       0.00 
freq.    3206.23  E(vib)   ...       0.00 
freq.    3206.84  E(vib)   ...       0.00 
freq.    3806.52  E(vib)   ...       0.00 
freq.    3808.47  E(vib)   ...       0.00 

------------
INNER ENERGY
------------

The inner energy is: U= E(el) + E(ZPE) + E(vib) + E(rot) + E(trans)
    E(el)   - is the total energy from the electronic structure calculation
              = E(kin-el) + E(nuc-el) + E(el-el) + E(nuc-nuc)
    E(ZPE)  - the the zero temperature vibrational energy from the frequency calculation
    E(vib)  - the the finite temperature correction to E(ZPE) due to population
              of excited vibrational states
    E(rot)  - is the rotational thermal energy
    E(trans)- is the translational thermal energy

Summary of contributions to the inner energy U:
Electronic energy                ...  -1468.51128924 Eh
Zero point energy                ...      0.38114842 Eh     239.17 kcal/mol
Thermal vibrational correction   ...      0.02819865 Eh      17.69 kcal/mol
Thermal rotational correction    ...      0.00141627 Eh       0.89 kcal/mol
Thermal translational correction ...      0.00141627 Eh       0.89 kcal/mol
-----------------------------------------------------------------------
Total thermal energy                  -1468.09910963 Eh


Summary of corrections to the electronic energy:
(perhaps to be used in another calculation)
Total thermal correction                  0.03103119 Eh      19.47 kcal/mol
Non-thermal (ZPE) correction              0.38114842 Eh     239.17 kcal/mol
-----------------------------------------------------------------------
Total correction                          0.41217961 Eh     258.65 kcal/mol


--------
ENTHALPY
--------

The enthalpy is H = U + kB*T
                kB is Boltzmann's constant
Total free energy                 ...  -1468.09910963 Eh 
Thermal Enthalpy correction       ...      0.00094421 Eh       0.59 kcal/mol
-----------------------------------------------------------------------
Total Enthalpy                    ...  -1468.09816542 Eh


Note: Only C1 symmetry has been detected, increase convergence thresholds 
      if your molecule has a higher symmetry. Symmetry factor of 1.0 is   
      used for the rotational entropy correction. 
 

Note: Rotational entropy computed according to Herzberg 
Infrared and Raman Spectra, Chapter V,1, Van Nostrand Reinhold, 1945 
Point Group:  C1, Symmetry Number:   1  
Rotational constants in cm-1:     0.006311     0.001732     0.001444 

Vibrational entropy computed according to the QRRHO of S. Grimme
Chem.Eur.J. 2012 18 9955


-------
ENTROPY
-------

The entropy contributions are T*S = T*(S(el)+S(vib)+S(rot)+S(trans))
     S(el)   - electronic entropy
     S(vib)  - vibrational entropy
     S(rot)  - rotational entropy
     S(trans)- translational entropy
The entropies will be listed as multiplied by the temperature to get
units of energy

Electronic entropy                ...      0.00065446 Eh      0.41 kcal/mol
Vibrational entropy               ...      0.05263071 Eh     33.03 kcal/mol
Rotational entropy                ...      0.01799160 Eh     11.29 kcal/mol
Translational entropy             ...      0.02088467 Eh     13.11 kcal/mol
-----------------------------------------------------------------------
Final entropy term                ...      0.09216143 Eh     57.83 kcal/mol

In case the symmetry of your molecule has not been determined correctly
or in case you have a reason to use a different symmetry number we print 
out the resulting rotational entropy values for sn=1,12 :
 --------------------------------------------------------
|  sn= 1 | S(rot)=       0.01799160 Eh     11.29 kcal/mol|
|  sn= 2 | S(rot)=       0.01733714 Eh     10.88 kcal/mol|
|  sn= 3 | S(rot)=       0.01695431 Eh     10.64 kcal/mol|
|  sn= 4 | S(rot)=       0.01668268 Eh     10.47 kcal/mol|
|  sn= 5 | S(rot)=       0.01647200 Eh     10.34 kcal/mol|
|  sn= 6 | S(rot)=       0.01629985 Eh     10.23 kcal/mol|
|  sn= 7 | S(rot)=       0.01615431 Eh     10.14 kcal/mol|
|  sn= 8 | S(rot)=       0.01602823 Eh     10.06 kcal/mol|
|  sn= 9 | S(rot)=       0.01591702 Eh      9.99 kcal/mol|
|  sn=10 | S(rot)=       0.01581754 Eh      9.93 kcal/mol|
|  sn=11 | S(rot)=       0.01572755 Eh      9.87 kcal/mol|
|  sn=12 | S(rot)=       0.01564540 Eh      9.82 kcal/mol|
 --------------------------------------------------------


-------------------
GIBBS FREE ENERGY
-------------------

The Gibbs free energy is G = H - T*S

Total enthalpy                    ...  -1468.09816542 Eh 
Total entropy correction          ...     -0.09216143 Eh    -57.83 kcal/mol
-----------------------------------------------------------------------
Final Gibbs free energy         ...  -1468.19032685 Eh

For completeness - the Gibbs free energy minus the electronic energy
G-E(el)                           ...      0.32096239 Eh    201.41 kcal/mol



Timings for individual modules:

Sum of individual times         ...   244929.170 sec (=4082.153 min)
GTO integral calculation        ...      448.323 sec (=   7.472 min)   0.2 %
SCF iterations                  ...    43740.171 sec (= 729.003 min)  17.9 %
SCF Gradient evaluation         ...     7495.790 sec (= 124.930 min)   3.1 %
Geometry relaxation             ...       13.893 sec (=   0.232 min)   0.0 %
Numerical frequency calculation ...   193230.993 sec (=3220.517 min)  78.9 %
                             ****ORCA TERMINATED NORMALLY****
TOTAL RUN TIME: 2 days 19 hours 57 minutes 10 seconds 399 msec
