 Entering Gaussian System, Link 0=g16
 Initial command:
 /sw/cluster/pub/apps//g16/l1.exe "/data/natrosa/25939/Gau-537768.inp" -scrdir="/data/natrosa/25939/"
 Entering Link 1 = /sw/cluster/pub/apps//g16/l1.exe PID=    537769.
  
 Copyright (c) 1988,1990,1992,1993,1995,1998,2003,2009,2016,
            Gaussian, Inc.  All Rights Reserved.
  
 This is part of the Gaussian(R) 16 program.  It is based on
 the Gaussian(R) 09 system (copyright 2009, Gaussian, Inc.),
 the Gaussian(R) 03 system (copyright 2003, Gaussian, Inc.),
 the Gaussian(R) 98 system (copyright 1998, Gaussian, Inc.),
 the Gaussian(R) 94 system (copyright 1995, Gaussian, Inc.),
 the Gaussian 92(TM) system (copyright 1992, Gaussian, Inc.),
 the Gaussian 90(TM) system (copyright 1990, Gaussian, Inc.),
 the Gaussian 88(TM) system (copyright 1988, Gaussian, Inc.),
 the Gaussian 86(TM) system (copyright 1986, Carnegie Mellon
 University), and the Gaussian 82(TM) system (copyright 1983,
 Carnegie Mellon University). Gaussian is a federally registered
 trademark of Gaussian, Inc.
  
 This software contains proprietary and confidential information,
 including trade secrets, belonging to Gaussian, Inc.
  
 This software is provided under written license and may be
 used, copied, transmitted, or stored only in accord with that
 written license.
  
 The following legend is applicable only to US Government
 contracts under FAR:
  
                    RESTRICTED RIGHTS LEGEND
  
 Use, reproduction and disclosure by the US Government is
 subject to restrictions as set forth in subparagraphs (a)
 and (c) of the Commercial Computer Software - Restricted
 Rights clause in FAR 52.227-19.
  
 Gaussian, Inc.
 340 Quinnipiac St., Bldg. 40, Wallingford CT 06492
  
  
 ---------------------------------------------------------------
 Warning -- This program may not be used in any manner that
 competes with the business of Gaussian, Inc. or will provide
 assistance to any competitor of Gaussian, Inc.  The licensee
 of this program is prohibited from giving any competitor of
 Gaussian, Inc. access to this program.  By using this program,
 the user acknowledges that Gaussian, Inc. is engaged in the
 business of creating and licensing software in the field of
 computational chemistry and represents and warrants to the
 licensee that it is not a competitor of Gaussian, Inc. and that
 it will not use this program in any manner prohibited above.
 ---------------------------------------------------------------
  

 Cite this work as:
 Gaussian 16, Revision A.03,
 M. J. Frisch, G. W. Trucks, H. B. Schlegel, G. E. Scuseria, 
 M. A. Robb, J. R. Cheeseman, G. Scalmani, V. Barone, 
 G. A. Petersson, H. Nakatsuji, X. Li, M. Caricato, A. V. Marenich, 
 J. Bloino, B. G. Janesko, R. Gomperts, B. Mennucci, H. P. Hratchian, 
 J. V. Ortiz, A. F. Izmaylov, J. L. Sonnenberg, D. Williams-Young, 
 F. Ding, F. Lipparini, F. Egidi, J. Goings, B. Peng, A. Petrone, 
 T. Henderson, D. Ranasinghe, V. G. Zakrzewski, J. Gao, N. Rega, 
 G. Zheng, W. Liang, M. Hada, M. Ehara, K. Toyota, R. Fukuda, 
 J. Hasegawa, M. Ishida, T. Nakajima, Y. Honda, O. Kitao, H. Nakai, 
 T. Vreven, K. Throssell, J. A. Montgomery, Jr., J. E. Peralta, 
 F. Ogliaro, M. J. Bearpark, J. J. Heyd, E. N. Brothers, K. N. Kudin, 
 V. N. Staroverov, T. A. Keith, R. Kobayashi, J. Normand, 
 K. Raghavachari, A. P. Rendell, J. C. Burant, S. S. Iyengar, 
 J. Tomasi, M. Cossi, J. M. Millam, M. Klene, C. Adamo, R. Cammi, 
 J. W. Ochterski, R. L. Martin, K. Morokuma, O. Farkas, 
 J. B. Foresman, and D. J. Fox, Gaussian, Inc., Wallingford CT, 2016.
 
 ******************************************
 Gaussian 16:  ES64L-G16RevA.03 25-Dec-2016
                 5-Dec-2024 
 ******************************************
 %oldchk=/home/natrosa/MOSSRI/REACAO-1/B3LYP-6-311+G-D/CURCUMIN-OPT-FREQ-Prod-1-B
 3LYP-6-311+G-D-298.chk
 %chk=CURCUMIN-OPT-FREQ-Prod-1-B3LYP-6-311+G-D-363.chk
 Copying data from "/home/natrosa/MOSSRI/REACAO-1/B3LYP-6-311+G-D/CURCUMIN-OPT-FREQ-Prod-1-B3LYP-6-311+G-D-298.chk" to current chk file "CURCUMIN-OPT-FREQ-Prod-1-B3LYP-6-311+G-D-363.chk"
 IOpt=  2 FromEx=T IUOpen= 4 IOptOp= 5 NList=   0 IFRang= 0 IUIn= 4 IUOut= 2.
 ----------------------------------------------------------------------
 # freq=(readfc,noraman) Geom=Check Guess=Read M062X/6-311+g(d) scrf=(s
 md,solvent=generic,read) temperature=363.15
 ----------------------------------------------------------------------
 1/29=2,38=1,40=2,112=363150,172=1/1;
 2/12=2,40=1/2;
 7/8=1,25=11/16;
 99/5=2/99;
 ----------
 Reagente 1
 ----------
 Structure from the checkpoint file:  "CURCUMIN-OPT-FREQ-Prod-1-B3LYP-6-311+G-D-363.chk"
 Charge =  0 Multiplicity = 2
 Redundant internal coordinates found in file.  (old form).
 C,0,2.1880618184,0.8541966374,0.8296773207
 H,0,1.7728679571,1.8564887913,0.8609519207
 C,0,1.4644112066,-0.1414420792,1.3798046126
 H,0,1.8076519226,-1.1687503189,1.4219504711
 C,0,0.1424624634,0.0391167401,2.0018505317
 O,0,-0.4430632074,-0.9290151105,2.4707542208
 C,0,3.5042708363,0.8160680103,0.1960260542
 C,0,4.1637944278,2.0438057616,0.0123944401
 C,0,4.2164080435,-0.3195469507,-0.2326857654
 C,0,5.4323681317,2.1308988281,-0.5415580181
 H,0,3.6605021587,2.9529973213,0.3213268484
 C,0,5.4871337813,-0.2756612099,-0.7950584228
 H,0,5.6361256059,-2.2982027512,4.4146018794
 C,0,6.1034613834,0.9819103599,-0.954679762
 H,0,5.9005689833,3.1020984538,-0.6726059519
 O,0,7.3256042001,0.9999395158,-1.5375624769
 H,0,7.6497626753,1.90967624,-1.6154835051
 O,0,6.0401298984,-1.4233903246,-1.2704783066
 C,0,7.218945811,-1.9015726837,-0.5845766245
 H,0,6.999127686,-2.0689889815,0.4724735538
 H,0,7.4717489132,-2.8470576973,-1.0608819347
 H,0,8.0452717005,-1.1990670611,-0.6940004896
 C,0,-3.1471411382,0.5301377542,0.9374299158
 H,0,-2.7841126533,0.1167670428,1.873981243
 C,0,-2.3827897805,1.4391864352,0.2920051657
 H,0,-2.6989839789,1.8700076429,-0.6537745996
 C,0,-1.0847803923,1.9305403173,0.7540383038
 O,0,-0.4621833678,2.7539182386,0.0898383248
 C,0,-4.4391259653,0.0080078187,0.5141118127
 C,0,-5.0700301557,-0.9614589523,1.3107863149
 C,0,-5.0996883538,0.4310821293,-0.6562230869
 C,0,-6.3018773985,-1.4943584513,0.9523191395
 H,0,-4.5857580021,-1.307204015,2.218087796
 C,0,-6.3295102576,-0.0880631114,-1.0233021506
 H,0,-4.6579601947,1.1757066413,-1.3086420857
 C,0,-6.9391459539,-1.0724242511,-0.2148182418
 H,0,-6.7702357767,-2.2524532066,1.5744499432
 O,0,-8.1318719655,-1.5760264309,-0.6270527236
 H,0,-8.4457219139,-2.2456801872,-0.0017953987
 O,0,-6.9013453576,0.3078695615,-2.2048072543
 C,0,-8.0731357794,1.1304972746,-2.0818063436
 H,0,-7.8347515947,2.0577894395,-1.5509504599
 H,0,-8.3867132047,1.3653973842,-3.0984541584
 H,0,-8.8775393552,0.6033598063,-1.5653582367
 C,0,-0.4953928595,1.4304457255,2.0823072793
 H,0,-1.2698076407,1.3789996493,2.8474572134
 H,0,0.2447112247,2.1672019935,2.3959965442
 O,0,4.0300731553,-2.4291086981,0.705785392
 O,0,2.7729605432,-1.9569197425,-0.9979724267
 N,0,3.6225177201,-1.6761592989,-0.1672888179
 Recover connectivity data from disk.
                           ----------------------------
                           !    Current Parameters    !
                           ! (Angstroms and Degrees)  !
 --------------------------                            --------------------------
 ! Name  Definition              Value          Derivative Info.                !
 --------------------------------------------------------------------------------
 ! R1    R(1,2)                  1.0853         estimate D2E/DX2                !
 ! R2    R(1,3)                  1.3482         estimate D2E/DX2                !
 ! R3    R(1,7)                  1.4613         estimate D2E/DX2                !
 ! R4    R(3,4)                  1.084          estimate D2E/DX2                !
 ! R5    R(3,5)                  1.4721         estimate D2E/DX2                !
 ! R6    R(5,6)                  1.2247         estimate D2E/DX2                !
 ! R7    R(5,45)                 1.5327         estimate D2E/DX2                !
 ! R8    R(7,8)                  1.4057         estimate D2E/DX2                !
 ! R9    R(7,9)                  1.4073         estimate D2E/DX2                !
 ! R10   R(8,10)                 1.387          estimate D2E/DX2                !
 ! R11   R(8,11)                 1.0841         estimate D2E/DX2                !
 ! R12   R(9,12)                 1.3903         estimate D2E/DX2                !
 ! R13   R(9,50)                 1.4824         estimate D2E/DX2                !
 ! R14   R(10,14)                1.3933         estimate D2E/DX2                !
 ! R15   R(10,15)                1.0861         estimate D2E/DX2                !
 ! R16   R(12,14)                1.4095         estimate D2E/DX2                !
 ! R17   R(12,18)                1.3598         estimate D2E/DX2                !
 ! R18   R(13,20)                4.1774         estimate D2E/DX2                !
 ! R19   R(13,48)                4.0437         estimate D2E/DX2                !
 ! R20   R(14,16)                1.3541         estimate D2E/DX2                !
 ! R21   R(16,17)                0.9689         estimate D2E/DX2                !
 ! R22   R(18,19)                1.4452         estimate D2E/DX2                !
 ! R23   R(19,20)                1.0926         estimate D2E/DX2                !
 ! R24   R(19,21)                1.0884         estimate D2E/DX2                !
 ! R25   R(19,22)                1.0901         estimate D2E/DX2                !
 ! R26   R(23,24)                1.0862         estimate D2E/DX2                !
 ! R27   R(23,25)                1.3517         estimate D2E/DX2                !
 ! R28   R(23,29)                1.4564         estimate D2E/DX2                !
 ! R29   R(25,26)                1.0863         estimate D2E/DX2                !
 ! R30   R(25,27)                1.4628         estimate D2E/DX2                !
 ! R31   R(27,28)                1.2275         estimate D2E/DX2                !
 ! R32   R(27,45)                1.5368         estimate D2E/DX2                !
 ! R33   R(29,30)                1.4045         estimate D2E/DX2                !
 ! R34   R(29,31)                1.4089         estimate D2E/DX2                !
 ! R35   R(30,32)                1.3892         estimate D2E/DX2                !
 ! R36   R(30,33)                1.085          estimate D2E/DX2                !
 ! R37   R(31,34)                1.3845         estimate D2E/DX2                !
 ! R38   R(31,35)                1.0841         estimate D2E/DX2                !
 ! R39   R(32,36)                1.3951         estimate D2E/DX2                !
 ! R40   R(32,37)                1.0868         estimate D2E/DX2                !
 ! R41   R(34,36)                1.4122         estimate D2E/DX2                !
 ! R42   R(34,40)                1.371          estimate D2E/DX2                !
 ! R43   R(36,38)                1.3587         estimate D2E/DX2                !
 ! R44   R(38,39)                0.9684         estimate D2E/DX2                !
 ! R45   R(40,41)                1.437          estimate D2E/DX2                !
 ! R46   R(41,42)                1.0948         estimate D2E/DX2                !
 ! R47   R(41,43)                1.0895         estimate D2E/DX2                !
 ! R48   R(41,44)                1.0916         estimate D2E/DX2                !
 ! R49   R(45,46)                1.0899         estimate D2E/DX2                !
 ! R50   R(45,47)                1.0904         estimate D2E/DX2                !
 ! R51   R(48,50)                1.2228         estimate D2E/DX2                !
 ! R52   R(49,50)                1.2209         estimate D2E/DX2                !
 ! A1    A(2,1,3)              117.7039         estimate D2E/DX2                !
 ! A2    A(2,1,7)              112.4055         estimate D2E/DX2                !
 ! A3    A(3,1,7)              129.8767         estimate D2E/DX2                !
 ! A4    A(1,3,4)              123.0799         estimate D2E/DX2                !
 ! A5    A(1,3,5)              124.3227         estimate D2E/DX2                !
 ! A6    A(4,3,5)              112.5923         estimate D2E/DX2                !
 ! A7    A(3,5,6)              119.6131         estimate D2E/DX2                !
 ! A8    A(3,5,45)             120.4803         estimate D2E/DX2                !
 ! A9    A(6,5,45)             119.9017         estimate D2E/DX2                !
 ! A10   A(1,7,8)              117.1582         estimate D2E/DX2                !
 ! A11   A(1,7,9)              127.5124         estimate D2E/DX2                !
 ! A12   A(8,7,9)              115.3129         estimate D2E/DX2                !
 ! A13   A(7,8,10)             122.4209         estimate D2E/DX2                !
 ! A14   A(7,8,11)             118.517          estimate D2E/DX2                !
 ! A15   A(10,8,11)            119.0613         estimate D2E/DX2                !
 ! A16   A(7,9,12)             124.0733         estimate D2E/DX2                !
 ! A17   A(7,9,50)             121.4874         estimate D2E/DX2                !
 ! A18   A(12,9,50)            114.3881         estimate D2E/DX2                !
 ! A19   A(8,10,14)            120.4766         estimate D2E/DX2                !
 ! A20   A(8,10,15)            119.9089         estimate D2E/DX2                !
 ! A21   A(14,10,15)           119.6044         estimate D2E/DX2                !
 ! A22   A(9,12,14)            118.2692         estimate D2E/DX2                !
 ! A23   A(9,12,18)            119.1089         estimate D2E/DX2                !
 ! A24   A(14,12,18)           122.3859         estimate D2E/DX2                !
 ! A25   A(20,13,48)            42.7643         estimate D2E/DX2                !
 ! A26   A(10,14,12)           119.4436         estimate D2E/DX2                !
 ! A27   A(10,14,16)           123.4607         estimate D2E/DX2                !
 ! A28   A(12,14,16)           117.0811         estimate D2E/DX2                !
 ! A29   A(14,16,17)           110.4303         estimate D2E/DX2                !
 ! A30   A(12,18,19)           116.4255         estimate D2E/DX2                !
 ! A31   A(18,19,20)           110.2282         estimate D2E/DX2                !
 ! A32   A(18,19,21)           105.6149         estimate D2E/DX2                !
 ! A33   A(18,19,22)           110.9422         estimate D2E/DX2                !
 ! A34   A(20,19,21)           109.6941         estimate D2E/DX2                !
 ! A35   A(20,19,22)           110.3882         estimate D2E/DX2                !
 ! A36   A(21,19,22)           109.8655         estimate D2E/DX2                !
 ! A37   A(13,20,19)           170.7712         estimate D2E/DX2                !
 ! A38   A(24,23,25)           118.5972         estimate D2E/DX2                !
 ! A39   A(24,23,29)           114.2476         estimate D2E/DX2                !
 ! A40   A(25,23,29)           127.1532         estimate D2E/DX2                !
 ! A41   A(23,25,26)           121.1867         estimate D2E/DX2                !
 ! A42   A(23,25,27)           125.2291         estimate D2E/DX2                !
 ! A43   A(26,25,27)           113.5821         estimate D2E/DX2                !
 ! A44   A(25,27,28)           120.2969         estimate D2E/DX2                !
 ! A45   A(25,27,45)           120.2654         estimate D2E/DX2                !
 ! A46   A(28,27,45)           119.4349         estimate D2E/DX2                !
 ! A47   A(23,29,30)           118.7567         estimate D2E/DX2                !
 ! A48   A(23,29,31)           123.3474         estimate D2E/DX2                !
 ! A49   A(30,29,31)           117.8948         estimate D2E/DX2                !
 ! A50   A(29,30,32)           121.1135         estimate D2E/DX2                !
 ! A51   A(29,30,33)           119.59           estimate D2E/DX2                !
 ! A52   A(32,30,33)           119.2949         estimate D2E/DX2                !
 ! A53   A(29,31,34)           121.6093         estimate D2E/DX2                !
 ! A54   A(29,31,35)           121.0059         estimate D2E/DX2                !
 ! A55   A(34,31,35)           117.3839         estimate D2E/DX2                !
 ! A56   A(30,32,36)           120.3244         estimate D2E/DX2                !
 ! A57   A(30,32,37)           120.1327         estimate D2E/DX2                !
 ! A58   A(36,32,37)           119.5389         estimate D2E/DX2                !
 ! A59   A(31,34,36)           119.5421         estimate D2E/DX2                !
 ! A60   A(31,34,40)           119.3867         estimate D2E/DX2                !
 ! A61   A(36,34,40)           120.9713         estimate D2E/DX2                !
 ! A62   A(32,36,34)           119.5097         estimate D2E/DX2                !
 ! A63   A(32,36,38)           122.8676         estimate D2E/DX2                !
 ! A64   A(34,36,38)           117.6205         estimate D2E/DX2                !
 ! A65   A(36,38,39)           110.175          estimate D2E/DX2                !
 ! A66   A(34,40,41)           115.5734         estimate D2E/DX2                !
 ! A67   A(40,41,42)           110.4161         estimate D2E/DX2                !
 ! A68   A(40,41,43)           106.1555         estimate D2E/DX2                !
 ! A69   A(40,41,44)           111.4043         estimate D2E/DX2                !
 ! A70   A(42,41,43)           109.4219         estimate D2E/DX2                !
 ! A71   A(42,41,44)           109.881          estimate D2E/DX2                !
 ! A72   A(43,41,44)           109.48           estimate D2E/DX2                !
 ! A73   A(5,45,27)            114.1819         estimate D2E/DX2                !
 ! A74   A(5,45,46)            106.8408         estimate D2E/DX2                !
 ! A75   A(5,45,47)            110.2422         estimate D2E/DX2                !
 ! A76   A(27,45,46)           110.4654         estimate D2E/DX2                !
 ! A77   A(27,45,47)           106.8031         estimate D2E/DX2                !
 ! A78   A(46,45,47)           108.1926         estimate D2E/DX2                !
 ! A79   A(13,48,50)           140.1109         estimate D2E/DX2                !
 ! A80   A(9,50,48)            117.483          estimate D2E/DX2                !
 ! A81   A(9,50,49)            117.3368         estimate D2E/DX2                !
 ! A82   A(48,50,49)           125.1769         estimate D2E/DX2                !
 ! D1    D(2,1,3,4)           -178.2204         estimate D2E/DX2                !
 ! D2    D(2,1,3,5)              0.8948         estimate D2E/DX2                !
 ! D3    D(7,1,3,4)              0.3066         estimate D2E/DX2                !
 ! D4    D(7,1,3,5)            179.4217         estimate D2E/DX2                !
 ! D5    D(2,1,7,8)             14.2428         estimate D2E/DX2                !
 ! D6    D(2,1,7,9)           -167.3172         estimate D2E/DX2                !
 ! D7    D(3,1,7,8)           -164.3465         estimate D2E/DX2                !
 ! D8    D(3,1,7,9)             14.0935         estimate D2E/DX2                !
 ! D9    D(1,3,5,6)            179.651          estimate D2E/DX2                !
 ! D10   D(1,3,5,45)            -1.1523         estimate D2E/DX2                !
 ! D11   D(4,3,5,6)             -1.152          estimate D2E/DX2                !
 ! D12   D(4,3,5,45)           178.0447         estimate D2E/DX2                !
 ! D13   D(3,5,45,27)           76.1128         estimate D2E/DX2                !
 ! D14   D(3,5,45,46)         -161.4503         estimate D2E/DX2                !
 ! D15   D(3,5,45,47)          -44.1084         estimate D2E/DX2                !
 ! D16   D(6,5,45,27)         -104.6928         estimate D2E/DX2                !
 ! D17   D(6,5,45,46)           17.7441         estimate D2E/DX2                !
 ! D18   D(6,5,45,47)          135.086          estimate D2E/DX2                !
 ! D19   D(1,7,8,10)           178.0896         estimate D2E/DX2                !
 ! D20   D(1,7,8,11)            -1.5891         estimate D2E/DX2                !
 ! D21   D(9,7,8,10)            -0.5416         estimate D2E/DX2                !
 ! D22   D(9,7,8,11)           179.7797         estimate D2E/DX2                !
 ! D23   D(1,7,9,12)          -178.0675         estimate D2E/DX2                !
 ! D24   D(1,7,9,50)             4.6826         estimate D2E/DX2                !
 ! D25   D(8,7,9,12)             0.3971         estimate D2E/DX2                !
 ! D26   D(8,7,9,50)          -176.8528         estimate D2E/DX2                !
 ! D27   D(7,8,10,14)            0.6348         estimate D2E/DX2                !
 ! D28   D(7,8,10,15)          179.4742         estimate D2E/DX2                !
 ! D29   D(11,8,10,14)        -179.6883         estimate D2E/DX2                !
 ! D30   D(11,8,10,15)          -0.8488         estimate D2E/DX2                !
 ! D31   D(7,9,12,14)           -0.3297         estimate D2E/DX2                !
 ! D32   D(7,9,12,18)         -174.8828         estimate D2E/DX2                !
 ! D33   D(50,9,12,14)         177.0955         estimate D2E/DX2                !
 ! D34   D(50,9,12,18)           2.5424         estimate D2E/DX2                !
 ! D35   D(7,9,50,48)         -105.8784         estimate D2E/DX2                !
 ! D36   D(7,9,50,49)           74.7588         estimate D2E/DX2                !
 ! D37   D(12,9,50,48)          76.6226         estimate D2E/DX2                !
 ! D38   D(12,9,50,49)        -102.7402         estimate D2E/DX2                !
 ! D39   D(8,10,14,12)          -0.5349         estimate D2E/DX2                !
 ! D40   D(8,10,14,16)         178.0335         estimate D2E/DX2                !
 ! D41   D(15,10,14,12)       -179.3779         estimate D2E/DX2                !
 ! D42   D(15,10,14,16)         -0.8094         estimate D2E/DX2                !
 ! D43   D(9,12,14,10)           0.3804         estimate D2E/DX2                !
 ! D44   D(9,12,14,16)        -178.2783         estimate D2E/DX2                !
 ! D45   D(18,12,14,10)        174.7443         estimate D2E/DX2                !
 ! D46   D(18,12,14,16)         -3.9144         estimate D2E/DX2                !
 ! D47   D(9,12,18,19)        -114.6716         estimate D2E/DX2                !
 ! D48   D(14,12,18,19)         71.01           estimate D2E/DX2                !
 ! D49   D(48,13,20,19)         44.3716         estimate D2E/DX2                !
 ! D50   D(20,13,48,50)        -85.323          estimate D2E/DX2                !
 ! D51   D(10,14,16,17)          0.2281         estimate D2E/DX2                !
 ! D52   D(12,14,16,17)        178.828          estimate D2E/DX2                !
 ! D53   D(12,18,19,20)         58.0535         estimate D2E/DX2                !
 ! D54   D(12,18,19,21)        176.4714         estimate D2E/DX2                !
 ! D55   D(12,18,19,22)        -64.5323         estimate D2E/DX2                !
 ! D56   D(18,19,20,13)        -20.0154         estimate D2E/DX2                !
 ! D57   D(21,19,20,13)       -135.9013         estimate D2E/DX2                !
 ! D58   D(22,19,20,13)        102.8953         estimate D2E/DX2                !
 ! D59   D(24,23,25,26)        179.1985         estimate D2E/DX2                !
 ! D60   D(24,23,25,27)         -0.2435         estimate D2E/DX2                !
 ! D61   D(29,23,25,26)         -0.2539         estimate D2E/DX2                !
 ! D62   D(29,23,25,27)       -179.6959         estimate D2E/DX2                !
 ! D63   D(24,23,29,30)         -0.9253         estimate D2E/DX2                !
 ! D64   D(24,23,29,31)        178.6957         estimate D2E/DX2                !
 ! D65   D(25,23,29,30)        178.5473         estimate D2E/DX2                !
 ! D66   D(25,23,29,31)         -1.8316         estimate D2E/DX2                !
 ! D67   D(23,25,27,28)        179.577          estimate D2E/DX2                !
 ! D68   D(23,25,27,45)         -1.0265         estimate D2E/DX2                !
 ! D69   D(26,25,27,28)          0.0979         estimate D2E/DX2                !
 ! D70   D(26,25,27,45)        179.4944         estimate D2E/DX2                !
 ! D71   D(25,27,45,5)          78.382          estimate D2E/DX2                !
 ! D72   D(25,27,45,46)        -42.0528         estimate D2E/DX2                !
 ! D73   D(25,27,45,47)       -159.4919         estimate D2E/DX2                !
 ! D74   D(28,27,45,5)        -102.2163         estimate D2E/DX2                !
 ! D75   D(28,27,45,46)        137.3489         estimate D2E/DX2                !
 ! D76   D(28,27,45,47)         19.9098         estimate D2E/DX2                !
 ! D77   D(23,29,30,32)       -179.8982         estimate D2E/DX2                !
 ! D78   D(23,29,30,33)         -0.3673         estimate D2E/DX2                !
 ! D79   D(31,29,30,32)          0.46           estimate D2E/DX2                !
 ! D80   D(31,29,30,33)        179.9909         estimate D2E/DX2                !
 ! D81   D(23,29,31,34)       -179.8668         estimate D2E/DX2                !
 ! D82   D(23,29,31,35)          0.4668         estimate D2E/DX2                !
 ! D83   D(30,29,31,34)         -0.2427         estimate D2E/DX2                !
 ! D84   D(30,29,31,35)       -179.9091         estimate D2E/DX2                !
 ! D85   D(29,30,32,36)         -0.0024         estimate D2E/DX2                !
 ! D86   D(29,30,32,37)        179.2694         estimate D2E/DX2                !
 ! D87   D(33,30,32,36)       -179.5346         estimate D2E/DX2                !
 ! D88   D(33,30,32,37)         -0.2628         estimate D2E/DX2                !
 ! D89   D(29,31,34,36)         -0.4245         estimate D2E/DX2                !
 ! D90   D(29,31,34,40)       -176.8278         estimate D2E/DX2                !
 ! D91   D(35,31,34,36)        179.2534         estimate D2E/DX2                !
 ! D92   D(35,31,34,40)          2.8501         estimate D2E/DX2                !
 ! D93   D(30,32,36,34)         -0.6751         estimate D2E/DX2                !
 ! D94   D(30,32,36,38)        178.7687         estimate D2E/DX2                !
 ! D95   D(37,32,36,34)       -179.9512         estimate D2E/DX2                !
 ! D96   D(37,32,36,38)         -0.5074         estimate D2E/DX2                !
 ! D97   D(31,34,36,32)          0.8835         estimate D2E/DX2                !
 ! D98   D(31,34,36,38)       -178.5892         estimate D2E/DX2                !
 ! D99   D(40,34,36,32)        177.2285         estimate D2E/DX2                !
 ! D100  D(40,34,36,38)         -2.2443         estimate D2E/DX2                !
 ! D101  D(31,34,40,41)       -110.4951         estimate D2E/DX2                !
 ! D102  D(36,34,40,41)         73.1543         estimate D2E/DX2                !
 ! D103  D(32,36,38,39)         -0.0752         estimate D2E/DX2                !
 ! D104  D(34,36,38,39)        179.3785         estimate D2E/DX2                !
 ! D105  D(34,40,41,42)         60.6255         estimate D2E/DX2                !
 ! D106  D(34,40,41,43)        179.1296         estimate D2E/DX2                !
 ! D107  D(34,40,41,44)        -61.7622         estimate D2E/DX2                !
 ! D108  D(13,48,50,9)          27.9915         estimate D2E/DX2                !
 ! D109  D(13,48,50,49)       -152.701          estimate D2E/DX2                !
 --------------------------------------------------------------------------------
                          Input orientation:                          
 ---------------------------------------------------------------------
 Center     Atomic      Atomic             Coordinates (Angstroms)
 Number     Number       Type             X           Y           Z
 ---------------------------------------------------------------------
      1          6           0        2.188062    0.854197    0.829677
      2          1           0        1.772868    1.856489    0.860952
      3          6           0        1.464411   -0.141442    1.379805
      4          1           0        1.807652   -1.168750    1.421950
      5          6           0        0.142462    0.039117    2.001851
      6          8           0       -0.443063   -0.929015    2.470754
      7          6           0        3.504271    0.816068    0.196026
      8          6           0        4.163794    2.043806    0.012394
      9          6           0        4.216408   -0.319547   -0.232686
     10          6           0        5.432368    2.130899   -0.541558
     11          1           0        3.660502    2.952997    0.321327
     12          6           0        5.487134   -0.275661   -0.795058
     13          1           0        5.636126   -2.298203    4.414602
     14          6           0        6.103461    0.981910   -0.954680
     15          1           0        5.900569    3.102098   -0.672606
     16          8           0        7.325604    0.999940   -1.537562
     17          1           0        7.649763    1.909676   -1.615484
     18          8           0        6.040130   -1.423390   -1.270478
     19          6           0        7.218946   -1.901573   -0.584577
     20          1           0        6.999128   -2.068989    0.472474
     21          1           0        7.471749   -2.847058   -1.060882
     22          1           0        8.045272   -1.199067   -0.694000
     23          6           0       -3.147141    0.530138    0.937430
     24          1           0       -2.784113    0.116767    1.873981
     25          6           0       -2.382790    1.439186    0.292005
     26          1           0       -2.698984    1.870008   -0.653775
     27          6           0       -1.084780    1.930540    0.754038
     28          8           0       -0.462183    2.753918    0.089838
     29          6           0       -4.439126    0.008008    0.514112
     30          6           0       -5.070030   -0.961459    1.310786
     31          6           0       -5.099688    0.431082   -0.656223
     32          6           0       -6.301877   -1.494358    0.952319
     33          1           0       -4.585758   -1.307204    2.218088
     34          6           0       -6.329510   -0.088063   -1.023302
     35          1           0       -4.657960    1.175707   -1.308642
     36          6           0       -6.939146   -1.072424   -0.214818
     37          1           0       -6.770236   -2.252453    1.574450
     38          8           0       -8.131872   -1.576026   -0.627053
     39          1           0       -8.445722   -2.245680   -0.001795
     40          8           0       -6.901345    0.307870   -2.204807
     41          6           0       -8.073136    1.130497   -2.081806
     42          1           0       -7.834752    2.057789   -1.550950
     43          1           0       -8.386713    1.365397   -3.098454
     44          1           0       -8.877539    0.603360   -1.565358
     45          6           0       -0.495393    1.430446    2.082307
     46          1           0       -1.269808    1.379000    2.847457
     47          1           0        0.244711    2.167202    2.395997
     48          8           0        4.030073   -2.429109    0.705785
     49          8           0        2.772961   -1.956920   -0.997972
     50          7           0        3.622518   -1.676159   -0.167289
 ---------------------------------------------------------------------
                    Distance matrix (angstroms):
                    1          2          3          4          5
     1  C    0.000000
     2  H    1.085336   0.000000
     3  C    1.348186   2.087123   0.000000
     4  H    2.141918   3.077012   1.083952   0.000000
     5  C    2.494558   2.694942   1.472104   2.137307   0.000000
     6  O    3.577121   3.906513   2.334288   2.494630   1.224741
     7  C    1.461292   2.126584   2.545424   2.884599   3.894408
     8  C    2.446761   2.543947   3.732531   4.225964   4.914044
     9  C    2.573029   3.449937   3.194579   3.043201   4.660346
    10  C    3.746435   3.928648   4.959824   5.280305   6.231178
    11  H    2.613707   2.248708   3.939384   4.651154   4.867388
    12  C    3.847106   4.591754   4.574969   4.387633   6.040472
    13  H    5.888841   6.694374   5.591495   4.988871   6.439314
    14  C    4.304718   4.776552   5.313429   5.359822   6.720375
    15  H    4.592671   4.576162   5.866212   6.275292   7.049139
    16  O    5.658569   6.108963   6.645853   6.626442   8.065243
    17  H    6.076432   6.377574   7.171988   7.268629   8.540706
    18  O    4.943327   5.788793   5.441010   5.022737   6.901416
    19  C    5.907975   6.772912   6.330207   5.817670   7.780263
    20  H    5.640830   6.547830   5.930580   5.353817   7.334641
    21  H    6.722414   7.635053   7.026052   6.408055   8.451554
    22  H    6.390962   7.148241   6.980470   6.586810   8.441274
    23  C    5.346122   5.096229   4.681146   5.260319   3.492218
    24  H    5.133896   4.981860   4.284955   4.789696   2.930396
    25  C    4.639395   4.215131   4.299145   5.063389   3.355691
    26  H    5.207276   4.721445   5.051261   5.818286   4.298642
    27  C    3.446119   2.860606   3.344110   4.291605   2.576945
    28  O    3.343666   2.528923   3.709298   4.723770   3.375135
    29  C    6.688440   6.490458   5.968543   6.421150   4.817187
    30  C    7.497197   7.414070   6.586055   6.881703   5.352457
    31  C    7.449713   7.180922   6.896419   7.388479   5.890597
    32  C    8.809644   8.742885   7.894832   8.129640   6.706905
    33  H    7.244582   7.230691   6.218221   6.444276   4.920915
    34  C    8.767578   8.542847   8.156162   8.565078   7.145219
    35  H    7.179401   6.821008   6.815134   7.399781   5.940981
    36  C    9.386627   9.253918   8.604029   8.899144   7.503221
    37  H    9.510891   9.506687   8.503156   8.647417   7.295160
    38  O   10.701826  10.587738   9.908287  10.156694   8.830879
    39  H   11.107562  11.044985  10.224841  10.407618   9.109984
    40  O    9.598119   9.329474   9.112475   9.548843   8.208741
    41  C   10.669829  10.301975  10.225722  10.732792   9.239233
    42  H   10.371731   9.907782   9.995017  10.593613   8.962889
    43  H   11.292361  10.914905  10.925659  11.435954  10.025915
    44  H   11.324603  10.994930  10.778899  11.235555   9.716161
    45  C    3.016964   2.611174   2.608673   3.534955   1.532687
    46  H    4.037786   3.664979   3.455676   4.241917   2.122462
    47  H    2.820275   2.188188   2.801812   3.810528   2.166692
    48  O    3.766756   4.846174   3.502905   2.653404   4.783873
    49  O    3.403643   4.358655   3.265285   2.721959   4.461235
    50  N    3.074786   4.118020   3.066966   2.465134   4.445011
                    6          7          8          9         10
     6  O    0.000000
     7  C    4.878642   0.000000
     8  C    6.008688   1.405714   0.000000
     9  C    5.421320   1.407322   2.376609   0.000000
    10  C    7.277210   2.447523   1.386985   2.752934   0.000000
    11  H    6.043948   2.146293   1.084146   3.365339   2.135398
    12  C    6.801444   2.471005   2.789827   1.390300   2.420494
    13  H    6.527615   5.660377   6.356117   5.246709   6.649961
    14  C    7.631659   2.847353   2.413537   2.403339   1.393273
    15  H    8.146917   3.423843   2.146065   3.838956   1.086101
    16  O    8.952076   4.200206   3.672746   3.620891   2.419801
    17  H    9.499965   4.654315   3.849669   4.320820   2.473680
    18  O    7.501535   3.687328   4.145823   2.370959   3.678814
    19  C    8.305859   4.668375   5.025568   3.412018   4.410730
    20  H    7.789664   4.540264   5.016559   3.361744   4.595873
    21  H    8.876688   5.544293   6.001252   4.203744   5.404519
    22  H    9.063136   5.047138   5.106964   3.955574   4.235467
    23  C    3.433984   6.698710   7.523075   7.504198   8.851995
    24  H    2.632548   6.545863   7.446637   7.323640   8.797847
    25  C    3.757375   5.920724   6.580388   6.849661   7.889866
    26  H    4.763023   6.349277   6.897225   7.265956   8.136310
    27  C    3.396465   4.755294   5.301924   5.842869   6.647702
    28  O    4.385559   4.415801   4.680804   5.607087   5.960919
    29  C    4.546975   7.990725   8.854741   8.693864  10.152217
    30  C    4.770262   8.827283   9.796987   9.435692  11.103793
    31  C    5.771656   8.654632   9.426560   9.355879  10.668961
    32  C    6.078730  10.102999  11.087486  10.649824  12.372012
    33  H    4.167588   8.604974   9.625436   9.190206  10.945275
    34  C    6.896803   9.950249  10.757647  10.578046  11.979051
    35  H    6.039789   8.307550   8.962259   9.063547  10.164425
    36  C    7.030786  10.620742  11.534201  11.180945  12.783677
    37  H    6.525945  10.811168  11.851197  11.300806  13.137534
    38  O    8.314614  11.907955  12.833374  12.418304  14.061906
    39  H    8.478777  12.337575  13.319151  12.809873  14.561840
    40  O    8.068467  10.691076  11.417827  11.308729  12.578168
    41  C    9.120603  11.803547  12.448384  12.512185  13.629813
    42  H    8.929287  11.539811  12.099973  12.353947  13.305664
    43  H    9.969051  12.351148  12.948083  13.034199  14.074470
    44  H    9.475166  12.508275  13.215165  13.193909  14.427578
    45  C    2.391795   4.464619   5.135054   5.533781   6.520250
    46  H    2.480392   5.489882   6.164704   6.516970   7.547843
    47  H    3.172567   4.158144   4.588682   5.372920   5.961739
    48  O    5.037295   3.326784   4.528315   2.316398   4.931122
    49  O    4.840605   3.106430   4.354430   2.313049   4.898063
    50  N    4.903717   2.521344   3.763430   1.482356   4.231941
                   11         12         13         14         15
    11  H    0.000000
    12  C    3.873904   0.000000
    13  H    6.945005   5.590477   0.000000
    14  C    3.388425   1.409548   6.309257   0.000000
    15  H    2.455205   3.405170   7.423804   2.148471   0.000000
    16  O    4.550041   2.357635   7.011444   1.354146   2.682899
    17  H    4.555651   3.182100   7.623838   1.920536   2.317448
    18  O    5.229650   1.359820   5.766164   2.426770   4.566944
    19  C    6.086874   2.384757   5.258747   3.113801   5.175190
    20  H    6.032380   2.666231   4.177402   3.485251   5.409083
    21  H    7.076492   3.259055   5.801007   4.067491   6.165373
    22  H    6.123458   2.721573   5.754120   2.931765   4.806270
    23  C    7.252161   8.843163   9.860832   9.452927   9.542969
    24  H    7.210270   8.700074   9.120704   9.366897   9.530006
    25  C    6.230077   8.127614   9.760476   8.589516   8.503516
    26  H    6.524320   8.463828  10.608321   8.852249   8.687388
    27  C    4.873435   7.103315   8.743716   7.449190   7.225162
    28  O    4.133976   6.734669   9.023130   6.880314   6.417723
    29  C    8.620563  10.016238  11.047313  10.688872  10.857762
    30  C    9.618950  10.786965  11.226857  11.565290  11.865934
    31  C    9.168239  10.611294  12.182773  11.220653  11.319905
    32  C   10.928226  11.979956  12.455902  12.793005  13.140300
    33  H    9.473533  10.564387  10.502079  11.382702  11.737168
    34  C   10.528838  11.820337  13.327864  12.479116  12.644167
    35  H    8.660969  10.261246  12.279730  10.768985  10.751654
    36  C   11.350948  12.465309  13.456282  13.224118  13.509052
    37  H   11.724646  12.639833  12.727386  13.512575  13.938069
    38  O   12.667737  13.681977  14.679836  14.467035  14.791765
    39  H   13.179200  14.093783  14.758244  14.933321  15.325299
    40  O   11.177239  12.482080  14.415144  13.082131  13.192588
    41  C   12.115066  13.693572  15.553236  14.222110  14.182295
    42  H   11.681082  13.545811  15.363171  13.992385  13.802938
    43  H   12.623422  14.159178  16.325072  14.652917  14.595455
    44  H   12.895071  14.412143  15.963253  14.998220  15.014433
    45  C    4.763473   6.854244   7.545723   7.278005   7.161864
    46  H    5.759059   7.852521   7.979328   8.305361   8.171549
    47  H    4.073003   6.605559   7.285736   6.852511   6.502237
    48  O    5.408462   3.002148   4.043743   4.323324   5.999414
    49  O    5.160966   3.199147   6.132711   4.441940   5.956632
    50  N    4.655027   2.415012   5.043340   3.720269   5.317576
                   16         17         18         19         20
    16  O    0.000000
    17  H    0.968902   0.000000
    18  O    2.756140   3.717429   0.000000
    19  C    3.055868   3.971648   1.445243   0.000000
    20  H    3.683090   4.540118   2.091496   1.092567   0.000000
    21  H    3.879171   4.792264   2.029850   1.088448   1.783239
    22  H    2.462752   3.266473   2.098390   1.090093   1.792162
    23  C   10.771476  11.180055   9.648683  10.755718  10.484198
    24  H   10.706307  11.147046   9.493522  10.496637  10.121934
    25  C    9.889043  10.223110   9.032235  10.204038  10.017996
    26  H   10.101013  10.393412   9.359429  10.611076  10.527939
    27  C    8.766528   9.050266   8.130920   9.242773   9.023585
    28  O    8.147055   8.332139   7.847321   9.007118   8.892582
    29  C   11.983412  12.421463  10.726065  11.864411  11.625373
    30  C   12.869030  13.364116  11.415427  12.469769  12.148826
    31  C   12.469493  12.870700  11.309816  12.537749  12.405872
    32  C   14.075841  14.588671  12.540774  13.613983  13.322056
    33  H   12.700723  13.219401  11.184502  12.147396  11.740403
    34  C   13.708040  14.133708  12.443962  13.676328  13.557802
    35  H   11.987039  12.333406  11.009355  12.290436  12.230622
    36  C   14.475063  14.956304  13.026864  14.187169  13.990746
    37  H   14.797141  15.343903  13.148628  14.159157  13.814608
    38  O   15.697076  16.192193  14.187422  15.354328  15.178904
    39  H   16.174899  16.701365  14.564533  15.679281  15.453140
    40  O   14.259392  14.650865  13.090149  14.383651  14.354109
    41  C   15.408908  15.749099  14.365405  15.661510  15.618392
    42  H   15.197224  15.485357  14.307677  15.595648  15.529601
    43  H   15.793887  16.114093  14.807182  16.140919  16.163868
    44  H   16.208020  16.578923  15.057607  16.319726  16.228455
    45  C    8.628835   8.958062   7.880267   8.816214   8.426473
    46  H    9.656769   9.987902   8.845675   9.726250   9.268466
    47  H    8.183791   8.425739   7.740948   8.606898   8.201670
    48  O    5.258470   6.108641   2.992894   3.480264   2.999901
    49  O    5.455340   6.254205   3.321642   4.465506   4.476076
    50  N    4.769906   5.583385   2.669413   3.627566   3.459061
                   21         22         23         24         25
    21  H    0.000000
    22  H    1.783088   0.000000
    23  C   11.320756  11.442107   0.000000
    24  H   11.071602  11.207208   1.086183   0.000000
    25  C   10.831165  10.801715   1.351731   2.100595   0.000000
    26  H   11.218745  11.174071   2.127916   3.077442   1.086317
    27  C    9.966623   9.759565   2.499618   2.726128   1.462782
    28  O    9.779692   9.413676   3.587842   3.940696   2.336262
    29  C   12.349127  12.600665   1.456380   2.144794   2.515178
    30  C   12.902578  13.269769   2.462064   2.589436   3.744633
    31  C   12.998115  13.245708   2.522297   3.444215   3.049090
    32  C   13.985548  14.444316   3.748489   3.977418   4.939732
    33  H   12.589927  12.962826   2.661865   2.322074   4.013169
    34  C   14.074382  14.421412   3.788683   4.583236   4.431605
    35  H   12.781778  12.937907   2.782835   3.842102   2.794261
    36  C   14.544382  14.992612   4.274948   4.800163   5.227374
    37  H   14.495953  15.025137   4.612529   4.646730   5.875589
    38  O   15.661313  16.181674   5.633034   6.141600   6.556533
    39  H   15.963997  16.538664   6.054937   6.415100   7.100965
    40  O   14.759674  15.098171   4.900725   5.798676   5.285007
    41  C   16.078143  16.344905   5.808756   6.682041   6.173355
    42  H   16.080630  16.233195   5.522631   6.403646   5.788181
    43  H   16.534428  16.803809   6.666268   7.594296   6.895488
    44  H   16.717030  17.040820   6.253541   7.013963   6.806627
    45  C    9.573506   9.357626   3.025404   2.647147   2.601447
    46  H   10.466589  10.293641   2.809475   2.198637   2.787954
    47  H    9.451078   9.040387   4.038819   3.694666   3.443915
    48  O    3.891134   4.426536   7.766801   7.367448   7.500649
    49  O    4.782773   5.335167   6.706627   6.590095   6.307087
    50  N    4.121419   4.479486   7.205306   6.958899   6.780859
                   26         27         28         29         30
    26  H    0.000000
    27  C    2.142721   0.000000
    28  O    2.517446   1.227493   0.000000
    29  C    2.803408   3.873671   4.851402   0.000000
    30  C    4.183128   4.955385   6.043757   1.404491   0.000000
    31  C    2.798909   4.511840   5.240098   1.408907   2.410223
    32  C    5.184529   6.243985   7.272809   2.432894   1.389219
    33  H    4.679977   4.988314   6.166525   2.157503   1.085014
    34  C    4.141414   5.894140   6.613733   2.438529   2.792325
    35  H    2.179104   4.194286   4.695854   2.175739   3.405684
    36  C    5.179726   6.650570   7.528928   2.819357   2.415238
    37  H    6.207637   7.105977   8.188977   3.415856   2.151019
    38  O    6.433672   7.991553   8.836655   4.177056   3.675294
    39  H    7.098518   8.496797   9.420258   4.625806   3.842836
    40  O    4.744030   6.724601   7.260259   3.680348   4.162248
    41  C    5.609604   7.584141   8.079488   4.604867   4.990452
    42  H    5.216924   7.133812   7.584955   4.471729   4.994906
    43  H    6.211389   8.275223   8.653980   5.520560   5.987992
    44  H    6.372592   8.238210   8.842103   4.937424   5.021752
    45  C    3.540505   1.536805   2.392199   4.476114   5.219555
    46  H    3.813431   2.172748   3.185454   4.167577   4.720254
    47  H    4.249090   2.125931   2.482398   5.490168   6.262003
    48  O    8.100063   6.720907   6.886474   8.814965   9.237527
    49  O    6.686256   5.750135   5.817343   7.626371   8.236128
    50  N    7.264527   6.001315   6.031292   8.263826   8.846236
                   31         32         33         34         35
    31  C    0.000000
    32  C    2.782083   0.000000
    33  H    3.398150   2.140622   0.000000
    34  C    1.384457   2.425182   3.877317   0.000000
    35  H    1.084085   3.865703   4.313685   2.114855   0.000000
    36  C    2.416397   1.395116   3.393021   1.412186   3.384428
    37  H    3.868849   1.086791   2.465707   3.409859   4.952394
    38  O    3.636409   2.418670   4.554340   2.370560   4.483822
    39  H    4.334659   2.463917   4.550598   3.190163   5.268859
    40  O    2.378920   3.684404   5.247133   1.371026   2.566911
    41  C    3.370884   4.385561   6.049238   2.376037   3.501893
    42  H    3.305644   4.608017   6.007062   2.673733   3.305872
    43  H    4.200235   5.378988   7.060855   3.263570   4.140412
    44  H    3.889520   4.168112   6.031924   2.695244   4.265950
    45  C    5.449570   6.598986   4.923845   6.781416   5.374979
    46  H    5.276581   6.096676   4.313621   6.537250   5.366010
    47  H    6.394745   7.638655   5.952863   7.745851   6.224436
    48  O    9.663762  10.377078   8.819199  10.760632   9.619487
    49  O    8.233951   9.293561   8.057041   9.292375   8.070220
    50  N    8.986457   9.989004   8.555813  10.114231   8.831882
                   36         37         38         39         40
    36  C    0.000000
    37  H    2.149995   0.000000
    38  O    1.358730   2.675485   0.000000
    39  H    1.921374   2.300402   0.968444   0.000000
    40  O    2.422126   4.566752   2.748194   3.709309   0.000000
    41  C    3.102328   5.148797   3.073277   3.982944   1.436989
    42  H    3.519318   5.429504   3.761181   4.614436   2.088300
    43  H    4.043981   6.126816   3.850291   4.757379   2.030588
    44  H    2.896477   4.738649   2.487200   3.278448   2.097988
    45  C    7.284442   7.293512   8.642645   9.003617   7.789464
    46  H    6.894085   6.712876   8.239680   8.529378   7.641133
    47  H    8.301767   8.331733   9.660110  10.037259   8.700037
    48  O   11.091072  10.836626  12.264466  12.497191  11.638664
    49  O    9.783694   9.888240  10.917785  11.266525  10.008892
    50  N   10.579012  10.553440  11.763804  12.082804  10.901355
                   41         42         43         44         45
    41  C    0.000000
    42  H    1.094763   0.000000
    43  H    1.089533   1.782929   0.000000
    44  H    1.091631   1.789687   1.781009   0.000000
    45  C    8.651705   8.213422   9.440204   9.178775   0.000000
    46  H    8.405038   7.931282   9.273855   8.829051   1.089871
    47  H    9.503265   8.992668  10.263205  10.067442   1.090397
    48  O   12.920106  12.884067  13.529490  13.452153   6.104983
    49  O   11.328930  11.355493  11.831658  11.941989   5.625345
    50  N   12.179122  12.129547  12.730453  12.782888   5.627510
                   46         47         48         49         50
    46  H    0.000000
    47  H    1.766026   0.000000
    48  O    6.868565   6.189657   0.000000
    49  O    6.500743   5.909268   2.169351   0.000000
    50  N    6.508267   5.722887   1.222822   1.220905   0.000000
 Stoichiometry    C21H20NO8(2)
 Framework group  C1[X(C21H20NO8)]
 Deg. of freedom   144
 Full point group                 C1      NOp   1
 Largest Abelian subgroup         C1      NOp   1
 Largest concise Abelian subgroup C1      NOp   1
                         Standard orientation:                         
 ---------------------------------------------------------------------
 Center     Atomic      Atomic             Coordinates (Angstroms)
 Number     Number       Type             X           Y           Z
 ---------------------------------------------------------------------
      1          6           0        2.206932    0.652808    0.971160
      2          1           0        1.789432    1.626334    1.207582
      3          6           0        1.485375   -0.436262    1.304160
      4          1           0        1.830954   -1.449527    1.134385
      5          6           0        0.162804   -0.390378    1.948977
      6          8           0       -0.420663   -1.435524    2.208258
      7          6           0        3.523442    0.748682    0.344276
      8          6           0        4.180214    1.989369    0.417623
      9          6           0        4.238325   -0.272925   -0.308268
     10          6           0        5.448774    2.191291   -0.105550
     11          1           0        3.674734    2.814485    0.906546
     12          6           0        5.509139   -0.111550   -0.848565
     13          1           0        5.660980   -3.162045    3.833833
     14          6           0        6.122639    1.153300   -0.745620
     15          1           0        5.914794    3.169694   -0.033663
     16          8           0        7.344937    1.293485   -1.311347
     17          1           0        7.667037    2.200499   -1.200227
     18          8           0        6.064926   -1.135751   -1.549438
     19          6           0        7.244599   -1.742226   -0.975603
     20          1           0        7.024803   -2.123954    0.024235
     21          1           0        7.499731   -2.568978   -1.635988
     22          1           0        8.069351   -1.030441   -0.937531
     23          6           0       -3.127552    0.301931    1.005655
     24          1           0       -2.763898   -0.294442    1.837453
     25          6           0       -2.365064    1.325953    0.561619
     26          1           0       -2.681920    1.941403   -0.275583
     27          6           0       -1.068342    1.714587    1.115881
     28          8           0       -0.447405    2.658323    0.635736
     29          6           0       -4.418192   -0.124771    0.482955
     30          6           0       -5.047146   -1.238738    1.062688
     31          6           0       -5.079321    0.528538   -0.575872
     32          6           0       -6.277647   -1.689187    0.601285
     33          1           0       -4.562394   -1.762652    1.879868
     34          6           0       -6.307824    0.093324   -1.042872
     35          1           0       -4.639076    1.392389   -1.060832
     36          6           0       -6.915480   -1.037602   -0.454628
     37          1           0       -6.744480   -2.560049    1.053812
     38          8           0       -8.106908   -1.448236   -0.962591
     39          1           0       -8.419438   -2.232855   -0.488689
     40          8           0       -6.880160    0.722561   -2.118141
     41          6           0       -8.053874    1.499755   -1.829518
     42          1           0       -7.817797    2.298550   -1.119095
     43          1           0       -8.367641    1.938056   -2.776368
     44          1           0       -8.857245    0.875920   -1.433182
     45          6           0       -0.478265    0.953267    2.313367
     46          1           0       -1.252822    0.743863    3.050951
     47          1           0        0.260042    1.611356    2.772481
     48          8           0        4.056502   -2.530808    0.176095
     49          8           0        2.798894   -1.721016   -1.395129
     50          7           0        3.647522   -1.615269   -0.523775
 ---------------------------------------------------------------------
 Rotational constants (GHZ):           0.3456490           0.0460419           0.0451004
 Electric field and nuclear coordinate derivatives read from checkpoint file.
 Rotating derivatives to standard orientation.
 Full mass-weighted force constant matrix:
 Low frequencies ---  -12.0136   -8.9197   -3.3306   -0.0011   -0.0009    0.0006
 Low frequencies ---    4.8330    6.5165    8.0404
 ******    1 imaginary frequencies (negative Signs) ****** 
 Diagonal vibrational polarizability:
     1423.5767560    2179.5994106    3243.5867728
 Harmonic frequencies (cm**-1), IR intensities (KM/Mole), Raman scattering
 activities (A**4/AMU), depolarization ratios for plane and unpolarized
 incident light, reduced masses (AMU), force constants (mDyne/A),
 and normal coordinates:
                      1                      2                      3
                      A                      A                      A
 Frequencies --     -6.2479                 3.5538                 7.3703
 Red. masses --      6.4234                 4.8353                 1.1015
 Frc consts  --      0.0001                 0.0000                 0.0000
 IR Inten    --      4.5197                 1.3190                 0.3218
  Atom  AN      X      Y      Z        X      Y      Z        X      Y      Z
     1   6    -0.05  -0.02  -0.02     0.00  -0.04  -0.04     0.00   0.00   0.01
     2   1    -0.07  -0.02  -0.04    -0.00  -0.05  -0.03     0.00   0.00   0.01
     3   6    -0.03  -0.02   0.04    -0.00  -0.05  -0.07    -0.00   0.00   0.01
     4   1    -0.02  -0.02   0.06    -0.00  -0.05  -0.09    -0.00   0.00   0.01
     5   6    -0.01  -0.01   0.08    -0.01  -0.06  -0.08    -0.00   0.00   0.01
     6   8    -0.00  -0.01   0.09    -0.01  -0.07  -0.12    -0.00   0.00   0.01
     7   6    -0.07  -0.01  -0.05     0.01  -0.02  -0.03     0.00  -0.00   0.01
     8   6    -0.10   0.01  -0.12    -0.04   0.00  -0.06     0.01  -0.01   0.02
     9   6    -0.05  -0.02  -0.01     0.05  -0.02   0.01    -0.01  -0.00   0.00
    10   6    -0.12   0.02  -0.16    -0.04   0.04  -0.06     0.01  -0.01   0.02
    11   1    -0.12   0.02  -0.15    -0.07   0.00  -0.09     0.02  -0.01   0.03
    12   6    -0.06  -0.01  -0.04     0.05   0.01   0.02    -0.01  -0.01   0.00
    13   1     0.08   0.34   0.16     0.29   0.55   0.19     0.66   0.73  -0.08
    14   6    -0.10   0.01  -0.12     0.00   0.04  -0.02     0.01  -0.01   0.01
    15   1    -0.15   0.04  -0.22    -0.08   0.06  -0.09     0.02  -0.02   0.03
    16   8    -0.12   0.02  -0.15    -0.00   0.07  -0.02     0.01  -0.02   0.02
    17   1    -0.14   0.04  -0.20    -0.04   0.09  -0.05     0.01  -0.02   0.02
    18   8    -0.04  -0.03   0.00     0.10   0.01   0.07    -0.01  -0.00  -0.01
    19   6    -0.02   0.03   0.02     0.12   0.08   0.10    -0.02  -0.02  -0.02
    20   1     0.00   0.07   0.04     0.12   0.10   0.11    -0.02  -0.02  -0.02
    21   1     0.01   0.01   0.05     0.16   0.07   0.13    -0.03  -0.01  -0.03
    22   1    -0.04   0.06  -0.02     0.08   0.11   0.09    -0.01  -0.03  -0.01
    23   6     0.03   0.00   0.05    -0.03  -0.03  -0.03     0.00   0.00   0.00
    24   1     0.03  -0.03   0.03    -0.02  -0.05  -0.05    -0.00   0.00   0.00
    25   6     0.02   0.03   0.10    -0.03  -0.03  -0.02     0.00   0.00  -0.00
    26   1     0.03   0.06   0.12    -0.03  -0.01  -0.01     0.00  -0.00  -0.00
    27   6     0.01   0.03   0.13    -0.01  -0.05  -0.04    -0.00   0.00   0.00
    28   8    -0.00   0.06   0.18    -0.01  -0.05  -0.03     0.00   0.00  -0.00
    29   6     0.05   0.00   0.00    -0.04  -0.00  -0.01     0.00  -0.00  -0.00
    30   6     0.07  -0.05  -0.07    -0.05  -0.00  -0.02     0.00   0.00   0.00
    31   6     0.06   0.04   0.03    -0.05   0.02   0.01     0.00  -0.00  -0.00
    32   6     0.09  -0.05  -0.13    -0.06   0.02  -0.00     0.00  -0.00  -0.00
    33   1     0.06  -0.08  -0.09    -0.04  -0.02  -0.04     0.00   0.00   0.00
    34   6     0.08   0.04  -0.02    -0.07   0.05   0.03     0.00  -0.00  -0.00
    35   1     0.04   0.08   0.09    -0.05   0.02   0.01     0.00  -0.00  -0.00
    36   6     0.09  -0.01  -0.10    -0.08   0.05   0.02     0.00  -0.00  -0.00
    37   1     0.10  -0.09  -0.19    -0.07   0.02  -0.00     0.00  -0.00   0.00
    38   8     0.12  -0.01  -0.15    -0.09   0.08   0.04     0.00  -0.01  -0.00
    39   1     0.13  -0.05  -0.21    -0.10   0.07   0.04     0.00  -0.01  -0.00
    40   8     0.09   0.09  -0.00    -0.08   0.07   0.05     0.00  -0.01  -0.01
    41   6     0.06   0.04   0.02    -0.06   0.09   0.08     0.00  -0.01  -0.01
    42   1     0.01  -0.00   0.08    -0.04   0.07   0.09     0.00  -0.01  -0.01
    43   1     0.07   0.09   0.04    -0.07   0.11   0.09     0.00  -0.01  -0.01
    44   1     0.06  -0.01  -0.05    -0.07   0.09   0.09     0.00  -0.01  -0.01
    45   6     0.01  -0.01   0.11    -0.01  -0.07  -0.05    -0.00   0.00   0.00
    46   1     0.01  -0.02   0.11    -0.00  -0.09  -0.05    -0.00   0.01   0.00
    47   1     0.02  -0.04   0.12    -0.00  -0.08  -0.04    -0.00   0.01   0.00
    48   8     0.02  -0.00   0.11     0.12   0.00   0.12    -0.02  -0.00  -0.02
    49   8    -0.02  -0.12   0.09     0.15  -0.12   0.03    -0.02   0.02  -0.01
    50   7    -0.01  -0.05   0.07     0.11  -0.05   0.06    -0.02   0.01  -0.01
                      4                      5                      6
                      A                      A                      A
 Frequencies --     12.2509                18.8005                32.9278
 Red. masses --      1.0402                 4.6609                 7.0998
 Frc consts  --      0.0001                 0.0010                 0.0045
 IR Inten    --      0.1625                 2.8885                 1.4103
  Atom  AN      X      Y      Z        X      Y      Z        X      Y      Z
     1   6    -0.00  -0.00   0.00     0.01   0.04  -0.01     0.05   0.01   0.13
     2   1    -0.00  -0.00  -0.00     0.02   0.04  -0.03     0.03   0.01   0.10
     3   6    -0.00  -0.00   0.00    -0.00   0.05  -0.00     0.07   0.00   0.17
     4   1    -0.00  -0.00   0.00    -0.01   0.04   0.01     0.10   0.00   0.22
     5   6    -0.00   0.00   0.00    -0.01   0.07  -0.02     0.05   0.00   0.14
     6   8    -0.00   0.00   0.00    -0.01   0.07  -0.00     0.09   0.00   0.22
     7   6    -0.00   0.00  -0.00     0.02   0.01  -0.00     0.03   0.01   0.10
     8   6    -0.01   0.00  -0.01     0.04   0.00   0.00     0.03   0.01   0.08
     9   6    -0.00  -0.00   0.00     0.01  -0.00   0.01     0.00   0.02   0.06
    10   6    -0.01   0.01  -0.01     0.05  -0.02   0.01     0.00   0.02   0.01
    11   1    -0.01   0.00  -0.01     0.05   0.01  -0.01     0.05   0.01   0.11
    12   6    -0.00   0.00   0.00     0.02  -0.03   0.02    -0.03   0.03  -0.02
    13   1     0.69  -0.60  -0.40     0.05  -0.12  -0.03    -0.01  -0.00   0.11
    14   6    -0.01   0.00  -0.01     0.04  -0.04   0.02    -0.03   0.03  -0.04
    15   1    -0.01   0.01  -0.02     0.07  -0.03   0.01     0.00   0.02  -0.01
    16   8    -0.01   0.01  -0.01     0.04  -0.06   0.03    -0.07   0.04  -0.11
    17   1    -0.01   0.01  -0.01     0.06  -0.07   0.03    -0.07   0.04  -0.12
    18   8     0.00  -0.00   0.01     0.00  -0.04   0.03    -0.08   0.04  -0.07
    19   6     0.01   0.01   0.01    -0.01  -0.06   0.05    -0.02   0.04  -0.17
    20   1     0.01   0.01   0.01    -0.03  -0.05   0.05     0.07   0.04  -0.15
    21   1     0.01   0.01   0.01    -0.02  -0.07   0.06    -0.08   0.05  -0.20
    22   1     0.00   0.01   0.01     0.00  -0.07   0.05    -0.02   0.05  -0.24
    23   6    -0.00   0.00   0.00     0.02   0.01  -0.06     0.02  -0.10  -0.08
    24   1    -0.00   0.00   0.00     0.05  -0.01  -0.09     0.00  -0.08  -0.06
    25   6    -0.00   0.00  -0.00    -0.01   0.04  -0.05     0.05  -0.13  -0.12
    26   1    -0.00   0.00  -0.00    -0.04   0.05  -0.03     0.07  -0.17  -0.15
    27   6    -0.00   0.00  -0.00    -0.01   0.05  -0.06     0.03  -0.11  -0.11
    28   8    -0.00   0.00  -0.00    -0.02   0.05  -0.08     0.06  -0.16  -0.18
    29   6    -0.00   0.00  -0.00     0.02  -0.01  -0.05     0.01  -0.08  -0.08
    30   6    -0.00   0.00   0.00     0.10  -0.10  -0.13    -0.01  -0.06  -0.08
    31   6    -0.00   0.00  -0.00    -0.05   0.05   0.03     0.01  -0.05  -0.06
    32   6    -0.00   0.01   0.00     0.11  -0.12  -0.13    -0.04  -0.01  -0.06
    33   1    -0.01   0.01   0.00     0.15  -0.14  -0.19    -0.02  -0.09  -0.10
    34   6    -0.00   0.00  -0.00    -0.04   0.02   0.04    -0.02   0.01  -0.03
    35   1     0.00  -0.00  -0.00    -0.11   0.12   0.10     0.03  -0.05  -0.06
    36   6    -0.00   0.00  -0.00     0.04  -0.06  -0.05    -0.05   0.03  -0.03
    37   1    -0.01   0.01   0.00     0.17  -0.19  -0.19    -0.06  -0.00  -0.06
    38   8    -0.00   0.00  -0.00     0.04  -0.08  -0.04    -0.08   0.09   0.00
    39   1    -0.00   0.00  -0.00     0.10  -0.14  -0.10    -0.11   0.10   0.01
    40   8     0.00  -0.00  -0.01    -0.12   0.10   0.12    -0.03   0.05  -0.00
    41   6     0.00   0.00  -0.01    -0.15   0.01   0.24     0.05   0.14   0.06
    42   1     0.00   0.00  -0.01    -0.17  -0.06   0.33     0.15   0.12   0.05
    43   1     0.00  -0.00  -0.01    -0.20   0.10   0.30     0.02   0.15   0.08
    44   1     0.00   0.00  -0.01    -0.11  -0.08   0.20     0.03   0.19   0.12
    45   6    -0.00   0.00   0.00    -0.01   0.07  -0.05    -0.02   0.01  -0.01
    46   1    -0.00   0.00   0.00    -0.01   0.09  -0.04    -0.06   0.04  -0.04
    47   1    -0.00   0.00   0.00    -0.01   0.09  -0.06    -0.07   0.07  -0.02
    48   8     0.01   0.00   0.02    -0.03   0.00   0.02     0.04   0.01   0.05
    49   8     0.01  -0.01   0.01    -0.01   0.02   0.01    -0.06   0.02   0.14
    50   7     0.00  -0.00   0.01    -0.01   0.01   0.01    -0.01   0.02   0.09
                      7                      8                      9
                      A                      A                      A
 Frequencies --     37.4415                39.4245                51.6251
 Red. masses --      1.1227                 3.4270                 4.0601
 Frc consts  --      0.0009                 0.0031                 0.0064
 IR Inten    --      0.4046                 2.2422                 4.9400
  Atom  AN      X      Y      Z        X      Y      Z        X      Y      Z
     1   6     0.01  -0.00   0.02    -0.05   0.03  -0.11    -0.02  -0.01   0.01
     2   1     0.03  -0.00   0.05    -0.11   0.03  -0.22     0.01  -0.01   0.08
     3   6    -0.01  -0.00  -0.01     0.03   0.02   0.02    -0.06  -0.01  -0.05
     4   1    -0.02  -0.00  -0.03     0.11   0.02   0.13    -0.11  -0.01  -0.12
     5   6    -0.01   0.00  -0.01     0.04  -0.01   0.04    -0.06   0.01  -0.05
     6   8    -0.02   0.00  -0.03     0.09  -0.02   0.11    -0.09   0.02  -0.08
     7   6     0.01  -0.00   0.02    -0.04   0.03  -0.10    -0.02  -0.01   0.02
     8   6     0.01  -0.01   0.02    -0.05   0.04  -0.11    -0.02  -0.01   0.03
     9   6     0.00  -0.00   0.00    -0.02   0.02  -0.05    -0.02  -0.00   0.01
    10   6     0.01  -0.01   0.01    -0.03   0.02  -0.05    -0.02  -0.01   0.03
    11   1     0.02  -0.01   0.04    -0.07   0.05  -0.15    -0.02  -0.02   0.04
    12   6    -0.00   0.00  -0.01     0.01   0.00   0.01    -0.03  -0.00   0.01
    13   1     0.32  -0.24   0.90     0.25  -0.17   0.55    -0.01   0.01  -0.02
    14   6     0.00  -0.00  -0.00     0.00   0.00   0.01    -0.03  -0.00   0.01
    15   1     0.01  -0.01   0.02    -0.03   0.02  -0.06    -0.02  -0.01   0.04
    16   8    -0.00   0.00  -0.01     0.04  -0.01   0.07    -0.03   0.00   0.01
    17   1    -0.00  -0.00  -0.01     0.03  -0.01   0.07    -0.03   0.00   0.02
    18   8    -0.02   0.00  -0.02     0.05  -0.01   0.06    -0.03  -0.00   0.00
    19   6    -0.00   0.00  -0.05    -0.02  -0.03   0.19    -0.01   0.01  -0.02
    20   1     0.02   0.01  -0.04    -0.15  -0.06   0.15     0.02   0.03  -0.00
    21   1    -0.02   0.00  -0.05     0.06  -0.01   0.20    -0.03  -0.00  -0.01
    22   1     0.00   0.00  -0.08    -0.03  -0.04   0.32    -0.01   0.01  -0.06
    23   6    -0.00   0.01   0.00     0.02  -0.06  -0.01     0.07  -0.04  -0.09
    24   1    -0.00   0.01   0.00     0.01  -0.06  -0.01     0.10  -0.05  -0.11
    25   6    -0.00   0.01   0.00     0.01  -0.06  -0.01     0.03   0.01  -0.05
    26   1    -0.00   0.01   0.00     0.01  -0.06  -0.01     0.01   0.03  -0.03
    27   6    -0.00   0.01   0.00     0.00  -0.03   0.00    -0.01   0.06   0.00
    28   8     0.00   0.01   0.00    -0.01  -0.02   0.00    -0.04   0.12   0.07
    29   6    -0.00   0.01   0.00     0.01  -0.05  -0.01     0.08  -0.07  -0.09
    30   6     0.00   0.01   0.00    -0.01  -0.04  -0.01     0.09  -0.05  -0.05
    31   6    -0.00   0.01   0.00     0.02  -0.04  -0.01     0.07  -0.09  -0.09
    32   6     0.00   0.00   0.00    -0.02  -0.01  -0.00     0.05  -0.02   0.02
    33   1     0.00   0.01   0.00    -0.01  -0.05  -0.02     0.11  -0.04  -0.05
    34   6    -0.00   0.00  -0.00     0.01  -0.01  -0.00     0.04  -0.07  -0.03
    35   1    -0.01   0.01   0.00     0.04  -0.05  -0.02     0.07  -0.11  -0.13
    36   6     0.00  -0.00  -0.00    -0.02   0.01   0.01     0.02  -0.02   0.04
    37   1     0.01  -0.00   0.00    -0.04   0.00   0.00     0.05   0.00   0.07
    38   8     0.01  -0.01  -0.01    -0.04   0.05   0.02    -0.04   0.03   0.14
    39   1     0.01  -0.01  -0.01    -0.06   0.06   0.03    -0.05   0.07   0.18
    40   8    -0.00  -0.00  -0.00     0.01   0.01   0.00    -0.01  -0.09  -0.02
    41   6    -0.01  -0.02  -0.01     0.06   0.08   0.03     0.18   0.15   0.10
    42   1    -0.03  -0.02  -0.00     0.13   0.08   0.00     0.46   0.23  -0.09
    43   1    -0.01  -0.02  -0.01     0.05   0.07   0.03     0.04   0.03   0.09
    44   1    -0.01  -0.03  -0.02     0.05   0.13   0.08     0.17   0.34   0.39
    45   6    -0.00   0.00  -0.00     0.00  -0.02   0.01    -0.01   0.03  -0.02
    46   1     0.00   0.00   0.00    -0.00  -0.03   0.00    -0.00   0.05  -0.01
    47   1     0.00  -0.00  -0.00    -0.02   0.00   0.02     0.02   0.00  -0.02
    48   8    -0.01   0.00   0.01    -0.02  -0.00  -0.12    -0.05   0.01   0.06
    49   8     0.01  -0.00  -0.00    -0.06   0.06  -0.05     0.03  -0.03  -0.03
    50   7     0.00  -0.00   0.00    -0.03   0.03  -0.07    -0.02  -0.01   0.01
                     10                     11                     12
                      A                      A                      A
 Frequencies --     55.6624                69.3513                70.1417
 Red. masses --      7.0571                 6.0778                 4.8919
 Frc consts  --      0.0129                 0.0172                 0.0142
 IR Inten    --      0.3605                 1.5883                 3.0795
  Atom  AN      X      Y      Z        X      Y      Z        X      Y      Z
     1   6    -0.09  -0.15  -0.02     0.02   0.01   0.02     0.01   0.00  -0.01
     2   1    -0.10  -0.16   0.00     0.00   0.01  -0.02     0.00   0.01  -0.05
     3   6    -0.10  -0.14  -0.01     0.03   0.01   0.05     0.00   0.01   0.01
     4   1    -0.14  -0.16  -0.02     0.06   0.01   0.08     0.00   0.01   0.04
     5   6    -0.07  -0.03   0.04     0.00  -0.01  -0.02    -0.02   0.03  -0.03
     6   8    -0.13   0.03   0.15    -0.01  -0.02  -0.09    -0.05   0.04  -0.09
     7   6    -0.10  -0.10  -0.01     0.02  -0.00   0.02     0.02  -0.01  -0.00
     8   6    -0.15  -0.07   0.03     0.02   0.00   0.00     0.01  -0.01  -0.01
     9   6    -0.04  -0.06  -0.02     0.02  -0.01   0.03     0.03  -0.02   0.01
    10   6    -0.15  -0.00   0.07     0.01   0.00  -0.01     0.01  -0.00  -0.00
    11   1    -0.20  -0.11   0.04     0.02   0.00   0.00     0.01  -0.01  -0.01
    12   6    -0.03   0.01   0.02     0.01  -0.00   0.01     0.02  -0.01   0.00
    13   1     0.02   0.02   0.08     0.01  -0.00   0.01     0.01  -0.00   0.02
    14   6    -0.09   0.04   0.07     0.01  -0.00  -0.01     0.02  -0.00  -0.00
    15   1    -0.20   0.02   0.11     0.01   0.01  -0.03     0.01  -0.00  -0.01
    16   8    -0.08   0.11   0.11    -0.00  -0.00  -0.04     0.01   0.00  -0.01
    17   1    -0.12   0.12   0.14    -0.01  -0.00  -0.06     0.01   0.00  -0.01
    18   8     0.04   0.07  -0.00     0.01   0.01  -0.02     0.03   0.02  -0.02
    19   6     0.04   0.10   0.02    -0.04  -0.05   0.02     0.00  -0.02  -0.01
    20   1     0.01   0.02  -0.02    -0.14  -0.18  -0.05    -0.05  -0.12  -0.06
    21   1     0.13   0.16  -0.02     0.04   0.04  -0.06     0.06   0.04  -0.08
    22   1     0.00   0.14   0.11    -0.05  -0.05   0.20    -0.01  -0.02   0.11
    23   6     0.06   0.09  -0.04     0.07  -0.04  -0.12    -0.08   0.05   0.09
    24   1     0.06   0.12  -0.01     0.08  -0.09  -0.16    -0.08   0.07   0.10
    25   6     0.08   0.05  -0.09     0.04   0.01  -0.04    -0.08   0.04   0.05
    26   1     0.10   0.02  -0.12     0.02   0.07   0.00    -0.08   0.01   0.04
    27   6     0.10   0.02  -0.10    -0.00   0.04   0.04    -0.05   0.02  -0.01
    28   8     0.15  -0.04  -0.15    -0.05   0.13   0.16    -0.04  -0.01  -0.06
    29   6     0.06   0.08  -0.01     0.06  -0.04  -0.11    -0.07   0.04   0.08
    30   6     0.09   0.08   0.02     0.06  -0.02  -0.08    -0.06   0.02   0.05
    31   6     0.03   0.06  -0.01     0.03  -0.03  -0.09    -0.05   0.01   0.05
    32   6     0.10   0.04   0.04     0.01   0.03   0.00    -0.02  -0.04  -0.01
    33   1     0.11   0.10   0.02     0.08  -0.03  -0.10    -0.07   0.03   0.07
    34   6     0.03   0.03   0.02    -0.01   0.01  -0.02    -0.01  -0.04  -0.00
    35   1     0.01   0.06  -0.02     0.04  -0.05  -0.12    -0.06   0.03   0.07
    36   6     0.07   0.02   0.04    -0.03   0.05   0.04     0.01  -0.06  -0.04
    37   1     0.12   0.04   0.05     0.00   0.06   0.04    -0.00  -0.06  -0.03
    38   8     0.08  -0.03   0.05    -0.08   0.09   0.13     0.05  -0.10  -0.10
    39   1     0.11  -0.03   0.06    -0.08   0.10   0.16     0.05  -0.11  -0.11
    40   8     0.00   0.01   0.03    -0.02   0.02  -0.01    -0.02  -0.07  -0.02
    41   6    -0.05  -0.06   0.03    -0.15  -0.15  -0.07     0.15   0.16   0.07
    42   1    -0.10  -0.07   0.06    -0.35  -0.23   0.08     0.42   0.28  -0.16
    43   1    -0.05  -0.05   0.04    -0.05  -0.04  -0.05    -0.00  -0.00   0.04
    44   1    -0.02  -0.12  -0.00    -0.15  -0.29  -0.29     0.15   0.35   0.38
    45   6     0.04   0.05  -0.05    -0.01  -0.02   0.01    -0.01   0.03  -0.02
    46   1     0.03   0.17  -0.03    -0.02  -0.05  -0.01     0.01   0.03   0.00
    47   1     0.10   0.03  -0.11    -0.02  -0.04   0.05    -0.00   0.04  -0.04
    48   8     0.09  -0.10  -0.15     0.22  -0.06  -0.14     0.22  -0.06  -0.14
    49   8    -0.04  -0.06  -0.02    -0.17   0.03   0.22    -0.13   0.01   0.18
    50   7     0.01  -0.07  -0.06     0.02  -0.01   0.04     0.04  -0.02   0.02
                     13                     14                     15
                      A                      A                      A
 Frequencies --     76.6923                94.9883                98.4216
 Red. masses --      3.7841                 2.7918                 6.3154
 Frc consts  --      0.0131                 0.0148                 0.0360
 IR Inten    --      4.3860                 1.9878                 3.0642
  Atom  AN      X      Y      Z        X      Y      Z        X      Y      Z
     1   6     0.05  -0.01   0.11    -0.01   0.01   0.00    -0.07   0.05  -0.10
     2   1     0.08  -0.02   0.20    -0.05   0.01  -0.08    -0.19   0.04  -0.25
     3   6     0.02  -0.02   0.02     0.05  -0.01   0.07     0.06   0.00   0.02
     4   1    -0.00  -0.02  -0.06     0.10   0.00   0.14     0.18   0.02   0.14
     5   6    -0.00  -0.04  -0.04     0.01  -0.03  -0.02     0.02  -0.08  -0.06
     6   8    -0.05  -0.04  -0.15    -0.02  -0.04  -0.11     0.03  -0.10  -0.15
     7   6     0.03   0.01   0.08    -0.00   0.01   0.01    -0.07   0.08  -0.09
     8   6     0.03   0.01   0.06    -0.01   0.01  -0.02    -0.08   0.08  -0.10
     9   6    -0.01   0.02   0.03    -0.01  -0.01   0.03    -0.06   0.07  -0.04
    10   6    -0.01   0.03  -0.03    -0.01  -0.00  -0.04    -0.03   0.04   0.00
    11   1     0.05   0.01   0.09    -0.01   0.02  -0.04    -0.10   0.10  -0.15
    12   6    -0.03   0.02  -0.01     0.00  -0.03   0.05    -0.05   0.04  -0.02
    13   1     0.00   0.00   0.00     0.01  -0.00   0.01    -0.00  -0.01  -0.02
    14   6    -0.04   0.03  -0.07    -0.01  -0.02  -0.01    -0.00   0.01   0.07
    15   1    -0.02   0.04  -0.07    -0.02   0.00  -0.08    -0.00   0.02   0.04
    16   8    -0.08   0.03  -0.14    -0.02  -0.02  -0.03     0.07  -0.04   0.22
    17   1    -0.07   0.03  -0.18    -0.04  -0.01  -0.07     0.10  -0.05   0.27
    18   8    -0.00   0.02   0.01     0.00  -0.07   0.10    -0.11   0.05  -0.07
    19   6    -0.15  -0.07   0.22     0.15   0.12  -0.00    -0.16  -0.10  -0.12
    20   1    -0.42  -0.27   0.08     0.42   0.48   0.20    -0.16  -0.09  -0.12
    21   1     0.06   0.06   0.12    -0.05  -0.13   0.23    -0.28  -0.12  -0.14
    22   1    -0.17  -0.06   0.58     0.17   0.11  -0.49    -0.07  -0.20  -0.14
    23   6     0.02   0.02   0.00     0.01   0.02  -0.01     0.03   0.04  -0.02
    24   1     0.01   0.03   0.01     0.01   0.01  -0.01     0.02   0.04  -0.02
    25   6     0.03  -0.00  -0.02     0.02   0.01  -0.01     0.05   0.02  -0.03
    26   1     0.05  -0.01  -0.03     0.03   0.02  -0.01     0.08   0.03  -0.03
    27   6     0.05  -0.04  -0.03     0.03  -0.02  -0.00     0.07  -0.06  -0.02
    28   8     0.10  -0.08  -0.05     0.06  -0.04  -0.00     0.14  -0.11  -0.02
    29   6     0.02   0.02   0.01     0.01   0.02  -0.01     0.03   0.04  -0.01
    30   6     0.02   0.02   0.01     0.02   0.02   0.00     0.04   0.05   0.01
    31   6     0.01   0.02   0.01     0.00   0.01  -0.01     0.01   0.03  -0.01
    32   6     0.03   0.01   0.01     0.02   0.01   0.01     0.05   0.02   0.02
    33   1     0.03   0.03   0.02     0.02   0.03   0.00     0.05   0.06   0.02
    34   6     0.02   0.00   0.01     0.00   0.00  -0.00     0.02   0.01   0.00
    35   1     0.01   0.02   0.01    -0.00   0.01  -0.01     0.01   0.03  -0.02
    36   6     0.03  -0.00   0.01     0.01  -0.00   0.01     0.04   0.00   0.02
    37   1     0.04   0.00   0.01     0.03   0.01   0.02     0.06   0.02   0.03
    38   8     0.04  -0.02   0.00     0.02  -0.01   0.01     0.05  -0.02   0.02
    39   1     0.04  -0.02   0.00     0.02  -0.01   0.02     0.06  -0.02   0.03
    40   8     0.01  -0.00   0.01    -0.01  -0.01   0.00    -0.01  -0.01   0.01
    41   6     0.01  -0.00   0.02    -0.00  -0.00   0.01    -0.00  -0.01   0.03
    42   1     0.03   0.01   0.00     0.02   0.02  -0.02     0.03   0.02  -0.01
    43   1    -0.01  -0.02   0.02    -0.03  -0.03   0.01    -0.05  -0.05   0.03
    44   1     0.02   0.00   0.04     0.01   0.01   0.05     0.02   0.00   0.10
    45   6     0.01  -0.04  -0.01    -0.00  -0.04  -0.00    -0.00  -0.10  -0.01
    46   1     0.00  -0.04  -0.02    -0.01  -0.05  -0.02    -0.03  -0.14  -0.06
    47   1     0.02  -0.05  -0.00    -0.01  -0.05   0.02    -0.01  -0.13   0.05
    48   8    -0.07   0.01  -0.00    -0.09  -0.03  -0.05     0.03   0.12   0.16
    49   8    -0.01   0.07  -0.02    -0.11   0.10   0.04    -0.07  -0.08   0.13
    50   7    -0.03   0.04   0.00    -0.07   0.02   0.01    -0.03   0.04   0.08
                     16                     17                     18
                      A                      A                      A
 Frequencies --    102.2994               126.4083               130.3822
 Red. masses --      3.8082                 1.5885                 3.1124
 Frc consts  --      0.0235                 0.0150                 0.0312
 IR Inten    --      2.8883                 0.5747                 0.4929
  Atom  AN      X      Y      Z        X      Y      Z        X      Y      Z
     1   6    -0.02   0.00  -0.01     0.01   0.01   0.03    -0.00  -0.00  -0.01
     2   1    -0.01   0.00   0.01     0.09   0.00   0.19    -0.01  -0.00  -0.02
     3   6    -0.03   0.01  -0.03    -0.06   0.01  -0.12     0.01  -0.00  -0.00
     4   1    -0.05   0.00  -0.05    -0.14   0.01  -0.27     0.02  -0.00   0.01
     5   6    -0.03   0.05  -0.05    -0.01  -0.00  -0.01     0.00  -0.01  -0.01
     6   8    -0.11   0.07  -0.12     0.03  -0.01   0.05     0.01  -0.01  -0.01
     7   6    -0.02   0.01  -0.01    -0.00   0.01   0.01     0.00   0.00  -0.00
     8   6    -0.02   0.01  -0.01     0.02   0.00   0.03    -0.00   0.00  -0.00
     9   6    -0.02   0.01  -0.00    -0.02   0.02  -0.03     0.00  -0.00   0.01
    10   6    -0.01   0.00   0.01     0.02   0.00   0.02    -0.00  -0.00  -0.00
    11   1    -0.02   0.01  -0.01     0.04  -0.01   0.07    -0.00   0.00  -0.01
    12   6    -0.01   0.00   0.00    -0.02   0.02  -0.03     0.00  -0.01   0.01
    13   1    -0.00  -0.00  -0.00     0.00   0.00  -0.00    -0.00   0.00   0.00
    14   6    -0.01   0.00   0.02    -0.00   0.01  -0.02     0.00  -0.00   0.00
    15   1    -0.01   0.00   0.01     0.03  -0.01   0.04    -0.00  -0.00  -0.01
    16   8     0.00  -0.00   0.04     0.00  -0.00  -0.01    -0.00  -0.00  -0.00
    17   1     0.00  -0.00   0.04     0.02  -0.01   0.02    -0.01   0.00  -0.01
    18   8    -0.02   0.00   0.01    -0.02  -0.00   0.00     0.00  -0.00   0.00
    19   6    -0.01   0.01  -0.01    -0.07  -0.02   0.07     0.02   0.01  -0.01
    20   1     0.02   0.06   0.02     0.01   0.43   0.26     0.00  -0.09  -0.05
    21   1    -0.04  -0.03   0.02    -0.35  -0.35   0.37     0.08   0.08  -0.08
    22   1     0.01  -0.01  -0.07     0.09  -0.18  -0.35    -0.02   0.05   0.07
    23   6     0.03  -0.10   0.08     0.00  -0.00  -0.00     0.01  -0.01  -0.03
    24   1     0.06  -0.09   0.07    -0.01   0.01   0.01    -0.07   0.09   0.08
    25   6    -0.02  -0.08   0.03     0.01  -0.01  -0.02     0.08  -0.12  -0.14
    26   1    -0.07  -0.13   0.02     0.02  -0.03  -0.03     0.15  -0.21  -0.23
    27   6    -0.02  -0.00  -0.04     0.00  -0.01  -0.00     0.01  -0.01  -0.03
    28   8    -0.06  -0.02  -0.13     0.01  -0.01   0.01    -0.06   0.08   0.07
    29   6     0.04  -0.11   0.08     0.00   0.00  -0.00    -0.00   0.00  -0.01
    30   6    -0.00  -0.11   0.03    -0.01   0.01   0.01    -0.09   0.11   0.10
    31   6     0.08  -0.06   0.09     0.01  -0.00  -0.01     0.04  -0.05  -0.07
    32   6    -0.02  -0.04   0.00    -0.01   0.01   0.01    -0.07   0.10   0.08
    33   1    -0.04  -0.15   0.02    -0.01   0.02   0.02    -0.15   0.19   0.19
    34   6     0.07   0.01   0.05     0.00  -0.00  -0.00     0.03  -0.03  -0.05
[...]
 Vibration    30          0.813              1.748              1.669
 Vibration    31          0.819              1.734              1.618
 Vibration    32          0.825              1.719              1.561
 Vibration    33          0.852              1.653              1.358
 Vibration    34          0.857              1.643              1.330
 Vibration    35          0.861              1.632              1.300
 Vibration    36          0.863              1.628              1.292
 Vibration    37          0.868              1.615              1.259
 Vibration    38          0.886              1.574              1.164
 Vibration    39          0.903              1.536              1.085
 Vibration    40          0.912              1.517              1.046
 Vibration    41          0.914              1.511              1.035
 Vibration    42          0.927              1.482              0.983
 Vibration    43          0.941              1.452              0.933
 Vibration    44          0.972              1.388              0.834
 Vibration    45          0.998              1.336              0.762
 Vibration    46          1.010              1.311              0.730
 Vibration    47          1.013              1.305              0.723
 Vibration    48          1.026              1.281              0.694
 Vibration    49          1.038              1.258              0.667
 Vibration    50          1.051              1.233              0.639
 Vibration    51          1.063              1.211              0.616
 Vibration    52          1.090              1.161              0.565
 Vibration    53          1.114              1.120              0.526
 Vibration    54          1.152              1.056              0.470
 Vibration    55          1.166              1.034              0.451
 Vibration    56          1.183              1.006              0.429
                       Q            Log10(Q)             Ln(Q)
 Total Bot       0.197652-103       -103.704100       -238.787514
 Total V=0       0.130426D+37         36.115363         83.158697
 Vib (Bot)       0.418447-120       -120.378360       -277.181416
 Vib (Bot)    1  0.710233D+02          1.851401          4.263007
 Vib (Bot)    2  0.342448D+02          1.534594          3.533534
 Vib (Bot)    3  0.206007D+02          1.313881          3.025324
 Vib (Bot)    4  0.134222D+02          1.127823          2.596909
 Vib (Bot)    5  0.765988D+01          0.884222          2.035996
 Vib (Bot)    6  0.673506D+01          0.828341          1.907326
 Vib (Bot)    7  0.639565D+01          0.805884          1.855617
 Vib (Bot)    8  0.488062D+01          0.688475          1.585272
 Vib (Bot)    9  0.452534D+01          0.655651          1.509692
 Vib (Bot)   10  0.362804D+01          0.559673          1.288694
 Vib (Bot)   11  0.358690D+01          0.554720          1.277290
 Vib (Bot)   12  0.327847D+01          0.515671          1.187377
 Vib (Bot)   13  0.264157D+01          0.421863          0.971375
 Vib (Bot)   14  0.254832D+01          0.406254          0.935435
 Vib (Bot)   15  0.245048D+01          0.389251          0.896284
 Vib (Bot)   16  0.197600D+01          0.295788          0.681076
 Vib (Bot)   17  0.191450D+01          0.282056          0.649459
 Vib (Bot)   18  0.180173D+01          0.255690          0.588747
 Vib (Bot)   19  0.167384D+01          0.223714          0.515120
 Vib (Bot)   20  0.152488D+01          0.183237          0.421919
 Vib (Bot)   21  0.149014D+01          0.173226          0.398869
 Vib (Bot)   22  0.138269D+01          0.140726          0.324034
 Vib (Bot)   23  0.133826D+01          0.126539          0.291368
 Vib (Bot)   24  0.120331D+01          0.080379          0.185079
 Vib (Bot)   25  0.110662D+01          0.044000          0.101315
 Vib (Bot)   26  0.101672D+01          0.007200          0.016578
 Vib (Bot)   27  0.906794D+00         -0.042491         -0.097839
 Vib (Bot)   28  0.842209D+00         -0.074580         -0.171728
 Vib (Bot)   29  0.805520D+00         -0.093924         -0.216267
 Vib (Bot)   30  0.750660D+00         -0.124557         -0.286802
 Vib (Bot)   31  0.725948D+00         -0.139094         -0.320276
 Vib (Bot)   32  0.699342D+00         -0.155311         -0.357616
 Vib (Bot)   33  0.608146D+00         -0.215992         -0.497341
 Vib (Bot)   34  0.595776D+00         -0.224917         -0.517890
 Vib (Bot)   35  0.583285D+00         -0.234120         -0.539080
 Vib (Bot)   36  0.579696D+00         -0.236800         -0.545252
 Vib (Bot)   37  0.565954D+00         -0.247219         -0.569243
 Vib (Bot)   38  0.526324D+00         -0.278747         -0.641839
 Vib (Bot)   39  0.494072D+00         -0.306210         -0.705074
 Vib (Bot)   40  0.478618D+00         -0.320011         -0.736853
 Vib (Bot)   41  0.474150D+00         -0.324084         -0.746231
 Vib (Bot)   42  0.453768D+00         -0.343166         -0.790169
 Vib (Bot)   43  0.433988D+00         -0.362522         -0.834738
 Vib (Bot)   44  0.395568D+00         -0.402779         -0.927433
 Vib (Bot)   45  0.368204D+00         -0.433912         -0.999118
 Vib (Bot)   46  0.356174D+00         -0.448338         -1.032336
 Vib (Bot)   47  0.353429D+00         -0.451698         -1.040074
 Vib (Bot)   48  0.342276D+00         -0.465624         -1.072138
 Vib (Bot)   49  0.332251D+00         -0.478534         -1.101866
 Vib (Bot)   50  0.321332D+00         -0.493046         -1.135279
 Vib (Bot)   51  0.312629D+00         -0.504971         -1.162739
 Vib (Bot)   52  0.293271D+00         -0.532731         -1.226660
 Vib (Bot)   53  0.278182D+00         -0.555670         -1.279478
 Vib (Bot)   54  0.256736D+00         -0.590513         -1.359706
 Vib (Bot)   55  0.249440D+00         -0.603034         -1.388538
 Vib (Bot)   56  0.240772D+00         -0.618393         -1.423903
 Vib (V=0)       0.276123D+20         19.441103         44.764795
 Vib (V=0)    1  0.715250D+02          1.854458          4.270047
 Vib (V=0)    2  0.347484D+02          1.540935          3.548134
 Vib (V=0)    3  0.211067D+02          1.324421          3.049593
 Vib (V=0)    4  0.139315D+02          1.143998          2.634152
 Vib (V=0)    5  0.817618D+01          0.912551          2.101225
 Vib (V=0)    6  0.725359D+01          0.860553          1.981497
 Vib (V=0)    7  0.691516D+01          0.839802          1.933716
 Vib (V=0)    8  0.540616D+01          0.732889          1.687539
 Vib (V=0)    9  0.505287D+01          0.703539          1.619957
 Vib (V=0)   10  0.416234D+01          0.619337          1.426077
 Vib (V=0)   11  0.412159D+01          0.615064          1.416238
 Vib (V=0)   12  0.381638D+01          0.581651          1.339302
 Vib (V=0)   13  0.318848D+01          0.503583          1.159544
 Vib (V=0)   14  0.309691D+01          0.490929          1.130405
 Vib (V=0)   15  0.300097D+01          0.477262          1.098935
 Vib (V=0)   16  0.253828D+01          0.404540          0.931487
 Vib (V=0)   17  0.247872D+01          0.394227          0.907742
 Vib (V=0)   18  0.236982D+01          0.374716          0.862815
 Vib (V=0)   19  0.224692D+01          0.351588          0.809562
 Vib (V=0)   20  0.210477D+01          0.323204          0.744204
 Vib (V=0)   21  0.207179D+01          0.316345          0.728411
 Vib (V=0)   22  0.197032D+01          0.294537          0.678197
 Vib (V=0)   23  0.192861D+01          0.285245          0.656800
 Vib (V=0)   24  0.180306D+01          0.256010          0.589485
 Vib (V=0)   25  0.171434D+01          0.234097          0.539027
 Vib (V=0)   26  0.163301D+01          0.212989          0.490425
 Vib (V=0)   27  0.153551D+01          0.186252          0.428861
 Vib (V=0)   28  0.147945D+01          0.170099          0.391668
 Vib (V=0)   29  0.144808D+01          0.160794          0.370241
 Vib (V=0)   30  0.140194D+01          0.146729          0.337855
 Vib (V=0)   31  0.138148D+01          0.140344          0.323153
 Vib (V=0)   32  0.135970D+01          0.133442          0.307262
 Vib (V=0)   33  0.128730D+01          0.109680          0.252547
 Vib (V=0)   34  0.127778D+01          0.106458          0.245128
 Vib (V=0)   35  0.126826D+01          0.103208          0.237645
 Vib (V=0)   36  0.126554D+01          0.102275          0.235497
 Vib (V=0)   37  0.125518D+01          0.098708          0.227283
 Vib (V=0)   38  0.122596D+01          0.088476          0.203723
 Vib (V=0)   39  0.120293D+01          0.080239          0.184758
 Vib (V=0)   40  0.119215D+01          0.076332          0.175760
 Vib (V=0)   41  0.118907D+01          0.075208          0.173172
 Vib (V=0)   42  0.117521D+01          0.070115          0.161445
 Vib (V=0)   43  0.116208D+01          0.065235          0.150209
 Vib (V=0)   44  0.113755D+01          0.055972          0.128879
 Vib (V=0)   45  0.112095D+01          0.049585          0.114173
 Vib (V=0)   46  0.111389D+01          0.046842          0.107858
 Vib (V=0)   47  0.111230D+01          0.046222          0.106430
 Vib (V=0)   48  0.110593D+01          0.043728          0.100688
 Vib (V=0)   49  0.110033D+01          0.041521          0.095606
 Vib (V=0)   50  0.109435D+01          0.039157          0.090163
 Vib (V=0)   51  0.108969D+01          0.037304          0.085895
 Vib (V=0)   52  0.107966D+01          0.033288          0.076648
 Vib (V=0)   53  0.107218D+01          0.030266          0.069690
 Vib (V=0)   54  0.106206D+01          0.026150          0.060212
 Vib (V=0)   55  0.105877D+01          0.024800          0.057105
 Vib (V=0)   56  0.105495D+01          0.023233          0.053495
 Electronic      0.200000D+01          0.301030          0.693147
 Translational   0.542337D+09          8.734270         20.111399
 Rotational      0.435472D+08          7.638960         17.589356
 ***** Axes restored to original set *****
 -------------------------------------------------------------------
 Center     Atomic                   Forces (Hartrees/Bohr)
 Number     Number              X              Y              Z
 -------------------------------------------------------------------
      1        6           0.000019185    0.000015055   -0.000015514
      2        1           0.000019053    0.000013433   -0.000004738
      3        6          -0.000020974   -0.000012160    0.000021412
      4        1           0.000000025    0.000002265    0.000002988
      5        6           0.000060882    0.000059521   -0.000069551
      6        8          -0.000043423   -0.000048196    0.000054559
      7        6          -0.000007302   -0.000002121    0.000000259
      8        6           0.000006649   -0.000000468   -0.000009148
      9        6          -0.000049787    0.000034693   -0.000030070
     10        6           0.000003480   -0.000016288    0.000008240
     11        1          -0.000010923    0.000000841    0.000003620
     12        6           0.000048341   -0.000003387    0.000041955
     13        1          -0.000005732   -0.000005591    0.000007065
     14        6          -0.000054569   -0.000028801    0.000007123
     15        1           0.000000108    0.000002242   -0.000012184
     16        8           0.000013301    0.000007327   -0.000002240
     17        1           0.000028132    0.000014427   -0.000015284
     18        8           0.000077224   -0.000013354    0.000072610
     19        6           0.000007674   -0.000025562    0.000005077
     20        1          -0.000045786    0.000070786   -0.000099624
     21        1           0.000001962    0.000000559    0.000012999
     22        1           0.000004993   -0.000006300   -0.000006438
     23        6           0.000002968   -0.000019473    0.000004825
     24        1          -0.000010786    0.000016126    0.000018987
     25        6           0.000020833    0.000013042   -0.000015805
     26        1          -0.000011867   -0.000007714   -0.000008838
     27        6          -0.000088212   -0.000096348    0.000035322
     28        8           0.000019001    0.000066309   -0.000037524
     29        6          -0.000007980    0.000012530   -0.000011938
     30        6           0.000009681    0.000003525    0.000000804
     31        6           0.000032602    0.000009030   -0.000013944
     32        6          -0.000015230   -0.000005639   -0.000002041
     33        1          -0.000008961    0.000003996   -0.000003507
     34        6          -0.000008202   -0.000009140    0.000040358
     35        1           0.000012742    0.000010534    0.000006985
     36        6           0.000062515    0.000041363   -0.000020340
     37        1          -0.000003662   -0.000034897    0.000018201
     38        8          -0.000029909    0.000008025   -0.000023020
     39        1          -0.000030382   -0.000022294    0.000001974
     40        8           0.000014478    0.000004410    0.000010076
     41        6          -0.000025754    0.000016706   -0.000016674
     42        1           0.000009814   -0.000003222   -0.000003498
     43        1           0.000000718   -0.000003772   -0.000005009
     44        1           0.000004269   -0.000007645   -0.000003245
     45        6           0.000005810    0.000001525    0.000003122
     46        1          -0.000006852    0.000011805   -0.000009016
     47        1           0.000026485   -0.000000733    0.000006712
     48        8           0.000034521   -0.000196771    0.000154633
     49        8          -0.000058371   -0.000043133   -0.000036349
     50        7          -0.000002786    0.000172931   -0.000064366
 -------------------------------------------------------------------
 Cartesian Forces:  Max     0.000196771 RMS     0.000037862
 FormGI is forming the generalized inverse of G from B-inverse, IUseBI=4.

 ----------------------------------------------------------------------

 Electric dipole moment (input orientation):
 (Debye = 10**-18 statcoulomb cm , SI units = C m)
                  (au)            (Debye)         (10**-30 SI)
   Tot        0.241940D+01      0.614950D+01      0.205125D+02
   x          0.496102D+00      0.126096D+01      0.420613D+01
   y          0.211298D+01      0.537065D+01      0.179146D+02
   z          0.106898D+01      0.271707D+01      0.906318D+01

 Dipole polarizability, Alpha (input orientation).
 (esu units = cm**3 , SI units = C**2 m**2 J**-1)
 Alpha(0;0):
               (au)            (10**-24 esu)      (10**-40 SI)
   iso        0.432828D+03      0.641385D+02      0.713637D+02
   aniso      0.340755D+03      0.504947D+02      0.561829D+02
   xx         0.609558D+03      0.903272D+02      0.100503D+03
   yx         0.102348D+03      0.151664D+02      0.168749D+02
   yy         0.379112D+03      0.561786D+02      0.625072D+02
   zx        -0.396236D+02     -0.587161D+01     -0.653304D+01
   zy        -0.450977D+02     -0.668280D+01     -0.743561D+01
   zz         0.309814D+03      0.459097D+02      0.510815D+02

 ----------------------------------------------------------------------

 Dipole orientation:
     6          3.49227781         -1.12256571          2.95034779
     1          2.48318813         -0.18463354          4.46974568
     6          2.18517218         -2.74681478          1.48607965
     1          3.03967702         -3.81129664         -0.04118328
     6         -0.52351630         -3.30244784          1.79120485
     8         -1.55219802         -4.80058331          0.35803825
     6          6.16150318         -0.41966120          2.86837344
     6          7.15447021          0.82136107          4.99685137
     6          7.90066642         -0.89002908          0.91216434
     6          9.67602949          1.51536670          5.16962739
     1          5.89801526          1.23886343          6.56029022
     6         10.43957783         -0.22108895          1.00743504
     1          9.16893529        -10.65418732          2.07699683
     6         11.33699060          1.01699944          3.18845959
     1         10.35782871          2.48617755          6.84448717
     8         13.80078715          1.70817818          3.20510662
     1         14.21216330          2.57041192          4.76707201
     8         11.90772012         -0.58780067         -1.06943174
     6         13.91685158         -2.42209337         -0.82914321
     1         13.14326582         -4.26405079         -0.30803879
     1         14.78712837         -2.53687658         -2.68929055
     1         15.31035993         -1.81017924          0.55909301
     6         -6.26147925         -0.33660141          0.43814916
     1         -5.86134329         -2.33540285          0.67857128
     6         -4.82245275          1.35830232          1.69571291
     1         -5.13718552          3.37687368          1.49453344
     6         -2.73545999          0.72844555          3.39537818
     8         -1.52911559          2.41135506          4.44094717
     6         -8.34519751          0.20055413         -1.27764892
     6         -9.58382651         -1.82906710         -2.45693034
     6         -9.20288324          2.66365986         -1.81254562
     6        -11.57981666         -1.42264108         -4.11305232
     1         -8.96579303         -3.74786150         -2.08234107
     6        -11.19504890          3.09606553         -3.45237345
     1         -8.31444504          4.29948303         -0.95719875
     6        -12.39573850          1.02870543         -4.63813472
     1        -12.50221315         -3.01421592         -5.02623839
     8        -14.30599813          1.54076239         -6.27563866
     1        -14.96690007         -0.01351967         -6.98038177
     8        -11.87925508          5.53262357         -4.00700984
     6        -14.26978507          6.33684155         -3.00071535
     1        -14.25578821          6.23011574         -0.93471549
     1        -14.50627156          8.29737747         -3.58339757
     1        -15.82195341          5.20412244         -3.75118698
     6         -2.05147359         -2.04715933          3.90744902
     1         -3.75664349         -3.17397883          4.16132578
     1         -0.98814100         -2.08282309          5.67207994
     8          7.69030002         -4.27276397         -1.85805436
     8          5.93334098         -0.74557294         -2.98843212
     7          7.10417455         -2.06602902         -1.50229411

 Electric dipole moment (dipole orientation):
 (Debye = 10**-18 statcoulomb cm , SI units = C m)
                  (au)            (Debye)         (10**-30 SI)
   Tot        0.241940D+01      0.614950D+01      0.205125D+02
   x          0.000000D+00      0.000000D+00      0.000000D+00
   y          0.000000D+00      0.000000D+00      0.000000D+00
   z          0.241940D+01      0.614950D+01      0.205125D+02

 Dipole polarizability, Alpha (dipole orientation).
 (esu units = cm**3 , SI units = C**2 m**2 J**-1)
 Alpha(0;0):
               (au)            (10**-24 esu)      (10**-40 SI)
   iso        0.432828D+03      0.641385D+02      0.713637D+02
   aniso      0.340755D+03      0.504947D+02      0.561829D+02
   xx         0.582196D+03      0.862726D+02      0.959912D+02
   yx         0.402318D+02      0.596174D+01      0.663333D+01
   yy         0.346342D+03      0.513226D+02      0.571041D+02
   zx         0.131546D+03      0.194931D+02      0.216890D+02
   zy         0.539369D+02      0.799263D+01      0.889300D+01
   zz         0.369946D+03      0.548204D+02      0.609959D+02

 ----------------------------------------------------------------------

 This type of calculation cannot be archived.


 LIFE IS A CONTINUAL STRUGGLE AGAINST THE TENDENCY TO PRODUCE ENTROPY.
 Job cpu time:       0 days  0 hours  0 minutes  0.1 seconds.
 Elapsed time:       0 days  0 hours  0 minutes  0.8 seconds.
 File lengths (MBytes):  RWF=      6 Int=      0 D2E=      0 Chk=     70 Scr=      1
 Normal termination of Gaussian 16 at Thu Dec  5 10:55:29 2024.
