 Entering Gaussian System, Link 0=g16
 Initial command:
 /sw/cluster/pub/apps//g16/l1.exe "/data/natrosa/25940/Gau-537871.inp" -scrdir="/data/natrosa/25940/"
 Entering Link 1 = /sw/cluster/pub/apps//g16/l1.exe PID=    537876.
  
 Copyright (c) 1988,1990,1992,1993,1995,1998,2003,2009,2016,
            Gaussian, Inc.  All Rights Reserved.
  
 This is part of the Gaussian(R) 16 program.  It is based on
 the Gaussian(R) 09 system (copyright 2009, Gaussian, Inc.),
 the Gaussian(R) 03 system (copyright 2003, Gaussian, Inc.),
 the Gaussian(R) 98 system (copyright 1998, Gaussian, Inc.),
 the Gaussian(R) 94 system (copyright 1995, Gaussian, Inc.),
 the Gaussian 92(TM) system (copyright 1992, Gaussian, Inc.),
 the Gaussian 90(TM) system (copyright 1990, Gaussian, Inc.),
 the Gaussian 88(TM) system (copyright 1988, Gaussian, Inc.),
 the Gaussian 86(TM) system (copyright 1986, Carnegie Mellon
 University), and the Gaussian 82(TM) system (copyright 1983,
 Carnegie Mellon University). Gaussian is a federally registered
 trademark of Gaussian, Inc.
  
 This software contains proprietary and confidential information,
 including trade secrets, belonging to Gaussian, Inc.
  
 This software is provided under written license and may be
 used, copied, transmitted, or stored only in accord with that
 written license.
  
 The following legend is applicable only to US Government
 contracts under FAR:
  
                    RESTRICTED RIGHTS LEGEND
  
 Use, reproduction and disclosure by the US Government is
 subject to restrictions as set forth in subparagraphs (a)
 and (c) of the Commercial Computer Software - Restricted
 Rights clause in FAR 52.227-19.
  
 Gaussian, Inc.
 340 Quinnipiac St., Bldg. 40, Wallingford CT 06492
  
  
 ---------------------------------------------------------------
 Warning -- This program may not be used in any manner that
 competes with the business of Gaussian, Inc. or will provide
 assistance to any competitor of Gaussian, Inc.  The licensee
 of this program is prohibited from giving any competitor of
 Gaussian, Inc. access to this program.  By using this program,
 the user acknowledges that Gaussian, Inc. is engaged in the
 business of creating and licensing software in the field of
 computational chemistry and represents and warrants to the
 licensee that it is not a competitor of Gaussian, Inc. and that
 it will not use this program in any manner prohibited above.
 ---------------------------------------------------------------
  

 Cite this work as:
 Gaussian 16, Revision A.03,
 M. J. Frisch, G. W. Trucks, H. B. Schlegel, G. E. Scuseria, 
 M. A. Robb, J. R. Cheeseman, G. Scalmani, V. Barone, 
 G. A. Petersson, H. Nakatsuji, X. Li, M. Caricato, A. V. Marenich, 
 J. Bloino, B. G. Janesko, R. Gomperts, B. Mennucci, H. P. Hratchian, 
 J. V. Ortiz, A. F. Izmaylov, J. L. Sonnenberg, D. Williams-Young, 
 F. Ding, F. Lipparini, F. Egidi, J. Goings, B. Peng, A. Petrone, 
 T. Henderson, D. Ranasinghe, V. G. Zakrzewski, J. Gao, N. Rega, 
 G. Zheng, W. Liang, M. Hada, M. Ehara, K. Toyota, R. Fukuda, 
 J. Hasegawa, M. Ishida, T. Nakajima, Y. Honda, O. Kitao, H. Nakai, 
 T. Vreven, K. Throssell, J. A. Montgomery, Jr., J. E. Peralta, 
 F. Ogliaro, M. J. Bearpark, J. J. Heyd, E. N. Brothers, K. N. Kudin, 
 V. N. Staroverov, T. A. Keith, R. Kobayashi, J. Normand, 
 K. Raghavachari, A. P. Rendell, J. C. Burant, S. S. Iyengar, 
 J. Tomasi, M. Cossi, J. M. Millam, M. Klene, C. Adamo, R. Cammi, 
 J. W. Ochterski, R. L. Martin, K. Morokuma, O. Farkas, 
 J. B. Foresman, and D. J. Fox, Gaussian, Inc., Wallingford CT, 2016.
 
 ******************************************
 Gaussian 16:  ES64L-G16RevA.03 25-Dec-2016
                 5-Dec-2024 
 ******************************************
 %oldchk=/home/natrosa/MOSSRI/REACAO-1/B3LYP-6-311+G-D/CURCUMIN-OPT-FREQ-Reag-1-B
 3LYP-6-311+G-D-298.chk
 %chk=CURCUMIN-OPT-FREQ-Reag-1-B3LYP-6-311+G-D-363-test.chk
 Copying data from "/home/natrosa/MOSSRI/REACAO-1/B3LYP-6-311+G-D/CURCUMIN-OPT-FREQ-Reag-1-B3LYP-6-311+G-D-298.chk" to current chk file "CURCUMIN-OPT-FREQ-Reag-1-B3LYP-6-311+G-D-363-test.chk"
 IOpt=  2 FromEx=T IUOpen= 4 IOptOp= 5 NList=   0 IFRang= 0 IUIn= 4 IUOut= 2.
 ----------------------------------------------------------------------
 # freq=(readfc,noraman) b3lyp/6-311+g(d) scrf=(smd,solvent=generic,rea
 d) temperature=363.15 Geom=Check Guess=Read
 ----------------------------------------------------------------------
 1/29=2,38=1,40=2,112=363150,172=1/1;
 2/12=2,40=1/2;
 7/8=1,25=11/16;
 99/5=2/99;
 ----------
 Reagente 1
 ----------
 Structure from the checkpoint file:  "CURCUMIN-OPT-FREQ-Reag-1-B3LYP-6-311+G-D-363-test.chk"
 Charge =  0 Multiplicity = 2
 Redundant internal coordinates found in file.  (old form).
 C,0,2.188276381,0.9305008344,0.9848040625
 H,0,1.7821956721,1.9375125496,0.9917593278
 C,0,1.4365132208,-0.0762872677,1.5113660339
 H,0,1.7937505944,-1.1009034133,1.5216266935
 C,0,0.1125318089,0.0886633594,2.1084798671
 O,0,-0.4806317224,-0.8837383742,2.5698063746
 C,0,3.4949260965,0.8329492942,0.4105044086
 C,0,4.1574244709,1.979027026,-0.0087537219
 C,0,4.1997920262,-0.481884767,0.256008119
 C,0,5.4841766254,1.9575092402,-0.4350984061
 H,0,3.6403272157,2.9316005004,0.0424795316
 C,0,5.6484161459,-0.4270477454,-0.0933258418
 H,0,4.033875217,-1.1584207686,1.0944848583
 C,0,6.2478553599,0.7678515273,-0.4303904256
 H,0,5.9675075245,2.8835263336,-0.7316403785
 O,0,7.5819864092,0.7955542879,-0.7253590787
 H,0,7.8570869982,1.7012537926,-0.9269363162
 O,0,6.2023456662,-1.6533899239,-0.0324457018
 C,0,7.384816964,-1.9987998753,-0.7862785536
 H,0,8.2735059236,-1.5490001226,-0.3485208318
 H,0,7.445881508,-3.0837634781,-0.7255832231
 H,0,7.2772441016,-1.6911627246,-1.8267218057
 C,0,-3.1638592361,0.5322392175,1.0047209501
 H,0,-2.8088907061,0.1302141607,1.949106709
 C,0,-2.4033074146,1.4475315393,0.3641876589
 H,0,-2.7125206196,1.8666180947,-0.5891260713
 C,0,-1.1193646512,1.9627784411,0.8424764153
 O,0,-0.5031533788,2.7941784069,0.181508257
 C,0,-4.4413272103,-0.013220069,0.5655396696
 C,0,-5.0685976862,-0.9856162314,1.3614722207
 C,0,-5.089839977,0.3875413066,-0.6192450326
 C,0,-6.285158909,-1.5431924671,0.9883688223
 H,0,-4.5922120674,-1.3139062355,2.2794634723
 C,0,-6.3047893645,-0.1562946209,-1.0007745365
 H,0,-4.6505509694,1.133749785,-1.2717797844
 C,0,-6.9102232037,-1.1434595155,-0.192878771
 H,0,-6.7506884649,-2.3040045421,1.6091006384
 O,0,-8.0872056557,-1.6726083242,-0.6190895835
 H,0,-8.3992510066,-2.3415344332,0.0078370082
 O,0,-6.8643109616,0.2184403838,-2.195236209
 C,0,-8.0517212782,1.021921312,-2.098905947
 H,0,-7.8382659972,1.9565037898,-1.5702750939
 H,0,-8.3508378033,1.2449049361,-3.1225904791
 H,0,-8.8562835329,0.4846226085,-1.5932140841
 C,0,-0.5393460773,1.4769392067,2.1783062309
 H,0,-1.3215011007,1.4216626479,2.9354996933
 H,0,0.1895041869,2.2227545375,2.4968857776
 O,0,2.7712542991,-2.235289719,-0.6190526001
 O,0,3.6835311636,-0.9220962362,-2.0789080683
 N,0,3.482683415,-1.2999382644,-0.938853255
 Recover connectivity data from disk.
                           ----------------------------
                           !    Current Parameters    !
                           ! (Angstroms and Degrees)  !
 --------------------------                            --------------------------
 ! Name  Definition              Value          Derivative Info.                !
 --------------------------------------------------------------------------------
 ! R1    R(1,2)                  1.0858         estimate D2E/DX2                !
 ! R2    R(1,3)                  1.3624         estimate D2E/DX2                !
 ! R3    R(1,7)                  1.4306         estimate D2E/DX2                !
 ! R4    R(3,4)                  1.0852         estimate D2E/DX2                !
 ! R5    R(3,5)                  1.4617         estimate D2E/DX2                !
 ! R6    R(5,6)                  1.2289         estimate D2E/DX2                !
 ! R7    R(5,45)                 1.5353         estimate D2E/DX2                !
 ! R8    R(7,8)                  1.3886         estimate D2E/DX2                !
 ! R9    R(7,9)                  1.4998         estimate D2E/DX2                !
 ! R10   R(8,10)                 1.3937         estimate D2E/DX2                !
 ! R11   R(8,11)                 1.0851         estimate D2E/DX2                !
 ! R12   R(9,12)                 1.4912         estimate D2E/DX2                !
 ! R13   R(9,13)                 1.0901         estimate D2E/DX2                !
 ! R14   R(9,50)                 1.6159         estimate D2E/DX2                !
 ! R15   R(10,14)                1.4137         estimate D2E/DX2                !
 ! R16   R(10,15)                1.0858         estimate D2E/DX2                !
 ! R17   R(12,14)                1.3787         estimate D2E/DX2                !
 ! R18   R(12,18)                1.347          estimate D2E/DX2                !
 ! R19   R(14,16)                1.3666         estimate D2E/DX2                !
 ! R20   R(16,17)                0.9678         estimate D2E/DX2                !
 ! R21   R(18,19)                1.4442         estimate D2E/DX2                !
 ! R22   R(19,20)                1.088          estimate D2E/DX2                !
 ! R23   R(19,21)                1.0884         estimate D2E/DX2                !
 ! R24   R(19,22)                1.0903         estimate D2E/DX2                !
 ! R25   R(23,24)                1.086          estimate D2E/DX2                !
 ! R26   R(23,25)                1.3515         estimate D2E/DX2                !
 ! R27   R(23,29)                1.4568         estimate D2E/DX2                !
 ! R28   R(25,26)                1.0863         estimate D2E/DX2                !
 ! R29   R(25,27)                1.4638         estimate D2E/DX2                !
 ! R30   R(27,28)                1.2279         estimate D2E/DX2                !
 ! R31   R(27,45)                1.5352         estimate D2E/DX2                !
 ! R32   R(29,30)                1.4045         estimate D2E/DX2                !
 ! R33   R(29,31)                1.4089         estimate D2E/DX2                !
 ! R34   R(30,32)                1.3893         estimate D2E/DX2                !
 ! R35   R(30,33)                1.0851         estimate D2E/DX2                !
 ! R36   R(31,34)                1.3847         estimate D2E/DX2                !
 ! R37   R(31,35)                1.0843         estimate D2E/DX2                !
 ! R38   R(32,36)                1.3949         estimate D2E/DX2                !
 ! R39   R(32,37)                1.0867         estimate D2E/DX2                !
 ! R40   R(34,36)                1.412          estimate D2E/DX2                !
 ! R41   R(34,40)                1.3712         estimate D2E/DX2                !
 ! R42   R(36,38)                1.359          estimate D2E/DX2                !
 ! R43   R(38,39)                0.9684         estimate D2E/DX2                !
 ! R44   R(40,41)                1.4369         estimate D2E/DX2                !
 ! R45   R(41,42)                1.0947         estimate D2E/DX2                !
 ! R46   R(41,43)                1.0896         estimate D2E/DX2                !
 ! R47   R(41,44)                1.0917         estimate D2E/DX2                !
 ! R48   R(45,46)                1.09           estimate D2E/DX2                !
 ! R49   R(45,47)                1.0904         estimate D2E/DX2                !
 ! R50   R(48,50)                1.2179         estimate D2E/DX2                !
 ! R51   R(49,50)                1.2177         estimate D2E/DX2                !
 ! A1    A(2,1,3)              118.4582         estimate D2E/DX2                !
 ! A2    A(2,1,7)              114.0407         estimate D2E/DX2                !
 ! A3    A(3,1,7)              127.4997         estimate D2E/DX2                !
 ! A4    A(1,3,4)              121.3168         estimate D2E/DX2                !
 ! A5    A(1,3,5)              125.0504         estimate D2E/DX2                !
 ! A6    A(4,3,5)              113.6324         estimate D2E/DX2                !
 ! A7    A(3,5,6)              120.0821         estimate D2E/DX2                !
 ! A8    A(3,5,45)             120.3445         estimate D2E/DX2                !
 ! A9    A(6,5,45)             119.5698         estimate D2E/DX2                !
 ! A10   A(1,7,8)              120.0454         estimate D2E/DX2                !
 ! A11   A(1,7,9)              122.0303         estimate D2E/DX2                !
 ! A12   A(8,7,9)              117.9194         estimate D2E/DX2                !
 ! A13   A(7,8,10)             122.2619         estimate D2E/DX2                !
 ! A14   A(7,8,11)             118.8778         estimate D2E/DX2                !
 ! A15   A(10,8,11)            118.7928         estimate D2E/DX2                !
 ! A16   A(7,9,12)             116.6444         estimate D2E/DX2                !
 ! A17   A(7,9,13)             113.1608         estimate D2E/DX2                !
 ! A18   A(7,9,50)             108.1445         estimate D2E/DX2                !
 ! A19   A(12,9,13)            110.5415         estimate D2E/DX2                !
 ! A20   A(12,9,50)            106.0521         estimate D2E/DX2                !
 ! A21   A(13,9,50)            100.7793         estimate D2E/DX2                !
 ! A22   A(8,10,14)            121.75           estimate D2E/DX2                !
 ! A23   A(8,10,15)            119.6105         estimate D2E/DX2                !
 ! A24   A(14,10,15)           118.5625         estimate D2E/DX2                !
 ! A25   A(9,12,14)            120.7666         estimate D2E/DX2                !
 ! A26   A(9,12,18)            110.8197         estimate D2E/DX2                !
 ! A27   A(14,12,18)           128.4118         estimate D2E/DX2                !
 ! A28   A(10,14,12)           119.6891         estimate D2E/DX2                !
 ! A29   A(10,14,16)           120.6358         estimate D2E/DX2                !
 ! A30   A(12,14,16)           119.6562         estimate D2E/DX2                !
 ! A31   A(14,16,17)           109.9637         estimate D2E/DX2                !
 ! A32   A(12,18,19)           122.0623         estimate D2E/DX2                !
 ! A33   A(18,19,20)           111.093          estimate D2E/DX2                !
 ! A34   A(18,19,21)           104.7881         estimate D2E/DX2                !
 ! A35   A(18,19,22)           110.477          estimate D2E/DX2                !
 ! A36   A(20,19,21)           110.1123         estimate D2E/DX2                !
 ! A37   A(20,19,22)           110.3588         estimate D2E/DX2                !
 ! A38   A(21,19,22)           109.8787         estimate D2E/DX2                !
 ! A39   A(24,23,25)           118.6135         estimate D2E/DX2                !
 ! A40   A(24,23,29)           114.2143         estimate D2E/DX2                !
 ! A41   A(25,23,29)           127.1692         estimate D2E/DX2                !
 ! A42   A(23,25,26)           121.1326         estimate D2E/DX2                !
 ! A43   A(23,25,27)           125.2492         estimate D2E/DX2                !
 ! A44   A(26,25,27)           113.6167         estimate D2E/DX2                !
 ! A45   A(25,27,28)           120.1728         estimate D2E/DX2                !
 ! A46   A(25,27,45)           120.2847         estimate D2E/DX2                !
 ! A47   A(28,27,45)           119.5406         estimate D2E/DX2                !
 ! A48   A(23,29,30)           118.6871         estimate D2E/DX2                !
 ! A49   A(23,29,31)           123.4117         estimate D2E/DX2                !
 ! A50   A(30,29,31)           117.9007         estimate D2E/DX2                !
 ! A51   A(29,30,32)           121.116          estimate D2E/DX2                !
 ! A52   A(29,30,33)           119.5269         estimate D2E/DX2                !
 ! A53   A(32,30,33)           119.3551         estimate D2E/DX2                !
 ! A54   A(29,31,34)           121.5919         estimate D2E/DX2                !
 ! A55   A(29,31,35)           121.0231         estimate D2E/DX2                !
 ! A56   A(34,31,35)           117.3843         estimate D2E/DX2                !
 ! A57   A(30,32,36)           120.3178         estimate D2E/DX2                !
 ! A58   A(30,32,37)           120.1802         estimate D2E/DX2                !
 ! A59   A(36,32,37)           119.4974         estimate D2E/DX2                !
 ! A60   A(31,34,36)           119.5471         estimate D2E/DX2                !
 ! A61   A(31,34,40)           119.3869         estimate D2E/DX2                !
 ! A62   A(36,34,40)           120.9648         estimate D2E/DX2                !
 ! A63   A(32,36,34)           119.5198         estimate D2E/DX2                !
 ! A64   A(32,36,38)           122.8249         estimate D2E/DX2                !
 ! A65   A(34,36,38)           117.653          estimate D2E/DX2                !
 ! A66   A(36,38,39)           110.1802         estimate D2E/DX2                !
 ! A67   A(34,40,41)           115.5693         estimate D2E/DX2                !
 ! A68   A(40,41,42)           110.402          estimate D2E/DX2                !
 ! A69   A(40,41,43)           106.1592         estimate D2E/DX2                !
 ! A70   A(40,41,44)           111.3993         estimate D2E/DX2                !
 ! A71   A(42,41,43)           109.4208         estimate D2E/DX2                !
 ! A72   A(42,41,44)           109.8887         estimate D2E/DX2                !
 ! A73   A(43,41,44)           109.4888         estimate D2E/DX2                !
 ! A74   A(5,45,27)            114.0165         estimate D2E/DX2                !
 ! A75   A(5,45,46)            106.8824         estimate D2E/DX2                !
 ! A76   A(5,45,47)            110.363          estimate D2E/DX2                !
 ! A77   A(27,45,46)           110.4497         estimate D2E/DX2                !
 ! A78   A(27,45,47)           106.8762         estimate D2E/DX2                !
 ! A79   A(46,45,47)           108.1414         estimate D2E/DX2                !
 ! A80   A(9,50,48)            116.9922         estimate D2E/DX2                !
 ! A81   A(9,50,49)            117.5162         estimate D2E/DX2                !
 ! A82   A(48,50,49)           125.4847         estimate D2E/DX2                !
 ! D1    D(2,1,3,4)            179.5323         estimate D2E/DX2                !
 ! D2    D(2,1,3,5)             -0.7087         estimate D2E/DX2                !
 ! D3    D(7,1,3,4)             -0.9373         estimate D2E/DX2                !
 ! D4    D(7,1,3,5)            178.8218         estimate D2E/DX2                !
 ! D5    D(2,1,7,8)              3.5133         estimate D2E/DX2                !
 ! D6    D(2,1,7,9)           -177.309          estimate D2E/DX2                !
 ! D7    D(3,1,7,8)           -176.0346         estimate D2E/DX2                !
 ! D8    D(3,1,7,9)              3.143          estimate D2E/DX2                !
 ! D9    D(1,3,5,6)           -179.2527         estimate D2E/DX2                !
 ! D10   D(1,3,5,45)             0.0558         estimate D2E/DX2                !
 ! D11   D(4,3,5,6)              0.5226         estimate D2E/DX2                !
 ! D12   D(4,3,5,45)           179.8311         estimate D2E/DX2                !
 ! D13   D(3,5,45,27)           76.5658         estimate D2E/DX2                !
 ! D14   D(3,5,45,46)         -161.0936         estimate D2E/DX2                !
 ! D15   D(3,5,45,47)          -43.7246         estimate D2E/DX2                !
 ! D16   D(6,5,45,27)         -104.1221         estimate D2E/DX2                !
 ! D17   D(6,5,45,46)           18.2185         estimate D2E/DX2                !
 ! D18   D(6,5,45,47)          135.5874         estimate D2E/DX2                !
 ! D19   D(1,7,8,10)           172.689          estimate D2E/DX2                !
 ! D20   D(1,7,8,11)            -4.2839         estimate D2E/DX2                !
 ! D21   D(9,7,8,10)            -6.5221         estimate D2E/DX2                !
 ! D22   D(9,7,8,11)           176.5051         estimate D2E/DX2                !
 ! D23   D(1,7,9,12)          -167.9287         estimate D2E/DX2                !
 ! D24   D(1,7,9,13)           -38.0156         estimate D2E/DX2                !
 ! D25   D(1,7,9,50)            72.7323         estimate D2E/DX2                !
 ! D26   D(8,7,9,12)            11.2657         estimate D2E/DX2                !
 ! D27   D(8,7,9,13)           141.1788         estimate D2E/DX2                !
 ! D28   D(8,7,9,50)          -108.0733         estimate D2E/DX2                !
 ! D29   D(7,8,10,14)           -1.7926         estimate D2E/DX2                !
 ! D30   D(7,8,10,15)         -178.556          estimate D2E/DX2                !
 ! D31   D(11,8,10,14)         175.1828         estimate D2E/DX2                !
 ! D32   D(11,8,10,15)          -1.5807         estimate D2E/DX2                !
 ! D33   D(7,9,12,14)           -8.4463         estimate D2E/DX2                !
 ! D34   D(7,9,12,18)          172.008          estimate D2E/DX2                !
 ! D35   D(13,9,12,14)        -139.5882         estimate D2E/DX2                !
 ! D36   D(13,9,12,18)          40.8661         estimate D2E/DX2                !
 ! D37   D(50,9,12,14)         112.0121         estimate D2E/DX2                !
 ! D38   D(50,9,12,18)         -67.5336         estimate D2E/DX2                !
 ! D39   D(7,9,50,48)         -105.786          estimate D2E/DX2                !
 ! D40   D(7,9,50,49)           73.3175         estimate D2E/DX2                !
 ! D41   D(12,9,50,48)         128.3858         estimate D2E/DX2                !
 ! D42   D(12,9,50,49)         -52.5106         estimate D2E/DX2                !
 ! D43   D(13,9,50,48)          13.1427         estimate D2E/DX2                !
 ! D44   D(13,9,50,49)        -167.7538         estimate D2E/DX2                !
 ! D45   D(8,10,14,12)           4.9782         estimate D2E/DX2                !
 ! D46   D(8,10,14,16)        -173.434          estimate D2E/DX2                !
 ! D47   D(15,10,14,12)       -178.2255         estimate D2E/DX2                !
 ! D48   D(15,10,14,16)          3.3622         estimate D2E/DX2                !
 ! D49   D(9,12,14,10)           0.5048         estimate D2E/DX2                !
 ! D50   D(9,12,14,16)         178.9328         estimate D2E/DX2                !
 ! D51   D(18,12,14,10)        179.9629         estimate D2E/DX2                !
 ! D52   D(18,12,14,16)         -1.6092         estimate D2E/DX2                !
 ! D53   D(9,12,18,19)         155.3949         estimate D2E/DX2                !
 ! D54   D(14,12,18,19)        -24.1069         estimate D2E/DX2                !
 ! D55   D(10,14,16,17)         -0.6818         estimate D2E/DX2                !
 ! D56   D(12,14,16,17)       -179.0945         estimate D2E/DX2                !
 ! D57   D(12,18,19,20)         74.3464         estimate D2E/DX2                !
 ! D58   D(12,18,19,21)       -166.7715         estimate D2E/DX2                !
 ! D59   D(12,18,19,22)        -48.4786         estimate D2E/DX2                !
 ! D60   D(24,23,25,26)        179.1743         estimate D2E/DX2                !
 ! D61   D(24,23,25,27)         -0.3597         estimate D2E/DX2                !
 ! D62   D(29,23,25,26)         -0.1551         estimate D2E/DX2                !
 ! D63   D(29,23,25,27)       -179.6892         estimate D2E/DX2                !
 ! D64   D(24,23,29,30)         -0.7985         estimate D2E/DX2                !
 ! D65   D(24,23,29,31)        178.9295         estimate D2E/DX2                !
 ! D66   D(25,23,29,30)        178.5561         estimate D2E/DX2                !
 ! D67   D(25,23,29,31)         -1.716          estimate D2E/DX2                !
 ! D68   D(23,25,27,28)        179.8433         estimate D2E/DX2                !
 ! D69   D(23,25,27,45)         -0.6618         estimate D2E/DX2                !
 ! D70   D(26,25,27,28)          0.2785         estimate D2E/DX2                !
 ! D71   D(26,25,27,45)        179.7735         estimate D2E/DX2                !
 ! D72   D(25,27,45,5)          77.8532         estimate D2E/DX2                !
 ! D73   D(25,27,45,46)        -42.5089         estimate D2E/DX2                !
 ! D74   D(25,27,45,47)       -159.9206         estimate D2E/DX2                !
 ! D75   D(28,27,45,5)        -102.6487         estimate D2E/DX2                !
 ! D76   D(28,27,45,46)        136.9892         estimate D2E/DX2                !
 ! D77   D(28,27,45,47)         19.5775         estimate D2E/DX2                !
 ! D78   D(23,29,30,32)       -179.7682         estimate D2E/DX2                !
 ! D79   D(23,29,30,33)         -0.2793         estimate D2E/DX2                !
 ! D80   D(31,29,30,32)          0.4888         estimate D2E/DX2                !
 ! D81   D(31,29,30,33)        179.9776         estimate D2E/DX2                !
 ! D82   D(23,29,31,34)       -179.9859         estimate D2E/DX2                !
 ! D83   D(23,29,31,35)          0.3323         estimate D2E/DX2                !
 ! D84   D(30,29,31,34)         -0.2559         estimate D2E/DX2                !
 ! D85   D(30,29,31,35)       -179.9377         estimate D2E/DX2                !
 ! D86   D(29,30,32,36)         -0.0154         estimate D2E/DX2                !
 ! D87   D(29,30,32,37)        179.195          estimate D2E/DX2                !
 ! D88   D(33,30,32,36)       -179.5051         estimate D2E/DX2                !
 ! D89   D(33,30,32,37)         -0.2947         estimate D2E/DX2                !
 ! D90   D(29,31,34,36)         -0.4423         estimate D2E/DX2                !
 ! D91   D(29,31,34,40)       -176.8212         estimate D2E/DX2                !
 ! D92   D(35,31,34,36)        179.2506         estimate D2E/DX2                !
 ! D93   D(35,31,34,40)          2.8717         estimate D2E/DX2                !
 ! D94   D(30,32,36,34)         -0.6938         estimate D2E/DX2                !
 ! D95   D(30,32,36,38)        178.7378         estimate D2E/DX2                !
 ! D96   D(37,32,36,34)       -179.9096         estimate D2E/DX2                !
 ! D97   D(37,32,36,38)         -0.4779         estimate D2E/DX2                !
 ! D98   D(31,34,36,32)          0.9174         estimate D2E/DX2                !
 ! D99   D(31,34,36,38)       -178.5434         estimate D2E/DX2                !
 ! D100  D(40,34,36,32)        177.2379         estimate D2E/DX2                !
 ! D101  D(40,34,36,38)         -2.223          estimate D2E/DX2                !
 ! D102  D(31,34,40,41)       -110.493          estimate D2E/DX2                !
 ! D103  D(36,34,40,41)         73.1807         estimate D2E/DX2                !
 ! D104  D(32,36,38,39)         -0.0508         estimate D2E/DX2                !
 ! D105  D(34,36,38,39)        179.3909         estimate D2E/DX2                !
 ! D106  D(34,40,41,42)         60.4206         estimate D2E/DX2                !
 ! D107  D(34,40,41,43)        178.9181         estimate D2E/DX2                !
 ! D108  D(34,40,41,44)        -61.9636         estimate D2E/DX2                !
 --------------------------------------------------------------------------------
                          Input orientation:                          
 ---------------------------------------------------------------------
 Center     Atomic      Atomic             Coordinates (Angstroms)
 Number     Number       Type             X           Y           Z
 ---------------------------------------------------------------------
      1          6           0        2.188276    0.930501    0.984804
      2          1           0        1.782196    1.937513    0.991759
      3          6           0        1.436513   -0.076287    1.511366
      4          1           0        1.793751   -1.100903    1.521627
      5          6           0        0.112532    0.088663    2.108480
      6          8           0       -0.480632   -0.883738    2.569806
      7          6           0        3.494926    0.832949    0.410504
      8          6           0        4.157424    1.979027   -0.008754
      9          6           0        4.199792   -0.481885    0.256008
     10          6           0        5.484177    1.957509   -0.435098
     11          1           0        3.640327    2.931601    0.042480
     12          6           0        5.648416   -0.427048   -0.093326
     13          1           0        4.033875   -1.158421    1.094485
     14          6           0        6.247855    0.767852   -0.430390
     15          1           0        5.967508    2.883526   -0.731640
     16          8           0        7.581986    0.795554   -0.725359
     17          1           0        7.857087    1.701254   -0.926936
     18          8           0        6.202346   -1.653390   -0.032446
     19          6           0        7.384817   -1.998800   -0.786279
     20          1           0        8.273506   -1.549000   -0.348521
     21          1           0        7.445882   -3.083763   -0.725583
     22          1           0        7.277244   -1.691163   -1.826722
     23          6           0       -3.163859    0.532239    1.004721
     24          1           0       -2.808891    0.130214    1.949107
     25          6           0       -2.403307    1.447532    0.364188
     26          1           0       -2.712521    1.866618   -0.589126
     27          6           0       -1.119365    1.962778    0.842476
     28          8           0       -0.503153    2.794178    0.181508
     29          6           0       -4.441327   -0.013220    0.565540
     30          6           0       -5.068598   -0.985616    1.361472
     31          6           0       -5.089840    0.387541   -0.619245
     32          6           0       -6.285159   -1.543192    0.988369
     33          1           0       -4.592212   -1.313906    2.279463
     34          6           0       -6.304789   -0.156295   -1.000775
     35          1           0       -4.650551    1.133750   -1.271780
     36          6           0       -6.910223   -1.143460   -0.192879
     37          1           0       -6.750688   -2.304005    1.609101
     38          8           0       -8.087206   -1.672608   -0.619090
     39          1           0       -8.399251   -2.341534    0.007837
     40          8           0       -6.864311    0.218440   -2.195236
     41          6           0       -8.051721    1.021921   -2.098906
     42          1           0       -7.838266    1.956504   -1.570275
     43          1           0       -8.350838    1.244905   -3.122590
     44          1           0       -8.856284    0.484623   -1.593214
     45          6           0       -0.539346    1.476939    2.178306
     46          1           0       -1.321501    1.421663    2.935500
     47          1           0        0.189504    2.222755    2.496886
     48          8           0        2.771254   -2.235290   -0.619053
     49          8           0        3.683531   -0.922096   -2.078908
     50          7           0        3.482683   -1.299938   -0.938853
 ---------------------------------------------------------------------
                    Distance matrix (angstroms):
                    1          2          3          4          5
     1  C    0.000000
     2  H    1.085828   0.000000
     3  C    1.362365   2.108288   0.000000
     4  H    2.137857   3.084293   1.085155   0.000000
     5  C    2.506003   2.730034   1.461739   2.141486   0.000000
     6  O    3.595381   3.945894   2.334035   2.513694   1.228914
     7  C    1.430619   2.119284   2.505129   2.805063   3.857159
     8  C    2.442152   2.577685   3.733422   4.173127   4.941387
     9  C    2.563625   3.498512   3.062049   2.788191   4.523591
    10  C    3.732804   3.967491   4.930378   5.177056   6.230325
    11  H    2.645908   2.311276   4.007719   4.675341   4.979557
    12  C    3.870125   4.660066   4.520862   4.233273   5.979960
    13  H    2.789598   3.829545   2.844485   2.281209   4.237964
    14  C    4.302257   4.830397   5.256615   5.209766   6.674530
    15  H    4.587273   4.624055   5.858454   6.194606   7.082251
    16  O    5.659945   6.155496   6.597718   6.492239   8.020168
    17  H    6.031934   6.375070   7.094275   7.114183   8.473036
    18  O    4.880988   5.786303   5.252025   4.707026   6.686116
    19  C    6.222666   7.074273   6.660146   6.114954   8.100819
    20  H    6.704901   7.489274   7.236887   6.759103   8.678726
    21  H    6.832434   7.761431   7.082469   6.397521   8.477867
    22  H    6.377726   7.162868   6.918438   6.452019   8.365805
    23  C    5.366970   5.141830   4.668021   5.245211   3.485654
    24  H    5.151895   5.026024   4.272905   4.783586   2.926061
    25  C    4.662095   4.260559   4.287454   5.044748   3.349407
    26  H    5.231767   4.765155   5.039983   5.793785   4.291750
    27  C    3.467902   2.905508   3.337321   4.281779   2.575391
    28  O    3.370812   2.571615   3.710849   4.716285   3.378180
    29  C    6.709548   6.535997   5.953786   6.401043   4.809228
    30  C    7.515025   7.457529   6.570070   6.865185   5.343800
    31  C    7.472533   7.226522   6.880983   7.360884   5.881708
    32  C    8.827133   8.786212   7.877154   8.108561   6.696869
    33  H    7.258686   7.270693   6.202193   6.434299   4.912337
    34  C    8.789529   8.587989   8.139104   8.534702   7.135088
    35  H    7.204376   6.866577   6.801650   7.370605   5.933407
    36  C    9.405899   9.298059   8.585529   8.871330   7.492227
    37  H    9.526640   9.548910   8.485432   8.629168   7.285467
    38  O   10.720736  10.631693   9.888797  10.126342   8.819150
    39  H   11.124586  11.087840  10.204617  10.379210   9.097747
    40  O    9.621280   9.374125   9.095573   9.514083   8.198485
    41  C   10.694633  10.348741  10.211108  10.702708   9.231906
    42  H   10.397724   9.955785   9.982499  10.568034   8.957525
    43  H   11.315585  10.958373  10.909232  11.401063  10.016467
    44  H   11.350211  11.044013  10.765440  11.208896   9.710766
    45  C    3.027039   2.647561   2.600258   3.538339   1.535295
    46  H    4.045367   3.698265   3.446542   4.250549   2.125394
    47  H    2.819823   2.209849   2.794973   3.817255   2.170514
    48  O    3.596450   4.580964   3.313836   2.612442   4.461950
    49  O    3.879979   4.606673   4.319091   4.070269   5.595345
    50  N    3.217267   4.135216   3.418729   2.990998   4.751039
                    6          7          8          9         10
     6  O    0.000000
     7  C    4.838870   0.000000
     8  C    6.029591   1.388588   0.000000
     9  C    5.236556   1.499831   2.475476   0.000000
    10  C    7.258173   2.436554   1.393737   2.842167   0.000000
    11  H    6.158449   2.135631   1.085086   3.465614   2.139326
    12  C    6.698214   2.545380   2.831855   1.491158   2.414518
    13  H    4.757394   2.173442   3.328059   1.090079   3.761917
    14  C    7.549932   2.879229   2.452473   2.495505   1.413688
    15  H    8.165190   3.409255   2.148740   3.927628   1.085842
    16  O    8.870397   4.242128   3.693475   3.746221   2.415615
    17  H    9.403560   4.644475   3.822005   4.420550   2.436858
    18  O    7.212924   3.702460   4.168539   2.337916   3.703578
    19  C    8.623917   4.958058   5.181092   3.678556   4.403197
    20  H    9.251710   5.393017   5.431809   4.254331   4.481458
    21  H    8.861677   5.678150   6.079444   4.274388   5.417296
    22  H    8.953549   5.067766   5.148648   3.907791   4.297035
    23  C    3.413824   6.692006   7.531369   7.470768   8.882173
    24  H    2.614222   6.526809   7.468659   7.236220   8.820341
    25  C    3.741157   5.930347   6.592782   6.880063   7.944265
    26  H    4.746013   6.371823   6.895333   7.349135   8.198648
    27  C    3.390325   4.770198   5.345031   5.883345   6.725993
    28  O    4.385379   4.459092   4.735151   5.732001   6.076869
    29  C    4.523494   7.982741   8.845190   8.659353  10.168612
    30  C    4.745512   8.805990   9.787038   9.347665  11.101833
    31  C    5.747260   8.657770   9.403054   9.371192  10.691517
    32  C    6.052137  10.081173  11.065615  10.563944  12.361166
    33  H    4.144205   8.573436   9.624733   9.060131  10.936389
    34  C    6.870155   9.950112  10.723881  10.584505  11.990324
    35  H    6.017995   8.322821   8.938130   9.125403  10.202515
    36  C    7.002823  10.608364  11.501159  11.138744  12.778725
    37  H    6.500286  10.781917  11.829993  11.183202  13.116065
    38  O    8.285610  11.894690  12.792104  12.375538  14.049698
    39  H    8.449461  12.317099  13.279218  12.737966  14.540548
    40  O    8.041877  10.699593  11.373611  11.354005  12.593951
    41  C    9.096692  11.817695  12.423688  12.566091  13.669825
    42  H    8.907414  11.559719  12.096919  12.417564  13.370718
    43  H    9.943573  12.368290  12.910908  13.111638  14.111628
    44  H    9.452761  12.517532  13.194709  13.221757  14.462345
    45  C    2.393641   4.451427   5.205284   5.476463   6.583590
    46  H    2.481062   5.469932   6.244831   6.425562   7.613495
    47  H    3.178789   4.148537   4.699151   5.330949   6.058089
    48  O    4.750818   3.316290   4.478214   2.425053   4.997334
    49  O    6.241175   3.051710   3.595362   2.431490   3.773137
    50  N    5.309593   2.523911   3.474475   1.615905   3.856256
                   11         12         13         14         15
    11  H    0.000000
    12  C    3.915531   0.000000
    13  H    4.241447   2.133669   0.000000
    14  C    3.421201   1.378668   3.307186   0.000000
    15  H    2.453027   3.386616   4.838492   2.155325   0.000000
    16  O    4.548510   2.373376   4.440602   1.366631   2.639358
    17  H    4.498287   3.178490   5.184673   1.925467   2.237503
    18  O    5.252779   1.347019   2.493438   2.454148   4.596480
    19  C    6.246350   2.442473   3.933487   3.012258   5.084177
    20  H    6.457167   2.866182   4.495474   3.078598   5.011158
    21  H    7.159383   3.269368   4.319882   4.044421   6.147697
    22  H    6.171792   2.693646   4.397352   3.009341   4.882867
    23  C    7.278722   8.932085   7.394171   9.523415   9.587771
    24  H    7.285287   8.718263   7.015298   9.385800   9.580830
    25  C    6.231491   8.279711   6.982954   8.714123   8.563496
    26  H    6.472387   8.684007   7.582827   9.028888   8.740555
    27  C    4.922731   7.238083   6.030031   7.571260   7.317744
    28  O    4.148089   6.949363   6.086148   7.075065   6.535386
    29  C    8.617349  10.119698   8.568566  10.763855  10.881988
    30  C    9.640005  10.829719   9.108027  11.590838  11.880530
    31  C    9.117343  10.781943   9.411113  11.345644  11.336115
    32  C   10.928575  12.034370  10.326750  12.823036  13.140856
    33  H    9.529068  10.549271   8.708486  11.365918  11.755546
    34  C   10.465602  11.990659  10.596337  12.599535  12.646036
    35  H    8.584766  10.483013   9.288300  10.936959  10.774815
    36  C   11.312631  12.579451  11.019565  13.298291  13.503438
    37  H   11.740488  12.655395  10.857440  13.511401  13.933487
    38  O   12.616316  13.801998  12.252401  14.542538  14.775182
    39  H   13.143766  14.177886  12.536474  14.979922  15.305288
    40  O   11.077727  12.704449  11.466842  13.241806  13.187129
    41  C   12.038954  13.921768  12.689101  14.398833  14.208229
    42  H   11.632278  13.775097  12.559914  14.182068  13.862253
    43  H   12.516016  14.420506  13.301910  14.852520  14.608790
    44  H   12.838554  14.610514  13.269495  15.151481  15.041337
    45  C    4.914007   6.861041   5.388334   7.305765   7.265358
    46  H    5.938789   7.821206   6.223040   8.309744   8.289428
    47  H    4.293571   6.597755   5.308320   6.883989   6.651716
    48  O    5.281067   3.438632   2.385387   4.597957   6.035809
    49  O    4.399219   2.836967   3.201408   3.485584   4.638366
    50  N    4.346698   2.483395   2.111470   3.490052   4.870181
                   16         17         18         19         20
    16  O    0.000000
    17  H    0.967784   0.000000
    18  O    2.894972   3.846026   0.000000
    19  C    2.801964   3.732723   1.444233   0.000000
    20  H    2.473286   3.327479   2.097738   1.087989   0.000000
    21  H    3.881705   4.806873   2.018115   1.088374   1.783995
    22  H    2.736719   3.557291   2.091951   1.090291   1.788247
    23  C   10.887411  11.249851   9.673597  10.994926  11.703681
    24  H   10.750152  11.158085   9.397349  10.766927  11.441956
    25  C   10.065698  10.344422   9.155889  10.440697  11.112223
    26  H   10.350972  10.576297   9.600791  10.813721  11.507264
    27  C    8.918185   9.152918   8.212771   9.521977  10.098370
    28  O    8.377732   8.503926   8.049246   9.280589   9.806828
    29  C   12.119431  12.506714  10.785894  12.067627  12.839825
    30  C   12.944679  13.398858  11.376427  12.677812  13.463031
    31  C   12.678837  13.017044  11.490134  12.701952  13.505647
    32  C   14.167015  14.635503  12.529644  13.792215  14.619919
    33  H   12.715734  13.204440  11.044576  12.382127  13.133479
    34  C   13.922084  14.283371  12.633582  13.814708  14.659187
    35  H   12.249405  12.525254  11.273396  12.445829  13.231810
    36  C   14.631044  15.056716  13.123461  14.332896  15.189941
    37  H   14.848654  15.357756  13.072837  14.340276  15.169994
    38  O   15.862746  16.300251  14.301601  15.476364  16.363416
    39  H   16.302725  16.777558  14.617859  15.807748  16.695386
    40  O   14.532347  14.850147  13.376058  14.489271  15.352124
    41  C   15.695563  15.966377  14.649436  15.783994  16.618861
    42  H   15.486958  15.710606  14.578581  15.748058  16.533918
    43  H   16.118422  16.362334  15.157317  16.235480  17.084208
    44  H   16.464099  16.770834  15.289520  16.449677  17.294929
    45  C    8.651682   8.955051   7.754792   9.146687   9.654404
    46  H    9.647071   9.962081   8.652914  10.067332  10.567582
    47  H    8.189539   8.413462   7.587903   8.965111   9.363416
    48  O    5.686867   6.438700   3.529179   4.622646   5.551482
    49  O    4.469941   5.062368   3.326744   4.065673   4.945211
    50  N    4.608791   5.304970   2.888437   3.967157   4.833477
                   21         22         23         24         25
    21  H    0.000000
    22  H    1.783334   0.000000
    23  C   11.341782  11.044330   0.000000
    24  H   11.074474  10.922656   1.086044   0.000000
    25  C   10.896181  10.409830   1.351474   2.100426   0.000000
    26  H   11.301240  10.676369   2.127116   3.076851   1.086303
    27  C   10.064285   9.538288   2.500545   2.727163   1.463813
    28  O    9.927748   9.202492   3.587953   3.941768   2.336111
    29  C   12.345079  12.077389   1.456822   2.144686   2.515524
    30  C   12.859635  12.770364   2.461541   2.587792   3.744136
    31  C   13.007904  12.598563   2.523411   3.444616   3.050930
    32  C   13.923091  13.852271   3.748359   3.975896   4.939919
    33  H   12.533092  12.565312   2.659589   2.318373   4.010626
    34  C   14.061535  13.693416   3.789661   4.583142   4.433615
    35  H   12.822224  12.270305   2.784694   3.843554   2.797312
    36  C   14.496424  14.291734   4.275214   4.799091   5.228369
    37  H   14.408379  14.455564   4.612472   4.645298   5.875675
    38  O   15.597420  15.411847   5.633600   6.140555   6.558110
    39  H   15.879453  15.796870   6.054889   6.413283   7.101785
    40  O   14.759608  14.274662   4.902197   5.799120   5.287898
    41  C   16.090940  15.569589   5.810635   6.683474   6.176775
    42  H   16.115923  15.551523   5.523515   6.404373   5.791371
    43  H   16.553530  15.954207   6.666884   7.594592   6.897231
    44  H   16.710678  16.281256   6.257414   7.017450   6.811719
    45  C    9.643466   9.336820   3.026191   2.648968   2.601200
    46  H   10.515198  10.310522   2.813052   2.202984   2.789735
    47  H    9.549788   9.178692   4.040971   3.697183   3.445583
    48  O    4.752199   4.696646   6.746957   6.582482   6.426976
    49  O    4.545280   3.683726   7.649223   7.712574   6.973769
    50  N    4.351374   3.916639   7.163162   7.068915   6.625058
                   26         27         28         29         30
    26  H    0.000000
    27  C    2.144033   0.000000
    28  O    2.517052   1.227934   0.000000
    29  C    2.802823   3.875139   4.851616   0.000000
    30  C    4.182245   4.955687   6.043380   1.404468   0.000000
    31  C    2.800040   4.514718   5.241260   1.408862   2.410239
    32  C    5.184500   6.244882   7.272922   2.432964   1.389287
    33  H    4.677369   4.986207   6.164266   2.156869   1.085092
    34  C    4.143190   5.897175   6.615290   2.438504   2.792159
    35  H    2.181530   4.198410   4.697869   2.176019   3.405949
    36  C    5.180568   6.652422   7.529655   2.819235   2.415058
    37  H    6.207503   7.106684   8.189089   3.416118   2.151487
    38  O    6.435391   7.993936   8.838042   4.177241   3.675130
    39  H    7.099564   8.498263   9.420938   4.625715   3.842407
    40  O    4.746940   6.728657   7.262759   3.680543   4.162273
    41  C    5.612487   7.589105   8.082206   4.604968   4.990336
    42  H    5.219578   7.138981   7.587774   4.469979   4.992221
    43  H    6.212535   8.278363   8.654679   5.519914   5.987916
    44  H    6.376827   8.244844   8.846382   4.939626   5.023777
    45  C    3.540229   1.535221   2.392411   4.477393   5.219724
    46  H    3.815220   2.171270   3.184017   4.172399   4.723694
    47  H    4.251123   2.125511   2.483399   5.493112   6.263421
    48  O    6.848236   5.907348   6.054601   7.639515   8.182142
    49  O    7.134834   6.318607   6.037260   8.592583   9.404255
    50  N    6.966343   5.915852   5.822705   8.167545   8.860852
                   31         32         33         34         35
    31  C    0.000000
    32  C    2.782255   0.000000
    33  H    3.397803   2.141394   0.000000
    34  C    1.384711   2.424987   3.877234   0.000000
    35  H    1.084253   3.866036   4.313439   2.115222   0.000000
    36  C    2.416515   1.394933   3.393332   1.411999   3.384646
    37  H    3.868897   1.086674   2.467529   3.409242   4.952596
    38  O    3.637089   2.418273   4.554696   2.371054   4.484668
    39  H    4.335123   2.463367   4.550808   3.190508   5.269513
    40  O    2.379305   3.684306   5.247233   1.371215   2.567352
    41  C    3.371139   4.385410   6.049332   2.376101   3.502085
    42  H    3.304534   4.605070   6.004410   2.672040   3.305685
    43  H    4.199514   5.379638   7.060947   3.263706   4.138838
    44  H    3.891547   4.169806   6.034455   2.696643   4.267654
    45  C    5.451612   6.599357   4.921867   6.783387   5.377999
    46  H    5.282613   6.100785   4.314078   6.543498   5.372771
    47  H    6.399199   7.640631   5.951475   7.750442   6.230161
    48  O    8.287101   9.223959   7.966868   9.318932   8.176776
    49  O    8.989873  10.448384   9.361455  10.075484   8.621768
    50  N    8.742877   9.959122   8.692623   9.854257   8.496068
                   36         37         38         39         40
    36  C    0.000000
    37  H    2.149290   0.000000
    38  O    1.359022   2.673906   0.000000
    39  H    1.921685   2.298524   0.968438   0.000000
    40  O    2.422048   4.566029   2.748777   3.709858   0.000000
    41  C    3.102391   5.148182   3.074346   3.983965   1.436943
    42  H    3.516853   5.426158   3.759944   4.612838   2.088068
    43  H    4.045104   6.127327   3.853427   4.760721   2.030610
    44  H    2.898058   4.739704   2.488784   3.280153   2.097913
    45  C    7.285402   7.293854   8.643799   9.003876   7.792103
    46  H    6.899306   6.716845   8.245264   8.533897   7.648198
    47  H    8.304960   8.333426   9.663699  10.039662   8.705722
    48  O    9.752165   9.779406  10.873029  11.188586  10.067237
    49  O   10.762608  11.152758  11.884636  12.343538  10.609964
    50  N   10.420819  10.593494  11.580305  11.965012  10.533008
                   41         42         43         44         45
    41  C    0.000000
    42  H    1.094741   0.000000
    43  H    1.089551   1.782915   0.000000
    44  H    1.091666   1.789782   1.781150   0.000000
    45  C    8.656637   8.219250   9.443132   9.185886   0.000000
    46  H    8.414327   7.940799   9.281340   8.840828   1.090029
    47  H    9.512155   9.003209  10.269963  10.078507   1.090393
    48  O   11.398956  11.447178  11.919748  11.981091   5.706657
    49  O   11.895199  11.886835  12.272376  12.627815   6.458478
    50  N   11.822827  11.796907  12.299478  12.484508   5.796935
                   46         47         48         49         50
    46  H    0.000000
    47  H    1.765578   0.000000
    48  O    6.539021   6.020686   0.000000
    49  O    7.462428   6.560198   2.165157   0.000000
    50  N    6.745214   5.921038   1.217902   1.217715   0.000000
 Stoichiometry    C21H20NO8(2)
 Framework group  C1[X(C21H20NO8)]
 Deg. of freedom   144
 Full point group                 C1      NOp   1
 Largest Abelian subgroup         C1      NOp   1
 Largest concise Abelian subgroup C1      NOp   1
                         Standard orientation:                         
 ---------------------------------------------------------------------
 Center     Atomic      Atomic             Coordinates (Angstroms)
 Number     Number       Type             X           Y           Z
 ---------------------------------------------------------------------
      1          6           0        2.211670    1.148017    0.585318
      2          1           0        1.810248    2.102099    0.257280
      3          6           0        1.457469    0.378514    1.419036
      4          1           0        1.810039   -0.586152    1.769287
      5          6           0        0.136731    0.740542    1.930178
      6          8           0       -0.458984   -0.019180    2.690556
      7          6           0        3.515480    0.857235    0.073269
      8          6           0        4.181499    1.794328   -0.705481
      9          6           0        4.213660   -0.437939    0.364066
     10          6           0        5.506370    1.624418   -1.103415
     11          1           0        3.668996    2.712471   -0.973371
     12          6           0        5.661069   -0.510894    0.013012
     13          1           0        4.048096   -0.795477    1.380446
     14          6           0        6.264593    0.499977   -0.704361
     15          1           0        5.992721    2.395940   -1.692711
     16          8           0        7.597610    0.420206   -0.994846
     17          1           0        7.876032    1.205401   -1.487345
     18          8           0        6.209609   -1.650010    0.477745
     19          6           0        7.387365   -2.233595   -0.120694
     20          1           0        8.279906   -1.668712    0.140070
     21          1           0        7.443698   -3.236665    0.297916
     22          1           0        7.276919   -2.289604   -1.203930
     23          6           0       -3.142110    0.809672    0.749414
     24          1           0       -2.785102    0.743272    1.772951
     25          6           0       -2.380011    1.454883   -0.161293
     26          1           0       -2.691223    1.534134   -1.199041
     27          6           0       -1.091756    2.092723    0.114946
     28          8           0       -0.474464    2.652852   -0.786734
     29          6           0       -4.423868    0.156340    0.520099
     30          6           0       -5.052310   -0.491693    1.596039
     31          6           0       -5.075411    0.143121   -0.728984
     32          6           0       -6.272945   -1.134779    1.432919
     33          1           0       -4.573657   -0.498059    2.569833
     34          6           0       -6.294406   -0.489827   -0.904631
     35          1           0       -4.635394    0.626747   -1.593909
     36          6           0       -6.901031   -1.147922    0.187458
     37          1           0       -6.739400   -1.642621    2.272786
     38          8           0       -8.082177   -1.782127   -0.035300
     39          1           0       -8.394703   -2.202146    0.779429
     40          8           0       -6.857120   -0.531316   -2.154375
     41          6           0       -8.040422    0.265105   -2.328486
     42          1           0       -7.820502    1.321188   -2.141989
     43          1           0       -8.342728    0.135957   -3.367262
     44          1           0       -8.845351   -0.068398   -1.670764
     45          6           0       -0.508473    2.076446    1.534953
     46          1           0       -1.287747    2.281085    2.269133
     47          1           0        0.225100    2.881625    1.585089
     48          8           0        2.773494   -2.374543    0.126647
     49          8           0        3.685765   -1.628037   -1.689501
     50          7           0        3.487885   -1.603270   -0.488227
 ---------------------------------------------------------------------
 Rotational constants (GHZ):           0.3609147           0.0457847           0.0450019
 Electric field and nuclear coordinate derivatives read from checkpoint file.
 Rotating derivatives to standard orientation.
 Full mass-weighted force constant matrix:
 Low frequencies ---  -10.8710   -4.3401   -0.0011   -0.0004    0.0014    5.2109
 Low frequencies ---    8.5732   14.1556   18.9228
 Diagonal vibrational polarizability:
      557.4436601    1126.0179886     615.5012428
 Harmonic frequencies (cm**-1), IR intensities (KM/Mole), Raman scattering
 activities (A**4/AMU), depolarization ratios for plane and unpolarized
 incident light, reduced masses (AMU), force constants (mDyne/A),
 and normal coordinates:
                      1                      2                      3
                      A                      A                      A
 Frequencies --      6.8247                13.5671                18.3131
 Red. masses --      7.9526                 4.8542                 7.6333
 Frc consts  --      0.0002                 0.0005                 0.0015
 IR Inten    --      1.6842                 2.1817                 4.4058
  Atom  AN      X      Y      Z        X      Y      Z        X      Y      Z
     1   6    -0.02   0.05   0.05     0.01  -0.02   0.02    -0.02  -0.03   0.02
     2   1    -0.00   0.07   0.06     0.01  -0.01   0.04    -0.06  -0.05   0.01
     3   6    -0.03   0.07   0.06     0.01  -0.04  -0.00     0.02  -0.04   0.05
     4   1    -0.04   0.06   0.05     0.01  -0.05  -0.02     0.04  -0.02   0.06
     5   6    -0.01   0.10   0.08     0.01  -0.05   0.00     0.02  -0.06   0.07
     6   8    -0.01   0.12   0.10     0.01  -0.07  -0.01     0.03  -0.07   0.07
     7   6    -0.04   0.02   0.02     0.01  -0.00   0.01    -0.03  -0.02  -0.02
     8   6    -0.02   0.01   0.02     0.01   0.02   0.04    -0.10  -0.04  -0.10
     9   6    -0.08  -0.01  -0.01     0.01  -0.01  -0.02     0.02   0.02   0.03
    10   6    -0.04  -0.03  -0.00     0.02   0.03   0.05    -0.12  -0.02  -0.16
    11   1     0.00   0.03   0.04     0.01   0.03   0.07    -0.14  -0.07  -0.12
    12   6    -0.09  -0.05  -0.04     0.01   0.00  -0.01     0.01   0.05  -0.06
    13   1    -0.07  -0.02  -0.01     0.01  -0.04  -0.03     0.10   0.09   0.06
    14   6    -0.07  -0.06  -0.03     0.02   0.02   0.02    -0.07   0.02  -0.15
    15   1    -0.02  -0.04  -0.00     0.02   0.05   0.07    -0.17  -0.03  -0.23
    16   8    -0.07  -0.10  -0.06     0.02   0.04   0.03    -0.08   0.04  -0.23
    17   1    -0.06  -0.10  -0.05     0.02   0.05   0.05    -0.13   0.03  -0.29
    18   8    -0.12  -0.08  -0.07     0.01  -0.01  -0.05     0.07   0.09  -0.02
    19   6    -0.14  -0.10  -0.09     0.02   0.01  -0.06     0.07   0.10  -0.04
    20   1    -0.12  -0.14  -0.08     0.01   0.00  -0.04     0.05   0.15  -0.10
    21   1    -0.17  -0.11  -0.10     0.02  -0.00  -0.08     0.12   0.13   0.01
    22   1    -0.15  -0.08  -0.09     0.02   0.03  -0.06     0.03   0.05  -0.03
    23   6     0.06   0.05   0.04    -0.03   0.02   0.04    -0.01  -0.02   0.05
    24   1     0.05   0.05   0.04    -0.05   0.04   0.05    -0.03  -0.03   0.05
    25   6     0.04   0.08   0.05    -0.01  -0.01   0.04     0.01  -0.01   0.07
    26   1     0.04   0.09   0.05    -0.01  -0.03   0.03     0.03   0.01   0.07
    27   6     0.02   0.12   0.07    -0.00  -0.03   0.03     0.01  -0.02   0.10
    28   8     0.00   0.16   0.09     0.00  -0.04   0.03     0.01   0.01   0.11
    29   6     0.08   0.00   0.01    -0.04   0.04   0.04    -0.01  -0.00   0.01
    30   6     0.07   0.00   0.01    -0.12   0.16   0.07    -0.05   0.01  -0.01
    31   6     0.12  -0.03  -0.00     0.03  -0.07   0.01     0.03   0.01  -0.01
    32   6     0.09  -0.03  -0.02    -0.13   0.19   0.07    -0.06   0.03  -0.05
    33   1     0.05   0.03   0.02    -0.17   0.24   0.10    -0.08   0.01   0.01
    34   6     0.14  -0.07  -0.03     0.01  -0.05   0.01     0.03   0.03  -0.05
    35   1     0.13  -0.04   0.00     0.10  -0.18  -0.02     0.07  -0.00   0.00
    36   6     0.12  -0.07  -0.03    -0.07   0.09   0.04    -0.02   0.04  -0.07
    37   1     0.08  -0.03  -0.02    -0.20   0.29   0.10    -0.10   0.04  -0.06
    38   8     0.15  -0.10  -0.06    -0.08   0.11   0.04    -0.02   0.06  -0.10
    39   1     0.13  -0.09  -0.06    -0.14   0.20   0.07    -0.06   0.07  -0.11
    40   8     0.17  -0.10  -0.04     0.09  -0.16  -0.02     0.07   0.03  -0.07
    41   6     0.16  -0.13  -0.09     0.11  -0.16  -0.18     0.09   0.05  -0.11
    42   1     0.14  -0.12  -0.11     0.12  -0.14  -0.26     0.10   0.05  -0.11
    43   1     0.19  -0.16  -0.10     0.18  -0.25  -0.18     0.12   0.05  -0.12
    44   1     0.15  -0.13  -0.10     0.07  -0.08  -0.20     0.06   0.06  -0.14
    45   6     0.01   0.11   0.07     0.00  -0.04   0.03     0.00  -0.05   0.10
    46   1     0.00   0.12   0.07     0.01  -0.05   0.04     0.00  -0.08   0.10
    47   1     0.02   0.10   0.08     0.00  -0.04   0.03    -0.00  -0.05   0.12
    48   8    -0.16   0.05  -0.02    -0.01   0.01  -0.09     0.16  -0.11   0.26
    49   8    -0.15   0.04  -0.02     0.04   0.04  -0.06    -0.12  -0.09   0.13
    50   7    -0.13   0.03  -0.02     0.02   0.01  -0.06     0.02  -0.06   0.15
                      4                      5                      6
                      A                      A                      A
 Frequencies --     27.1176                32.5753                48.5656
 Red. masses --      6.9454                 9.8121                 4.7529
 Frc consts  --      0.0030                 0.0061                 0.0066
 IR Inten    --      0.7681                 1.1870                 6.1832
  Atom  AN      X      Y      Z        X      Y      Z        X      Y      Z
     1   6    -0.06  -0.07  -0.10     0.02   0.01  -0.06     0.02   0.05   0.01
     2   1    -0.06  -0.07  -0.09     0.04   0.04  -0.02     0.03   0.06   0.03
     3   6    -0.06  -0.07  -0.09    -0.03  -0.04  -0.15     0.02   0.03  -0.01
     4   1    -0.07  -0.08  -0.11    -0.05  -0.07  -0.21     0.02   0.02  -0.04
     5   6    -0.04  -0.05  -0.05    -0.04  -0.07  -0.17     0.02   0.01  -0.00
     6   8    -0.05  -0.07  -0.08    -0.09  -0.15  -0.29     0.04  -0.00   0.00
     7   6    -0.06  -0.07  -0.10     0.04   0.03  -0.01     0.02   0.04   0.00
     8   6    -0.08  -0.09  -0.13     0.09   0.04   0.05     0.04   0.02   0.00
     9   6    -0.03  -0.04  -0.05     0.02   0.02   0.02    -0.02   0.01  -0.03
    10   6    -0.06  -0.06  -0.09     0.10   0.03   0.08     0.02  -0.03  -0.03
    11   1    -0.10  -0.11  -0.18     0.11   0.06   0.06     0.07   0.04   0.02
    12   6    -0.01   0.00   0.03     0.02  -0.02   0.00    -0.02  -0.02  -0.01
    13   1    -0.08  -0.04  -0.06     0.03   0.06   0.04    -0.04  -0.02  -0.04
    14   6    -0.03  -0.01  -0.01     0.06  -0.01   0.05    -0.00  -0.05  -0.04
    15   1    -0.08  -0.07  -0.12     0.13   0.04   0.12     0.04  -0.05  -0.04
    16   8    -0.02   0.03   0.04     0.06  -0.04   0.07    -0.01  -0.09  -0.09
    17   1    -0.03   0.03   0.03     0.09  -0.04   0.09    -0.00  -0.09  -0.08
    18   8     0.01   0.06   0.12    -0.01  -0.05  -0.03    -0.06  -0.02   0.04
    19   6     0.09   0.09   0.24    -0.05  -0.08  -0.07     0.11   0.06   0.30
    20   1     0.04   0.16   0.27    -0.02  -0.13  -0.06     0.01   0.15   0.46
    21   1     0.12   0.12   0.31    -0.09  -0.10  -0.11     0.11   0.08   0.36
    22   1     0.17   0.02   0.23    -0.06  -0.03  -0.07     0.34  -0.00   0.29
    23   6    -0.00   0.06   0.05    -0.03   0.10  -0.01     0.02  -0.07   0.01
    24   1     0.02   0.01   0.04     0.01   0.05  -0.03     0.03  -0.08   0.00
    25   6    -0.04   0.13   0.07    -0.07   0.16   0.00     0.00  -0.05   0.01
    26   1    -0.07   0.20   0.08    -0.11   0.23   0.02    -0.01  -0.04   0.01
    27   6    -0.04   0.13   0.08    -0.06   0.14   0.00    -0.01  -0.03   0.00
    28   8    -0.08   0.22   0.11    -0.09   0.22   0.03    -0.02  -0.01   0.00
    29   6     0.01   0.04   0.04    -0.02   0.07   0.00     0.02  -0.07   0.01
    30   6     0.02   0.02   0.03     0.01   0.06   0.01     0.00  -0.05   0.01
    31   6     0.02   0.04   0.03    -0.02   0.04   0.01     0.02  -0.06   0.00
    32   6     0.03  -0.00   0.02     0.03   0.02   0.03    -0.02  -0.01   0.01
    33   1     0.01   0.02   0.03     0.02   0.08   0.01    -0.00  -0.06   0.01
    34   6     0.04   0.01   0.02    -0.00  -0.01   0.02     0.00  -0.02   0.01
    35   1     0.02   0.04   0.04    -0.04   0.03   0.00     0.04  -0.08   0.00
    36   6     0.04  -0.01   0.01     0.03  -0.02   0.03    -0.02   0.01   0.01
    37   1     0.03  -0.02   0.01     0.06   0.01   0.04    -0.03   0.01   0.01
    38   8     0.06  -0.03  -0.00     0.05  -0.07   0.05    -0.05   0.06   0.01
    39   1     0.06  -0.04  -0.01     0.07  -0.08   0.05    -0.07   0.07   0.01
    40   8     0.05   0.00   0.01    -0.00  -0.05   0.02     0.00  -0.01   0.01
    41   6     0.04  -0.02  -0.00    -0.04  -0.11   0.02     0.06   0.07  -0.01
    42   1     0.02  -0.02  -0.00    -0.10  -0.10   0.01     0.14   0.06  -0.04
    43   1     0.05  -0.03  -0.00    -0.04  -0.14   0.02     0.04   0.06   0.00
    44   1     0.04  -0.03  -0.01    -0.03  -0.15   0.02     0.04   0.15   0.01
    45   6     0.01   0.00   0.05     0.01  -0.00  -0.03    -0.00  -0.01   0.00
    46   1     0.05  -0.01   0.09     0.05  -0.03   0.02    -0.01  -0.02   0.00
    47   1     0.05  -0.03   0.08     0.04  -0.04   0.01    -0.02   0.01  -0.00
    48   8    -0.05  -0.02  -0.13     0.29  -0.20   0.17     0.06  -0.05  -0.07
    49   8     0.20  -0.15  -0.06    -0.25   0.13   0.04    -0.19   0.20  -0.09
    50   7     0.05  -0.08  -0.08     0.01  -0.01   0.08    -0.05   0.06  -0.07
                      7                      8                      9
                      A                      A                      A
 Frequencies --     51.8102                60.4457                65.8342
 Red. masses --      4.3894                 7.1459                 8.0691
 Frc consts  --      0.0069                 0.0154                 0.0206
 IR Inten    --      1.0145                 0.2445                 4.3444
  Atom  AN      X      Y      Z        X      Y      Z        X      Y      Z
     1   6    -0.03   0.00  -0.06     0.10   0.12  -0.03    -0.03  -0.00  -0.14
     2   1    -0.03   0.00  -0.06     0.10   0.12  -0.04    -0.03  -0.01  -0.16
     3   6    -0.03   0.01  -0.05     0.10   0.11  -0.04    -0.00   0.03  -0.08
     4   1    -0.02   0.01  -0.04     0.12   0.11  -0.05     0.01   0.04  -0.06
     5   6    -0.02   0.01  -0.04     0.07   0.02  -0.05     0.06   0.09   0.04
     6   8    -0.01   0.02  -0.02     0.10  -0.07  -0.12     0.16   0.17   0.20
     7   6    -0.02   0.00  -0.04     0.10   0.09  -0.01    -0.03  -0.02  -0.14
     8   6    -0.01   0.00  -0.03     0.13   0.04  -0.05    -0.01  -0.04  -0.14
     9   6    -0.02   0.01  -0.00     0.06   0.07   0.02    -0.04  -0.01  -0.07
    10   6     0.00   0.02   0.01     0.12  -0.04  -0.08     0.02  -0.01  -0.04
    11   1    -0.02  -0.01  -0.05     0.17   0.05  -0.08    -0.01  -0.05  -0.19
    12   6    -0.01   0.02   0.01     0.05   0.00   0.01    -0.02   0.01   0.01
    13   1    -0.02   0.04   0.01     0.05   0.11   0.03    -0.07   0.02  -0.07
    14   6    -0.00   0.03   0.04     0.08  -0.06  -0.05     0.02   0.02   0.06
    15   1     0.01   0.02   0.02     0.14  -0.08  -0.12     0.05  -0.02  -0.02
    16   8     0.01   0.04   0.09     0.06  -0.14  -0.10     0.06   0.06   0.23
    17   1     0.02   0.03   0.09     0.09  -0.18  -0.14     0.09   0.05   0.23
    18   8    -0.01   0.02   0.01     0.01  -0.00   0.05    -0.01   0.02   0.05
    19   6    -0.08  -0.03  -0.08    -0.06  -0.11   0.01    -0.09  -0.05  -0.04
    20   1    -0.03  -0.08  -0.14    -0.01  -0.16  -0.07    -0.04  -0.11  -0.11
    21   1    -0.10  -0.04  -0.10    -0.11  -0.10   0.05    -0.12  -0.06  -0.05
    22   1    -0.16  -0.01  -0.08    -0.13  -0.16   0.02    -0.18  -0.04  -0.03
    23   6     0.08  -0.15  -0.03    -0.09  -0.02   0.12    -0.08   0.05   0.13
    24   1     0.12  -0.20  -0.05    -0.08  -0.06   0.11    -0.10   0.09   0.15
    25   6    -0.00  -0.04  -0.02    -0.12   0.01   0.12    -0.06  -0.02   0.10
    26   1    -0.06   0.02   0.00    -0.16   0.04   0.14    -0.07  -0.08   0.10
    27   6    -0.04   0.03  -0.02    -0.10   0.01   0.06    -0.04  -0.03   0.02
    28   8    -0.10   0.12  -0.01    -0.15   0.01   0.03    -0.05  -0.13  -0.05
    29   6     0.08  -0.15  -0.01    -0.09  -0.03   0.08    -0.08   0.04   0.11
    30   6     0.05  -0.11  -0.00    -0.12  -0.07   0.04    -0.10  -0.00   0.06
    31   6     0.07  -0.14  -0.01    -0.05  -0.00   0.06    -0.03   0.06   0.08
    32   6     0.00  -0.02   0.02    -0.10  -0.08  -0.02    -0.07  -0.05  -0.01
    33   1     0.06  -0.12  -0.00    -0.15  -0.09   0.06    -0.14  -0.01   0.09
    34   6     0.03  -0.06   0.01    -0.03  -0.01   0.00     0.00   0.02   0.01
    35   1     0.11  -0.20  -0.02    -0.02   0.02   0.09    -0.01   0.10   0.11
    36   6    -0.02   0.02   0.03    -0.06  -0.05  -0.04    -0.01  -0.05  -0.04
    37   1    -0.03   0.03   0.04    -0.12  -0.11  -0.05    -0.08  -0.10  -0.04
    38   8    -0.09   0.15   0.06    -0.05  -0.06  -0.10     0.03  -0.10  -0.12
    39   1    -0.13   0.20   0.08    -0.07  -0.08  -0.13     0.01  -0.14  -0.15
    40   8     0.00  -0.04   0.02     0.01   0.02  -0.02     0.06   0.04  -0.01
    41   6     0.16   0.19  -0.00     0.03   0.04  -0.05     0.08   0.07  -0.04
    42   1     0.39   0.16  -0.12     0.04   0.03  -0.03     0.09   0.06  -0.03
    43   1     0.09   0.15   0.02     0.06   0.05  -0.06     0.10   0.08  -0.05
    44   1     0.12   0.42   0.07     0.01   0.04  -0.08     0.05   0.08  -0.06
    45   6    -0.02   0.01  -0.03    -0.01  -0.00   0.03     0.01   0.05  -0.00
    46   1    -0.01   0.02  -0.03     0.02  -0.06   0.08     0.03   0.07   0.02
    47   1    -0.01   0.01  -0.04    -0.04   0.03  -0.00    -0.00   0.07  -0.07
    48   8     0.01  -0.01   0.04    -0.12   0.20   0.05     0.20  -0.19  -0.04
    49   8     0.02  -0.05   0.03     0.11  -0.03   0.07    -0.07   0.04  -0.09
    50   7     0.00  -0.01   0.02     0.01   0.08   0.05     0.03  -0.05  -0.07
                     10                     11                     12
                      A                      A                      A
 Frequencies --     74.2222                85.6994                94.3660
 Red. masses --      3.5358                 4.5212                 8.7501
 Frc consts  --      0.0115                 0.0196                 0.0459
 IR Inten    --     10.1517                13.3243                 2.5045
  Atom  AN      X      Y      Z        X      Y      Z        X      Y      Z
     1   6    -0.01  -0.02   0.03    -0.01   0.03   0.03    -0.03   0.05  -0.14
     2   1    -0.00  -0.02   0.03    -0.02   0.03   0.04    -0.07   0.04  -0.12
     3   6    -0.03  -0.02   0.01     0.01   0.00   0.03     0.05  -0.01  -0.12
     4   1    -0.04  -0.03   0.02     0.03  -0.00   0.00     0.11  -0.01  -0.17
     5   6    -0.04  -0.01  -0.04    -0.01  -0.05   0.00     0.06  -0.11  -0.05
     6   8    -0.10  -0.02  -0.09    -0.02  -0.11  -0.06     0.11  -0.20  -0.10
     7   6    -0.00  -0.01   0.04    -0.02   0.03   0.02    -0.04   0.06  -0.16
     8   6    -0.01   0.01   0.05    -0.04  -0.02  -0.08    -0.01   0.05  -0.15
     9   6     0.00  -0.01   0.01    -0.02   0.05   0.04    -0.07   0.06  -0.09
    10   6    -0.02   0.02   0.03    -0.06  -0.06  -0.11     0.02   0.05  -0.04
    11   1    -0.02   0.01   0.08    -0.05  -0.04  -0.13     0.00   0.04  -0.19
    12   6    -0.00  -0.01  -0.01    -0.01   0.06   0.10    -0.08   0.02  -0.07
    13   1     0.02  -0.02   0.01    -0.06   0.02   0.03    -0.05   0.15  -0.05
    14   6    -0.01   0.01  -0.01    -0.04  -0.01  -0.02    -0.00   0.05   0.04
    15   1    -0.03   0.03   0.04    -0.08  -0.11  -0.20     0.07   0.05   0.00
    16   8    -0.02   0.01  -0.04    -0.04  -0.04  -0.02     0.04   0.09   0.23
    17   1    -0.03   0.02  -0.03    -0.04  -0.08  -0.08     0.09   0.10   0.27
    18   8     0.00  -0.02  -0.04     0.04   0.13   0.22    -0.13   0.00  -0.05
    19   6     0.05   0.04   0.00    -0.20  -0.10  -0.03    -0.04   0.05   0.09
    20   1     0.02   0.07   0.05    -0.06  -0.17  -0.37    -0.08   0.05   0.24
    21   1     0.07   0.03  -0.02    -0.20  -0.05   0.09    -0.08   0.03   0.05
    22   1     0.10   0.06  -0.01    -0.52  -0.24   0.01     0.12   0.10   0.07
    23   6    -0.05   0.10   0.03     0.01   0.03  -0.04     0.04   0.01  -0.00
    24   1    -0.06   0.14   0.04    -0.01   0.05  -0.03     0.01   0.03   0.01
    25   6    -0.04   0.04   0.00     0.05  -0.01  -0.03     0.07  -0.04  -0.00
    26   1    -0.04  -0.01  -0.00     0.09  -0.03  -0.04     0.11  -0.06  -0.02
    27   6    -0.01  -0.02  -0.04     0.05  -0.03   0.01     0.09  -0.09   0.03
    28   8     0.03  -0.11  -0.08     0.11  -0.07   0.03     0.16  -0.15   0.05
    29   6    -0.04   0.07   0.04     0.01   0.03  -0.03     0.03   0.03   0.00
    30   6    -0.02   0.05   0.04     0.03   0.04  -0.01     0.03   0.04   0.01
    31   6    -0.02   0.03   0.03     0.00   0.00  -0.02     0.03   0.02   0.00
    32   6     0.02  -0.02   0.02     0.03   0.02   0.01     0.04   0.03   0.01
    33   1    -0.03   0.08   0.04     0.04   0.06  -0.02     0.04   0.04   0.01
    34   6     0.02  -0.03   0.02     0.01  -0.01  -0.00     0.03   0.02   0.01
    35   1    -0.03   0.05   0.04    -0.01   0.00  -0.03     0.03   0.03   0.00
    36   6     0.04  -0.06   0.01     0.02  -0.00   0.01     0.04   0.02   0.01
    37   1     0.03  -0.04   0.02     0.05   0.03   0.02     0.04   0.03   0.01
    38   8     0.07  -0.12  -0.01     0.03  -0.01   0.03     0.05   0.01   0.01
    39   1     0.07  -0.13  -0.01     0.04  -0.00   0.04     0.05   0.00   0.01
    40   8     0.00  -0.06   0.03    -0.02  -0.03   0.01     0.03   0.02   0.01
    41   6     0.19   0.20  -0.01     0.02   0.03   0.01     0.01  -0.00   0.02
    42   1     0.47   0.19  -0.25     0.10   0.03  -0.07    -0.01  -0.00   0.04
    43   1     0.04   0.07   0.05    -0.04  -0.02   0.04     0.02   0.01   0.02
    44   1     0.17   0.54   0.15     0.03   0.13   0.08     0.02  -0.04   0.01
    45   6     0.00   0.01  -0.04    -0.01  -0.05   0.04     0.02  -0.11   0.06
    46   1     0.01   0.04  -0.04    -0.03  -0.07   0.02    -0.00  -0.18   0.05
    47   1     0.02  -0.01  -0.06    -0.02  -0.04   0.08    -0.00  -0.09   0.12
    48   8    -0.03   0.01   0.01     0.05  -0.01  -0.08    -0.20   0.15   0.14
    49   8     0.00  -0.02   0.01     0.02   0.14  -0.03    -0.20  -0.10   0.04
    50   7    -0.01  -0.01   0.01     0.02   0.06  -0.03    -0.16   0.03   0.05
                     13                     14                     15
                      A                      A                      A
 Frequencies --    100.5501               128.1336               130.5698
 Red. masses --      4.1927                 6.5242                 3.6286
 Frc consts  --      0.0250                 0.0631                 0.0364
 IR Inten    --      1.9141                 3.8383                 1.2713
  Atom  AN      X      Y      Z        X      Y      Z        X      Y      Z
     1   6    -0.01  -0.01   0.02    -0.08   0.05  -0.09     0.01   0.00   0.01
     2   1    -0.01  -0.02   0.01    -0.05   0.10   0.01     0.01  -0.01  -0.01
     3   6    -0.03  -0.01   0.02    -0.10  -0.04  -0.19     0.02   0.02   0.03
     4   1    -0.05  -0.01   0.03    -0.11  -0.09  -0.32     0.02   0.03   0.05
     5   6    -0.05   0.01  -0.06    -0.02  -0.03  -0.03     0.01   0.01   0.02
     6   8    -0.14  -0.00  -0.15     0.07  -0.01   0.06     0.01   0.01   0.02
     7   6    -0.02  -0.01   0.03    -0.06   0.08  -0.05     0.01  -0.01   0.00
     8   6    -0.03  -0.01   0.01     0.03   0.16   0.12    -0.00  -0.02  -0.02
     9   6    -0.01  -0.00   0.02    -0.07   0.08  -0.02     0.01  -0.01  -0.00
    10   6    -0.04  -0.00  -0.00     0.04   0.14   0.15    -0.00  -0.02  -0.02
    11   1    -0.05  -0.01   0.01     0.09   0.21   0.21    -0.01  -0.03  -0.03
    12   6    -0.01   0.01   0.02    -0.07   0.06   0.01     0.01  -0.01  -0.00
    13   1    -0.01  -0.02   0.01    -0.10   0.12  -0.01     0.01  -0.01  -0.00
    14   6    -0.03   0.01   0.00    -0.04   0.03  -0.00     0.01  -0.01  -0.00
    15   1    -0.05  -0.00  -0.02     0.10   0.18   0.24    -0.01  -0.03  -0.04
    16   8    -0.03   0.02  -0.01    -0.08  -0.11  -0.18     0.02   0.01   0.03
    17   1    -0.04   0.02  -0.01    -0.05  -0.11  -0.15     0.01   0.01   0.02
    18   8     0.01   0.02   0.03    -0.18  -0.01  -0.03     0.02  -0.01  -0.00
    19   6    -0.02   0.01  -0.01    -0.15  -0.04   0.09     0.02   0.01  -0.01
    20   1    -0.00   0.01  -0.06    -0.15  -0.07   0.18     0.02   0.01  -0.00
    21   1    -0.00   0.02   0.00    -0.22  -0.04   0.11     0.03   0.00  -0.02
    22   1    -0.06  -0.00  -0.00    -0.04  -0.06   0.08     0.02   0.02  -0.01
    23   6     0.05  -0.05   0.10     0.01   0.01   0.00    -0.01   0.03  -0.01
    24   1     0.12  -0.09   0.08     0.03  -0.02  -0.01     0.11  -0.20  -0.07
    25   6    -0.04  -0.01   0.06    -0.01   0.04   0.00    -0.14   0.26   0.05
    26   1    -0.13   0.01   0.09    -0.03   0.07   0.01    -0.25   0.49   0.10
    27   6    -0.01  -0.03  -0.05     0.01  -0.02   0.01    -0.02   0.04   0.02
    28   8    -0.02  -0.13  -0.12     0.09  -0.11   0.01     0.09  -0.12  -0.01
    29   6     0.05  -0.05   0.11     0.02  -0.00   0.01    -0.00  -0.00  -0.02
    30   6     0.02  -0.08   0.07     0.03  -0.02   0.00     0.09  -0.13  -0.05
    31   6     0.09   0.01   0.10     0.02   0.01   0.01    -0.05   0.05   0.01
    32   6     0.00  -0.03   0.01     0.03  -0.01   0.00     0.07  -0.11  -0.02
    33   1    -0.00  -0.13   0.08     0.04  -0.03  -0.00     0.15  -0.23  -0.08
    34   6     0.07   0.06   0.03     0.02   0.01   0.01    -0.04   0.03   0.01
    35   1     0.13   0.02   0.12     0.02   0.01   0.01    -0.06   0.07   0.01
    36   6     0.03   0.04  -0.00     0.02   0.01   0.01    -0.02   0.01   0.02
    37   1    -0.04  -0.05  -0.02     0.03  -0.02   0.00     0.12  -0.18  -0.04
    38   8     0.01   0.09  -0.05     0.01   0.03   0.02    -0.07   0.10   0.07
    39   1    -0.02   0.06  -0.08     0.01   0.03   0.02    -0.04   0.07   0.06
    40   8     0.15   0.13  -0.00     0.03   0.01   0.00    -0.02  -0.05   0.01
    41   6     0.02  -0.07   0.00     0.02  -0.01  -0.00    -0.00  -0.06  -0.12
    42   1    -0.25  -0.08   0.36    -0.02  -0.01   0.06     0.04  -0.02  -0.38
    43   1     0.26   0.17  -0.10     0.06   0.04  -0.02    -0.05  -0.29  -0.08
    44   1    -0.04  -0.45  -0.26    -0.00  -0.07  -0.06     0.02   0.12  -0.01
    45   6     0.03   0.04  -0.07    -0.05  -0.02   0.03    -0.01   0.01   0.02
    46   1     0.06   0.11  -0.07    -0.06  -0.06   0.02    -0.01  -0.01   0.03
    47   1     0.07   0.01  -0.13    -0.06  -0.01   0.07    -0.02   0.01   0.03
    48   8    -0.01  -0.00  -0.01     0.13  -0.07   0.01    -0.01   0.00  -0.00
    49   8    -0.01   0.03  -0.00     0.20  -0.11   0.03    -0.02   0.01  -0.01
    50   7    -0.01   0.01  -0.00     0.08  -0.02   0.01    -0.00  -0.00  -0.00
                     16                     17                     18
                      A                      A                      A
 Frequencies --    150.3094               151.7539               162.2117
 Red. masses --      2.2968                 5.1414                 1.5627
 Frc consts  --      0.0306                 0.0698                 0.0242
 IR Inten    --      5.2135                 4.9419                 1.5850
  Atom  AN      X      Y      Z        X      Y      Z        X      Y      Z
     1   6     0.01   0.01   0.01    -0.05  -0.14  -0.09    -0.00  -0.00  -0.00
     2   1     0.00   0.00  -0.01    -0.06  -0.14  -0.07    -0.00  -0.00  -0.00
     3   6     0.01   0.02   0.01    -0.07  -0.20  -0.17    -0.00  -0.01  -0.01
     4   1     0.01   0.02   0.02    -0.07  -0.20  -0.18    -0.00  -0.01  -0.01
     5   6    -0.00   0.01   0.01     0.00  -0.11  -0.05     0.00   0.00  -0.00
     6   8     0.01   0.00   0.02     0.11   0.03   0.18    -0.00   0.01  -0.00
     7   6     0.00  -0.00   0.00     0.01  -0.04   0.02    -0.00  -0.00  -0.00
     8   6     0.00  -0.01  -0.01     0.01   0.01   0.09     0.00   0.01   0.01
     9   6     0.01  -0.00   0.00     0.04  -0.02   0.02    -0.00  -0.00  -0.00
    10   6     0.00  -0.01  -0.01     0.01   0.03   0.07     0.00   0.01   0.01
    11   1    -0.00  -0.02  -0.02     0.00   0.01   0.12     0.00   0.01   0.01
    12   6     0.01  -0.01  -0.00     0.04   0.00   0.02    -0.00   0.00  -0.00
    13   1     0.01  -0.01   0.00     0.04  -0.02   0.03    -0.00  -0.00  -0.00
    14   6     0.01  -0.01  -0.00     0.01   0.00  -0.00    -0.00   0.00  -0.00
    15   1    -0.00  -0.02  -0.02     0.01   0.06   0.11     0.00   0.01   0.01
    16   8     0.01   0.00   0.01    -0.01   0.00  -0.08    -0.00   0.00  -0.01
    17   1     0.01  -0.00   0.01    -0.02   0.02  -0.06    -0.00   0.00  -0.00
    18   8     0.01  -0.01  -0.01     0.12   0.07   0.11     0.00   0.01   0.01
    19   6     0.01   0.00  -0.01     0.02  -0.02  -0.01    -0.00  -0.00   0.00
    20   1     0.01  -0.00   0.02     0.05   0.08  -0.36    -0.00   0.01  -0.03
    21   1     0.01  -0.01  -0.03     0.16   0.09   0.23     0.01   0.01   0.03
    22   1     0.03   0.03  -0.01    -0.24  -0.30   0.03    -0.02  -0.03   0.01
    23   6    -0.01   0.00  -0.03     0.02  -0.01  -0.02     0.03  -0.05   0.02
    24   1     0.05  -0.12  -0.06     0.10  -0.10  -0.06     0.08  -0.13  -0.00
    25   6    -0.09   0.16   0.01    -0.06   0.07  -0.03    -0.03   0.04   0.03
    26   1    -0.16   0.31   0.04    -0.16   0.18   0.00    -0.09   0.12   0.06
    27   6    -0.02   0.03   0.01    -0.02  -0.01  -0.07    -0.01   0.00   0.00
    28   8     0.05  -0.06   0.01    -0.06   0.05  -0.06    -0.01  -0.03  -0.02
    29   6     0.01  -0.03  -0.04     0.00   0.02   0.02     0.03  -0.03   0.01
    30   6    -0.04   0.06  -0.01     0.01   0.01   0.02    -0.03   0.03   0.01
    31   6     0.05  -0.12  -0.06    -0.00   0.03   0.02     0.06  -0.04  -0.01
    32   6    -0.04   0.06   0.00     0.01   0.01   0.01    -0.04   0.05  -0.01
    33   1    -0.08   0.14   0.01     0.02   0.00   0.01    -0.06   0.05   0.03
    34   6     0.03  -0.09  -0.04     0.00   0.02   0.02     0.04   0.01  -0.02
    35   1     0.09  -0.19  -0.08     0.00   0.03   0.02     0.11  -0.08  -0.01
    36   6     0.00  -0.02  -0.02     0.01   0.01   0.01     0.01   0.02  -0.03
    37   1    -0.07   0.14   0.03     0.02   0.00   0.01    -0.08   0.09  -0.01
[...]
 Vibration    27          0.802              1.775              1.783
 Vibration    28          0.810              1.757              1.705
 Vibration    29          0.813              1.749              1.673
 Vibration    30          0.824              1.720              1.567
 Vibration    31          0.825              1.718              1.560
 Vibration    32          0.841              1.679              1.432
 Vibration    33          0.849              1.660              1.376
 Vibration    34          0.855              1.646              1.338
 Vibration    35          0.862              1.629              1.294
 Vibration    36          0.866              1.620              1.272
 Vibration    37          0.882              1.583              1.182
 Vibration    38          0.896              1.551              1.115
 Vibration    39          0.911              1.518              1.048
 Vibration    40          0.931              1.475              0.971
 Vibration    41          0.939              1.458              0.942
 Vibration    42          0.961              1.410              0.867
 Vibration    43          0.969              1.393              0.842
 Vibration    44          0.993              1.345              0.774
 Vibration    45          1.008              1.316              0.736
 Vibration    46          1.017              1.298              0.715
 Vibration    47          1.020              1.292              0.707
 Vibration    48          1.035              1.263              0.673
 Vibration    49          1.051              1.234              0.640
 Vibration    50          1.061              1.214              0.619
 Vibration    51          1.093              1.157              0.560
 Vibration    52          1.121              1.107              0.514
 Vibration    53          1.151              1.058              0.471
 Vibration    54          1.171              1.025              0.444
 Vibration    55          1.184              1.005              0.428
                       Q            Log10(Q)             Ln(Q)
 Total Bot       0.203349-109       -109.691759       -252.574609
 Total V=0       0.654863D+34         33.816151         77.864564
 Vib (Bot)       0.438202-126       -126.358325       -290.950796
 Vib (Bot)    1  0.369823D+02          1.567994          3.610438
 Vib (Bot)    2  0.186017D+02          1.269553          2.923254
 Vib (Bot)    3  0.137796D+02          1.139237          2.623189
 Vib (Bot)    4  0.930319D+01          0.968632          2.230357
 Vib (Bot)    5  0.774289D+01          0.888903          2.046775
 Vib (Bot)    6  0.518912D+01          0.715094          1.646564
 Vib (Bot)    7  0.486312D+01          0.686915          1.581680
 Vib (Bot)    8  0.416572D+01          0.619690          1.426889
 Vib (Bot)    9  0.382305D+01          0.582410          1.341050
 Vib (Bot)   10  0.338840D+01          0.529995          1.220359
 Vib (Bot)   11  0.293110D+01          0.467030          1.075377
 Vib (Bot)   12  0.265920D+01          0.424750          0.978024
 Vib (Bot)   13  0.249369D+01          0.396842          0.913763
 Vib (Bot)   14  0.194884D+01          0.289776          0.667234
 Vib (Bot)   15  0.191169D+01          0.281418          0.647989
 Vib (Bot)   16  0.165466D+01          0.218708          0.503593
 Vib (Bot)   17  0.163844D+01          0.214431          0.493746
 Vib (Bot)   18  0.152954D+01          0.184562          0.424970
 Vib (Bot)   19  0.144386D+01          0.159527          0.367323
 Vib (Bot)   20  0.130454D+01          0.115459          0.265854
 Vib (Bot)   21  0.124525D+01          0.095257          0.219336
 Vib (Bot)   22  0.112952D+01          0.052895          0.121795
 Vib (Bot)   23  0.104342D+01          0.018460          0.042506
 Vib (Bot)   24  0.992934D+00         -0.003079         -0.007091
 Vib (Bot)   25  0.959579D+00         -0.017919         -0.041260
 Vib (Bot)   26  0.892506D+00         -0.049389         -0.113722
 Vib (Bot)   27  0.807127D+00         -0.093058         -0.214274
 Vib (Bot)   28  0.768049D+00         -0.114611         -0.263902
 Vib (Bot)   29  0.752685D+00         -0.123387         -0.284108
 Vib (Bot)   30  0.702123D+00         -0.153587         -0.353647
 Vib (Bot)   31  0.698858D+00         -0.155611         -0.358308
 Vib (Bot)   32  0.640795D+00         -0.193281         -0.445046
 Vib (Bot)   33  0.616097D+00         -0.210351         -0.484351
 Vib (Bot)   34  0.599342D+00         -0.222326         -0.511924
 Vib (Bot)   35  0.580465D+00         -0.236224         -0.543926
 Vib (Bot)   36  0.571108D+00         -0.243282         -0.560177
 Vib (Bot)   37  0.533847D+00         -0.272583         -0.627647
 Vib (Bot)   38  0.506149D+00         -0.295722         -0.680925
 Vib (Bot)   39  0.479360D+00         -0.319338         -0.735304
 Vib (Bot)   40  0.448787D+00         -0.347959         -0.801206
 Vib (Bot)   41  0.437494D+00         -0.359028         -0.826693
 Vib (Bot)   42  0.408322D+00         -0.388997         -0.895699
 Vib (Bot)   43  0.398616D+00         -0.399445         -0.919756
 Vib (Bot)   44  0.372858D+00         -0.428456         -0.986557
 Vib (Bot)   45  0.358417D+00         -0.445612         -1.026059
 Vib (Bot)   46  0.350159D+00         -0.455735         -1.049368
 Vib (Bot)   47  0.347406D+00         -0.459162         -1.057260
 Vib (Bot)   48  0.334487D+00         -0.475621         -1.095157
 Vib (Bot)   49  0.321861D+00         -0.492332         -1.133636
 Vib (Bot)   50  0.313889D+00         -0.503223         -1.158715
 Vib (Bot)   51  0.291525D+00         -0.535325         -1.232630
 Vib (Bot)   52  0.273803D+00         -0.562562         -1.295346
 Vib (Bot)   53  0.257320D+00         -0.589527         -1.357436
 Vib (Bot)   54  0.246700D+00         -0.607831         -1.399584
 Vib (Bot)   55  0.240470D+00         -0.618939         -1.425159
 Vib (V=0)       0.141119D+18         17.149584         39.488377
 Vib (V=0)    1  0.374856D+02          1.573865          3.623958
 Vib (V=0)    2  0.191084D+02          1.281225          2.950130
 Vib (V=0)    3  0.142887D+02          1.154992          2.659467
 Vib (V=0)    4  0.981661D+01          0.991962          2.284076
 Vib (V=0)    5  0.825902D+01          0.916928          2.111305
 Vib (V=0)    6  0.571315D+01          0.756876          1.742771
 Vib (V=0)    7  0.538876D+01          0.731489          1.684315
 Vib (V=0)    8  0.469562D+01          0.671693          1.546630
 Vib (V=0)    9  0.435561D+01          0.639049          1.471465
 Vib (V=0)   10  0.392510D+01          0.593850          1.367391
 Vib (V=0)   11  0.347344D+01          0.540760          1.245145
 Vib (V=0)   12  0.320580D+01          0.505936          1.164960
 Vib (V=0)   13  0.304332D+01          0.483348          1.112949
 Vib (V=0)   14  0.251196D+01          0.400012          0.921062
 Vib (V=0)   15  0.247600D+01          0.393750          0.906644
 Vib (V=0)   16  0.222855D+01          0.348022          0.801351
 Vib (V=0)   17  0.221304D+01          0.344988          0.794365
 Vib (V=0)   18  0.210919D+01          0.324116          0.746306
 Vib (V=0)   19  0.202799D+01          0.307065          0.707044
 Vib (V=0)   20  0.189708D+01          0.278086          0.640317
 Vib (V=0)   21  0.184188D+01          0.265262          0.610788
 Vib (V=0)   22  0.173524D+01          0.239360          0.551146
 Vib (V=0)   23  0.165703D+01          0.219332          0.505030
 Vib (V=0)   24  0.161172D+01          0.207289          0.477301
 Vib (V=0)   25  0.158203D+01          0.199215          0.458710
 Vib (V=0)   26  0.152302D+01          0.182705          0.420694
 Vib (V=0)   27  0.144945D+01          0.161203          0.371184
 Vib (V=0)   28  0.141646D+01          0.151204          0.348161
 Vib (V=0)   29  0.140362D+01          0.147251          0.339057
 Vib (V=0)   30  0.136196D+01          0.134165          0.308925
 Vib (V=0)   31  0.135930D+01          0.133316          0.306972
 Vib (V=0)   32  0.131278D+01          0.118193          0.272150
 Vib (V=0)   33  0.129346D+01          0.111752          0.257319
 Vib (V=0)   34  0.128052D+01          0.107386          0.247266
 Vib (V=0)   35  0.126612D+01          0.102475          0.235957
 Vib (V=0)   36  0.125905D+01          0.100045          0.230361
 Vib (V=0)   37  0.123143D+01          0.090410          0.208177
 Vib (V=0)   38  0.121147D+01          0.083312          0.191833
 Vib (V=0)   39  0.119267D+01          0.076519          0.176191
 Vib (V=0)   40  0.117187D+01          0.068880          0.158601
 Vib (V=0)   41  0.116438D+01          0.066095          0.152189
 Vib (V=0)   42  0.114554D+01          0.059012          0.135879
 Vib (V=0)   43  0.113945D+01          0.056695          0.130545
 Vib (V=0)   44  0.112372D+01          0.050657          0.116642
 Vib (V=0)   45  0.111519D+01          0.047350          0.109028
 Vib (V=0)   46  0.111042D+01          0.045487          0.104737
 Vib (V=0)   47  0.110884D+01          0.044871          0.103318
 Vib (V=0)   48  0.110157D+01          0.042011          0.096733
 Vib (V=0)   49  0.109464D+01          0.039271          0.090424
 Vib (V=0)   50  0.109036D+01          0.037570          0.086509
 Vib (V=0)   51  0.107878D+01          0.032933          0.075831
 Vib (V=0)   52  0.107006D+01          0.029408          0.067714
 Vib (V=0)   53  0.106233D+01          0.026259          0.060463
 Vib (V=0)   54  0.105755D+01          0.024300          0.055954
 Vib (V=0)   55  0.105482D+01          0.023179          0.053371
 Electronic      0.200000D+01          0.301030          0.693147
 Translational   0.542337D+09          8.734270         20.111399
 Rotational      0.427826D+08          7.631267         17.571642
 ***** Axes restored to original set *****
 -------------------------------------------------------------------
 Center     Atomic                   Forces (Hartrees/Bohr)
 Number     Number              X              Y              Z
 -------------------------------------------------------------------
      1        6           0.000047303    0.000027215    0.000017290
      2        1          -0.000039729   -0.000043805   -0.000000285
      3        6          -0.000005711    0.000007321   -0.000038136
      4        1           0.000068653    0.000044847    0.000018172
      5        6          -0.000043343   -0.000046661    0.000035614
      6        8           0.000058417   -0.000067087    0.000003200
      7        6           0.000005355    0.000016171    0.000003859
      8        6          -0.000004598    0.000020807    0.000008084
      9        6           0.000004397   -0.000010469   -0.000015878
     10        6          -0.000025305   -0.000014863   -0.000029484
     11        1           0.000024333   -0.000010074   -0.000015572
     12        6          -0.000004446   -0.000042484    0.000024437
     13        1          -0.000053798   -0.000056848    0.000009561
     14        6           0.000044959    0.000040453   -0.000013852
     15        1          -0.000014012   -0.000040470    0.000065380
     16        8           0.000050897    0.000037997   -0.000038251
     17        1          -0.000011545   -0.000014688    0.000010774
     18        8          -0.000036091    0.000050679   -0.000020413
     19        6          -0.000012962    0.000021882    0.000016970
     20        1          -0.000010489    0.000019164   -0.000016780
     21        1          -0.000005283   -0.000008801   -0.000023095
     22        1          -0.000014327   -0.000011376    0.000015974
     23        6           0.000064826    0.000019214   -0.000014134
     24        1          -0.000010603   -0.000027132   -0.000081958
     25        6          -0.000006144   -0.000024807   -0.000015212
     26        1          -0.000061744    0.000010135   -0.000024793
     27        6           0.000082519    0.000071021   -0.000011696
     28        8          -0.000039294   -0.000059478    0.000069660
     29        6           0.000007287    0.000005799    0.000010741
     30        6           0.000018113   -0.000014604   -0.000004495
     31        6          -0.000015379   -0.000019420    0.000038793
     32        6           0.000048955   -0.000003909    0.000024785
     33        1          -0.000043276    0.000003079    0.000019307
     34        6          -0.000013846    0.000030044   -0.000020876
     35        1           0.000046657   -0.000051322   -0.000011517
     36        6          -0.000038773   -0.000045033    0.000012719
     37        1           0.000014562    0.000016499    0.000071180
     38        8          -0.000002493   -0.000013581   -0.000085637
     39        1           0.000015396    0.000008595   -0.000004059
     40        8          -0.000000407    0.000028152    0.000004759
     41        6           0.000021165   -0.000010987   -0.000007969
     42        1          -0.000014443    0.000007505   -0.000005314
     43        1           0.000002044    0.000003710    0.000010261
     44        1          -0.000015356    0.000022091    0.000017202
     45        6          -0.000012285   -0.000002200    0.000009655
     46        1          -0.000061348    0.000070399    0.000019647
     47        1           0.000017304    0.000054543    0.000014793
     48        8          -0.000001678    0.000043451   -0.000050515
     49        8           0.000007045   -0.000025473   -0.000002418
     50        7          -0.000031479   -0.000015201   -0.000000477
 -------------------------------------------------------------------
 Cartesian Forces:  Max     0.000085637 RMS     0.000032431
 FormGI is forming the generalized inverse of G from B-inverse, IUseBI=4.

 ----------------------------------------------------------------------

 Electric dipole moment (input orientation):
 (Debye = 10**-18 statcoulomb cm , SI units = C m)
                  (au)            (Debye)         (10**-30 SI)
   Tot        0.201651D+01      0.512547D+01      0.170967D+02
   x          0.109544D+01      0.278432D+01      0.928749D+01
   y          0.124777D+01      0.317151D+01      0.105790D+02
   z          0.114430D+01      0.290852D+01      0.970178D+01

 Dipole polarizability, Alpha (input orientation).
 (esu units = cm**3 , SI units = C**2 m**2 J**-1)
 Alpha(0;0):
               (au)            (10**-24 esu)      (10**-40 SI)
   iso        0.474632D+03      0.703332D+02      0.782562D+02
   aniso      0.414924D+03      0.614854D+02      0.684117D+02
   xx         0.705223D+03      0.104503D+03      0.116276D+03
   yx         0.998827D+02      0.148011D+02      0.164684D+02
   yy         0.393856D+03      0.583635D+02      0.649381D+02
   zx        -0.677467D+02     -0.100390D+02     -0.111699D+02
   zy        -0.418362D+02     -0.619949D+01     -0.689787D+01
   zz         0.324817D+03      0.481329D+02      0.535550D+02

 ----------------------------------------------------------------------

 Dipole orientation:
     6          1.96866965         -0.70946521          4.39050493
     1          0.93053267          0.88510423          5.15861024
     6          0.68294971         -2.45835235          3.00618245
     1          1.63562423         -4.07840035          2.18581291
     6         -2.02779529         -2.38445689          2.48023064
     8         -3.01719760         -4.07222717          1.22897340
     6          4.60209523         -0.70675963          5.00194028
     6          5.58428656          1.15175295          6.57256799
     6          6.37475860         -2.68949797          4.02239905
     6          8.06585111          1.08189195          7.45220704
     1          4.35246226          2.66179192          7.21053424
     6          8.93327030         -2.78975266          5.19901257
     1          5.53366642         -4.56888233          3.96013490
     6          9.71457037         -0.93207237          6.85013442
     1          8.73641114          2.55524349          8.71318332
     8         12.05264181         -1.08825041          7.93578413
     1         12.31453284          0.32942605          9.06107734
     8         10.21744619         -4.83678977          4.39896028
     6         12.94513348         -4.92780352          4.40057151
     1         13.67667585         -5.15744761          6.30825313
     1         13.41617409         -6.57298622          3.25968109
     1         13.72353131         -3.22825998          3.53414365
     6         -6.10030752          0.86741328         -1.54812413
     1         -6.36235271         -0.95486293         -0.64110621
     6         -4.64702930          2.61533968         -0.38398438
     1         -4.31254659          4.45387926         -1.23365535
     6         -3.37731592          2.27159353          2.04944127
     8         -2.09047461          3.98209940          2.94539670
     6         -7.38799162          1.11965951         -3.96829378
     6         -8.77320817         -0.94554080         -4.89574161
     6         -7.32893325          3.34019084         -5.43592294
     6        -10.03038679         -0.81254718         -7.19669648
     1         -8.85179055         -2.68085446         -3.80616638
     6         -8.58055769          3.50200692         -7.72819217
     1         -6.28761625          4.99086841         -4.81216107
     6         -9.93857386          1.39287702         -8.63766386
     1        -11.07338985         -2.43625899         -7.89857604
     8        -11.09204262          1.61252868        -10.92169799
     1        -11.94320389          0.05059899        -11.35193007
     8         -8.36450994          5.66062136         -9.14527660
     6        -10.61043866          7.17664697         -9.32140380
     1        -11.20441656          7.80671057         -7.44257920
     1        -10.10875813          8.81332085        -10.46547825
     1        -12.14598453          6.14405016        -10.23332711
     6         -3.66202068         -0.21930189          3.50924784
     1         -5.61671453         -0.86667536          3.45366090
     1         -3.17327905          0.17793240          5.47117954
     8          5.79231342         -3.59144947         -0.43273794
     8          8.15816684         -0.37871088          0.47382593
     7          6.83285918         -2.17000663          1.04836837

 Electric dipole moment (dipole orientation):
 (Debye = 10**-18 statcoulomb cm , SI units = C m)
                  (au)            (Debye)         (10**-30 SI)
   Tot        0.201651D+01      0.512547D+01      0.170967D+02
   x          0.000000D+00      0.000000D+00      0.000000D+00
   y          0.000000D+00      0.000000D+00      0.000000D+00
   z          0.201651D+01      0.512547D+01      0.170967D+02

 Dipole polarizability, Alpha (dipole orientation).
 (esu units = cm**3 , SI units = C**2 m**2 J**-1)
 Alpha(0;0):
               (au)            (10**-24 esu)      (10**-40 SI)
   iso        0.474632D+03      0.703332D+02      0.782562D+02
   aniso      0.414924D+03      0.614854D+02      0.684117D+02
   xx         0.593871D+03      0.880026D+02      0.979161D+02
   yx         0.262185D+02      0.388518D+01      0.432285D+01
   yy         0.370515D+03      0.549046D+02      0.610896D+02
   zx         0.205056D+03      0.303862D+02      0.338092D+02
   zy         0.448145D+02      0.664082D+01      0.738891D+01
   zz         0.459510D+03      0.680924D+02      0.757630D+02

 ----------------------------------------------------------------------

 This type of calculation cannot be archived.


 ASKING DUMB QUESTIONS IS EASIER THAN CORECTING DUMB MISTAKES.
 Job cpu time:       0 days  0 hours  0 minutes  0.1 seconds.
 Elapsed time:       0 days  0 hours  0 minutes  0.7 seconds.
 File lengths (MBytes):  RWF=      6 Int=      0 D2E=      0 Chk=     58 Scr=      1
 Normal termination of Gaussian 16 at Thu Dec  5 10:58:04 2024.
