
                                 *****************
                                 * O   R   C   A *
                                 *****************

                                            #,                                       
                                            ###                                      
                                            ####                                     
                                            #####                                    
                                            ######                                   
                                           ########,                                 
                                     ,,################,,,,,                         
                               ,,#################################,,                 
                          ,,##########################################,,             
                       ,#########################################, ''#####,          
                    ,#############################################,,   '####,        
                  ,##################################################,,,,####,       
                ,###########''''           ''''###############################       
              ,#####''   ,,,,##########,,,,          '''####'''          '####       
            ,##' ,,,,###########################,,,                        '##       
           ' ,,###''''                  '''############,,,                           
         ,,##''                                '''############,,,,        ,,,,,,###''
      ,#''                                            '''#######################'''  
     '                                                          ''''####''''         
             ,#######,   #######,   ,#######,      ##                                
            ,#'     '#,  ##    ##  ,#'     '#,    #''#        ######   ,####,        
            ##       ##  ##   ,#'  ##            #'  '#       #        #'  '#        
            ##       ##  #######   ##           ,######,      #####,   #    #        
            '#,     ,#'  ##    ##  '#,     ,#' ,#      #,         ##   #,  ,#        
             '#######'   ##     ##  '#######'  #'      '#     #####' # '####'        



                  #######################################################
                  #                        -***-                        #
                  #          Department of theory and spectroscopy      #
                  #    Directorship and core code : Frank Neese         #
                  #        Max Planck Institute fuer Kohlenforschung    #
                  #                Kaiser Wilhelm Platz 1               #
                  #                 D-45470 Muelheim/Ruhr               #
                  #                      Germany                        #
                  #                                                     #
                  #                  All rights reserved                #
                  #                        -***-                        #
                  #######################################################


                         Program Version 5.0.4 -  RELEASE  -


 With contributions from (in alphabetic order):
   Daniel Aravena         : Magnetic Suceptibility
   Michael Atanasov       : Ab Initio Ligand Field Theory (pilot matlab implementation)
   Alexander A. Auer      : GIAO ZORA, VPT2 properties, NMR spectrum
   Ute Becker             : Parallelization
   Giovanni Bistoni       : ED, misc. LED, open-shell LED, HFLD
   Martin Brehm           : Molecular dynamics
   Dmytro Bykov           : SCF Hessian
   Vijay G. Chilkuri      : MRCI spin determinant printing, contributions to CSF-ICE
   Dipayan Datta          : RHF DLPNO-CCSD density
   Achintya Kumar Dutta   : EOM-CC, STEOM-CC
   Dmitry Ganyushin       : Spin-Orbit,Spin-Spin,Magnetic field MRCI
   Miquel Garcia          : C-PCM and meta-GGA Hessian, CC/C-PCM, Gaussian charge scheme
   Yang Guo               : DLPNO-NEVPT2, F12-NEVPT2, CIM, IAO-localization
   Andreas Hansen         : Spin unrestricted coupled pair/coupled cluster methods
   Benjamin Helmich-Paris : MC-RPA, TRAH-SCF, COSX integrals
   Lee Huntington         : MR-EOM, pCC
   Robert Izsak           : Overlap fitted RIJCOSX, COSX-SCS-MP3, EOM
   Marcus Kettner         : VPT2
   Christian Kollmar      : KDIIS, OOCD, Brueckner-CCSD(T), CCSD density, CASPT2, CASPT2-K
   Simone Kossmann        : Meta GGA functionals, TD-DFT gradient, OOMP2, MP2 Hessian
   Martin Krupicka        : Initial AUTO-CI
   Lucas Lang             : DCDCAS
   Marvin Lechner         : AUTO-CI (C++ implementation), FIC-MRCC
   Dagmar Lenk            : GEPOL surface, SMD
   Dimitrios Liakos       : Extrapolation schemes; Compound Job, initial MDCI parallelization
   Dimitrios Manganas     : Further ROCIS development; embedding schemes
   Dimitrios Pantazis     : SARC Basis sets
   Anastasios Papadopoulos: AUTO-CI, single reference methods and gradients
   Taras Petrenko         : DFT Hessian,TD-DFT gradient, ASA, ECA, R-Raman, ABS, FL, XAS/XES, NRVS
   Peter Pinski           : DLPNO-MP2, DLPNO-MP2 Gradient
   Christoph Reimann      : Effective Core Potentials
   Marius Retegan         : Local ZFS, SOC
   Christoph Riplinger    : Optimizer, TS searches, QM/MM, DLPNO-CCSD(T), (RO)-DLPNO pert. Triples
   Tobias Risthaus        : Range-separated hybrids, TD-DFT gradient, RPA, STAB
   Michael Roemelt        : Original ROCIS implementation
   Masaaki Saitow         : Open-shell DLPNO-CCSD energy and density
   Barbara Sandhoefer     : DKH picture change effects
   Avijit Sen             : IP-ROCIS
   Kantharuban Sivalingam : CASSCF convergence, NEVPT2, FIC-MRCI
   Bernardo de Souza      : ESD, SOC TD-DFT
   Georgi Stoychev        : AutoAux, RI-MP2 NMR, DLPNO-MP2 response
   Willem Van den Heuvel  : Paramagnetic NMR
   Boris Wezisla          : Elementary symmetry handling
   Frank Wennmohs         : Technical directorship


 We gratefully acknowledge several colleagues who have allowed us to
 interface, adapt or use parts of their codes:
   Stefan Grimme, W. Hujo, H. Kruse, P. Pracht,  : VdW corrections, initial TS optimization,
                  C. Bannwarth, S. Ehlert          DFT functionals, gCP, sTDA/sTD-DF
   Ed Valeev, F. Pavosevic, A. Kumar             : LibInt (2-el integral package), F12 methods
   Garnet Chan, S. Sharma, J. Yang, R. Olivares  : DMRG
   Ulf Ekstrom                                   : XCFun DFT Library
   Mihaly Kallay                                 : mrcc  (arbitrary order and MRCC methods)
   Jiri Pittner, Ondrej Demel                    : Mk-CCSD
   Frank Weinhold                                : gennbo (NPA and NBO analysis)
   Christopher J. Cramer and Donald G. Truhlar   : smd solvation model
   Lars Goerigk                                  : TD-DFT with DH, B97 family of functionals
   V. Asgeirsson, H. Jonsson                     : NEB implementation
   FAccTs GmbH                                   : IRC, NEB, NEB-TS, DLPNO-Multilevel, CI-OPT
                                                   MM, QMMM, 2- and 3-layer-ONIOM, Crystal-QMMM,
                                                   LR-CPCM, SF, NACMEs, symmetry and pop. for TD-DFT,
                                                   nearIR, NL-DFT gradient (VV10), updates on ESD,
                                                   ML-optimized integration grids
   S Lehtola, MJT Oliveira, MAL Marques          : LibXC Library
   Liviu Ungur et al                             : ANISO software


 Your calculation uses the libint2 library for the computation of 2-el integrals
 For citations please refer to: http://libint.valeyev.net

 Your ORCA version has been built with support for libXC version: 5.1.0
 For citations please refer to: https://tddft.org/programs/libxc/

 This ORCA versions uses:
   CBLAS   interface :  Fast vector & matrix operations
   LAPACKE interface :  Fast linear algebra routines
   SCALAPACK package :  Parallel linear algebra routines
   Shared memory     :  Shared parallel matrices
   BLAS/LAPACK       :  OpenBLAS 0.3.15  USE64BITINT DYNAMIC_ARCH NO_AFFINITY Zen SINGLE_THREADED
        Core in use  :  Zen
   Copyright (c) 2011-2014, The OpenBLAS Project


Your calculation utilizes the DFT-NL dispersion correction.
Cite in your paper:
Vydrov, O. A.; Van Voorhis, T. J. Chem. Phys. 2010, 133, 244103
Hujo, W.; Grimme, S. J. Chem. Theory Comput. 2011, 7, 3866 
   

================================================================================

----- Orbital basis set information -----
Your calculation utilizes the basis: 6-311+G(d)
   H, Li - Ne  : R. Krishnan, J. S. Binkley, R. Seeger and J. A. Pople, J. Chem. Phys. 72, 650 (1980).
   Na - Ar     : A. D. McLean and G. S. Chandler J. Chem. Phys. 72, 5639, (1980).
   K  - Ca     : J.-P. Blaudeau, M. P. McGrath, L. A. Curtiss and L. Radom, J. Chem. Phys. 107, 5016 (1997).
   Ga - Kr     : L. A. Curtiss, M. P. McGrath, J.-P. Blandeau, N. E. Davis, R. C. Binning and L. Radom, J. Chem. Phys. 103, 6104 (1995).
   Pol./Diff.
   H, Li - Cl  : T. Clark, J. Chandrasekhar and P. v. R. Schleyer, J. Comp. Chem. 4, 294 (1983).
   H - Ne      : M. J. Frisch, J. A. Pople and J. S. Binkley, J. Chem. Phys. 80, 3265 (1984).

----- AuxJ basis set information -----
Your calculation utilizes the auxiliary basis: def2/J
   F. Weigend, Phys. Chem. Chem. Phys. 8, 1057 (2006).

================================================================================
                                        WARNINGS
                       Please study these warnings very carefully!
================================================================================

Using LibXC functional ID 531 : wB97M-V exchange-correlation functional
[ 1]  N. Mardirossian and M. Head-Gordon, J. Chem. Phys. 144, 214110 (2016)
Using LibXC functional ID 531 : wB97M-V exchange-correlation functional
[ 1]  N. Mardirossian and M. Head-Gordon, J. Chem. Phys. 144, 214110 (2016)

WARNING: B97M-V or wB97M-V functional requested.
  ===> : libXC variant has now been activated.
         Any manually given DFX/HFX/RangeSep scaling parameters are IGNORED!

Your calculation utilizes LibXC
 by S Lehtola, C Steigemann, MJT Oliveira & MAL Marques
Please cite in your paper:
 S Lehtola, C Steigemann, MJT Oliveira & MAL Marques, SoftwareX, 7, (2018), 1.
   


WARNING: your system is open-shell and RHF/RKS was chosen
  ===> : WILL SWITCH to UHF/UKS


WARNING: Geometry Optimization
  ===> : Switching off AutoStart
         For restart on a previous wavefunction, please use MOREAD

WARNING: Analytic gradients for DFT-NL dispersion can only be done using the self-consistent method,
  ===>   Switching to SCNL

WARNING: Self-consistent DFT-NL dispersion not compatible with AutoTRAH.
  ===>   Switching AutoTRAH off


INFO   : the flag for use of the SHARK integral package has been found!

================================================================================
                                       INPUT FILE
================================================================================
NAME = CURCUMIN-OPT-FREQ-TS2-WB97M-V-6-311+G-D-298.inp
|  1> ! Opt NumFreq wb97M-V 6-311+G(d) CPCM RIJDX
|  2> %maxcore 2000
|  3> %cpcm
|  4> epsilon 7 # Dielectric constant
|  5> refrac 1.85341 # Refractive index
|  6> end
|  7> 
|  8> * xyz 0 2
|  9> C     -2.706063    0.255079   -0.199328
| 10> H     -2.413647    0.953447   -0.979154
| 11> C     -1.832525   -0.022744    0.792593
| 12> H     -2.091485   -0.724356    1.580170
| 13> C     -0.467715    0.508197    0.941029
| 14> O      0.251613    0.097224    1.860741
| 15> C     -4.044642   -0.291176   -0.370933
| 16> C     -4.807618    0.126191   -1.473548
| 17> C     -4.619859   -1.229182    0.510014
| 18> C     -6.091430   -0.359650   -1.682865
| 19> H     -4.390562    0.845057   -2.171226
| 20> C     -5.898547   -1.721223    0.315258
| 21> H     -4.080067   -1.586109    1.379766
| 22> C     -6.652908   -1.277794   -0.794985
| 23> H     -6.672929   -0.018250   -2.534810
| 24> O     -7.910772   -1.764431   -0.936055
| 25> H     -8.323230   -1.382950   -1.724018
| 26> O     -6.432848   -2.578340    1.239615
| 27> C     -6.646625   -3.926444    0.791993
| 28> H     -5.706524   -4.373609    0.452807
| 29> H     -7.015406   -4.475895    1.657622
| 30> H     -7.386988   -3.970264   -0.008702
| 31> C      2.695606    0.060859   -0.022810
| 32> H      1.786470   -0.526532   -0.090764
| 33> C      2.586543    1.408258    0.050277
| 34> H      3.464509    2.045912    0.085717
| 35> C      1.342031    2.150652   -0.021029
| 36> O      1.384803    3.391378   -0.160254
| 37> C      3.915058   -0.724381   -0.036111
| 38> C      3.812047   -2.122765   -0.133519
| 39> C      5.206478   -0.161500    0.035858
| 40> C      4.943503   -2.925505   -0.146594
| 41> H      2.831461   -2.583220   -0.191924
| 42> C      6.343265   -0.948854    0.025795
| 43> H      5.348594    0.909989    0.115219
| 44> C      6.214632   -2.354729   -0.061623
| 45> H      4.846963   -4.005805   -0.210855
| 46> O      7.351444   -3.090582   -0.044242
| 47> H      7.134844   -4.032121   -0.103107
| 48> O      7.569150   -0.356935    0.167124
| 49> C      8.420854   -0.399991   -0.989296
| 50> H      7.933525    0.078878   -1.844700
| 51> H      9.316487    0.160809   -0.724072
| 52> H      8.696302   -1.424360   -1.246130
| 53> C      0.002617    1.536218    0.012995
| 54> H     -0.727169    2.051671   -0.600355
| 55> H      0.074762    4.430422   -0.390325
| 56> O     -0.678967    5.055408   -0.568489
| 57> O     -2.105655    6.090339    0.628115
| 58> N     -1.192038    5.342529    0.685339
| 59> *
| 60> 
| 61>                          ****END OF INPUT****
================================================================================

                       *****************************
                       * Geometry Optimization Run *
                       *****************************

Geometry optimization settings:
Update method            Update   .... BFGS
Choice of coordinates    CoordSys .... Z-matrix Internals
Initial Hessian          InHess   .... Almoef's Model

Convergence Tolerances:
Energy Change            TolE     ....  5.0000e-06 Eh
Max. Gradient            TolMAXG  ....  3.0000e-04 Eh/bohr
RMS Gradient             TolRMSG  ....  1.0000e-04 Eh/bohr
Max. Displacement        TolMAXD  ....  4.0000e-03 bohr
RMS Displacement         TolRMSD  ....  2.0000e-03 bohr
Strict Convergence                ....  False
------------------------------------------------------------------------------
                        ORCA OPTIMIZATION COORDINATE SETUP
------------------------------------------------------------------------------

The optimization will be done in new redundant internal coordinates
Making redundant internal coordinates   ...  (new redundants) done
Evaluating the initial hessian          ...  (Almloef) done
Evaluating the coordinates              ...  done
Calculating the B-matrix                .... done
Calculating the G-matrix                .... done
Diagonalizing the G-matrix              .... done
Small eigenvalue found = 4.985e-04
Small eigenvalue found = 1.504e-03
Small eigenvalue found = 3.239e-03
Small eigenvalue found = 4.568e-03
Small eigenvalue found = 6.409e-03
Small eigenvalue found = 7.129e-03
Small eigenvalue found = 1.042e-02
Small eigenvalue found = 1.658e-02
Small eigenvalue found = 2.021e-02
Small eigenvalue found = 2.764e-02
Small eigenvalue found = 2.785e-02
The first mode is                       ....   83
The number of degrees of freedom        ....  144

    -----------------------------------------------------------------
                    Redundant Internal Coordinates


    -----------------------------------------------------------------
         Definition                    Initial Value    Approx d2E/dq
    -----------------------------------------------------------------
      1. B(H   1,C   0)                  1.0869         0.364223   
      2. B(C   2,C   0)                  1.3506         0.722062   
      3. B(H   3,C   2)                  1.0861         0.365306   
      4. B(C   4,C   2)                  1.4720         0.462372   
      5. B(O   5,C   4)                  1.2378         0.978739   
      6. B(C   6,C   0)                  1.4559         0.490460   
      7. B(C   7,C   6)                  1.4043         0.592799   
      8. B(C   8,C   6)                  1.4095         0.581523   
      9. B(C   9,C   7)                  1.3885         0.628169   
     10. B(H  10,C   7)                  1.0851         0.366630   
     11. B(C  11,C   8)                  1.3839         0.639042   
     12. B(H  12,C   8)                  1.0841         0.368010   
     13. B(C  13,C  11)                  1.4136         0.572862   
     14. B(C  13,C   9)                  1.3952         0.612979   
     15. B(H  14,C   9)                  1.0865         0.364746   
     16. B(O  15,C  13)                  1.3561         0.633872   
     17. B(H  16,O  15)                  0.9677         0.505366   
     18. B(O  17,C  11)                  1.3691         0.604151   
     19. B(C  18,O  17)                  1.4365         0.471773   
     20. B(H  19,C  18)                  1.0949         0.353683   
     21. B(H  20,C  18)                  1.0896         0.360641   
     22. B(H  21,C  18)                  1.0914         0.358243   
     23. B(H  23,C  22)                  1.0845         0.367429   
     24. B(C  24,C  22)                  1.3538         0.713715   
     25. B(H  25,C  24)                  1.0857         0.365872   
     26. B(C  26,C  24)                  1.4509         0.499590   
     27. B(O  27,C  26)                  1.2492         0.938513   
     28. B(C  28,C  22)                  1.4505         0.500350   
     29. B(C  29,C  28)                  1.4056         0.590100   
     30. B(C  30,C  28)                  1.4106         0.579268   
     31. B(C  31,C  29)                  1.3874         0.630896   
     32. B(H  32,C  29)                  1.0849         0.366928   
     33. B(C  33,C  30)                  1.3829         0.641393   
     34. B(H  34,C  30)                  1.0838         0.368420   
     35. B(C  35,C  33)                  1.4145         0.571121   
     36. B(C  35,C  31)                  1.3960         0.611209   
     37. B(H  36,C  31)                  1.0865         0.364751   
     38. B(O  37,C  35)                  1.3543         0.638022   
     39. B(H  38,O  37)                  0.9679         0.505039   
     40. B(O  39,C  33)                  1.3686         0.605309   
     41. B(C  40,O  39)                  1.4369         0.471104   
     42. B(H  41,C  40)                  1.0948         0.353845   
     43. B(H  42,C  40)                  1.0895         0.360769   
     44. B(H  43,C  40)                  1.0914         0.358245   
     45. B(C  44,C  26)                  1.4740         0.458881   
     46. B(C  44,C   4)                  1.4626         0.478478   
     47. B(H  45,C  44)                  1.0837         0.368486   
     48. B(H  46,O  27)                  1.6878         0.035873   
     49. B(O  47,H  46)                  0.9952         0.456857   
     50. B(N  49,O  48)                  1.1820         1.076015   
     51. B(N  49,O  47)                  1.3848         0.510804   
     52. A(H   1,C   0,C   6)          113.8202         0.339920   
     53. A(C   2,C   0,C   6)          127.1597         0.427722   
     54. A(H   1,C   0,C   2)          119.0187         0.362875   
     55. A(C   0,C   2,H   3)          120.7461         0.363059   
     56. A(C   0,C   2,C   4)          126.8382         0.423231   
     57. A(H   3,C   2,C   4)          112.3935         0.336759   
     58. A(O   5,C   4,C  44)          121.1932         0.446867   
     59. A(C   2,C   4,C  44)          119.1895         0.393507   
     60. A(C   2,C   4,O   5)          119.6034         0.444104   
     61. A(C   0,C   6,C   8)          123.4510         0.411527   
     62. A(C   0,C   6,C   7)          118.7223         0.412932   
     63. A(C   7,C   6,C   8)          117.8256         0.425662   
     64. A(C   9,C   7,H  10)          119.3560         0.354771   
     65. A(C   6,C   7,H  10)          119.5315         0.351308   
     66. A(C   6,C   7,C   9)          121.1115         0.431593   
     67. A(C   6,C   8,H  12)          121.1532         0.350392   
     68. A(C   6,C   8,C  11)          121.7173         0.431435   
     69. A(C  11,C   8,H  12)          117.1245         0.356032   
     70. A(C   7,C   9,C  13)          120.4249         0.434199   
     71. A(C  13,C   9,H  14)          119.3662         0.352994   
     72. A(C   7,C   9,H  14)          120.2049         0.354461   
     73. A(C   8,C  11,C  13)          119.4773         0.430274   
     74. A(C  13,C  11,O  17)          121.2227         0.423192   
     75. A(C   8,C  11,O  17)          119.2195         0.431564   
     76. A(C  11,C  13,O  15)          117.6536         0.426844   
     77. A(C   9,C  13,O  15)          122.9047         0.432059   
     78. A(C   9,C  13,C  11)          119.4379         0.427073   
     79. A(C  13,O  15,H  16)          109.7904         0.369713   
     80. A(C  11,O  17,C  18)          115.7985         0.406193   
     81. A(O  17,C  18,H  21)          111.5457         0.334754   
     82. A(H  19,C  18,H  20)          109.3156         0.290088   
     83. A(O  17,C  18,H  20)          106.0252         0.335125   
     84. A(O  17,C  18,H  19)          110.6120         0.334043   
     85. A(H  20,C  18,H  21)          109.4508         0.290672   
     86. A(H  19,C  18,H  21)          109.8027         0.289785   
     87. A(C  24,C  22,C  28)          127.3762         0.428362   
     88. A(H  23,C  22,C  28)          114.2668         0.341557   
     89. A(H  23,C  22,C  24)          118.3536         0.362698   
     90. A(H  25,C  24,C  26)          113.2494         0.341227   
     91. A(C  22,C  24,C  26)          125.1504         0.428245   
     92. A(C  22,C  24,H  25)          121.4115         0.362435   
     93. A(C  24,C  26,O  27)          118.9670         0.446965   
     94. A(O  27,C  26,C  44)          116.5953         0.440144   
     95. A(C  24,C  26,C  44)          124.4030         0.395970   
     96. A(C  26,O  27,H  46)          126.8720         0.257583   
     97. A(C  29,C  28,C  30)          117.8809         0.425019   
     98. A(C  22,C  28,C  30)          123.5873         0.412703   
     99. A(C  22,C  28,C  29)          118.5308         0.414063   
    100. A(C  31,C  29,H  32)          119.4100         0.355081   
    101. A(C  28,C  29,H  32)          119.4876         0.351085   
    102. A(C  28,C  29,C  31)          121.1007         0.431575   
    103. A(C  33,C  30,H  34)          117.1064         0.356321   
    104. A(C  28,C  30,H  34)          121.2182         0.350228   
    105. A(C  28,C  30,C  33)          121.6704         0.431418   
    106. A(C  35,C  31,H  36)          119.4090         0.352822   
    107. A(C  29,C  31,H  36)          120.2251         0.354722   
    108. A(C  29,C  31,C  35)          120.3616         0.434311   
    109. A(C  35,C  33,O  39)          121.1787         0.423106   
    110. A(C  30,C  33,O  39)          119.2959         0.431998   
    111. A(C  30,C  33,C  35)          119.4460         0.430322   
    112. A(C  33,C  35,O  37)          117.5758         0.427110   
    113. A(C  31,C  35,O  37)          122.8852         0.432342   
    114. A(C  31,C  35,C  33)          119.5354         0.426619   
    115. A(C  35,O  37,H  38)          109.8716         0.370087   
    116. A(C  33,O  39,C  40)          115.7767         0.406228   
    117. A(H  41,C  40,H  42)          109.3291         0.290125   
    118. A(O  39,C  40,H  42)          106.0176         0.335066   
    119. A(O  39,C  40,H  41)          110.6028         0.333989   
    120. A(H  42,C  40,H  43)          109.4469         0.290688   
    121. A(H  41,C  40,H  43)          109.8172         0.289806   
    122. A(O  39,C  40,H  43)          111.5380         0.334675   
    123. A(C  26,C  44,H  45)          113.6146         0.336820   
    124. A(C   4,C  44,H  45)          118.4803         0.339177   
    125. A(C   4,C  44,C  26)          126.8577         0.392985   
    126. L(O  27,H  46,O  47,N  49, 2) 178.4689         0.212454   
    127. L(O  27,H  46,O  47,N  49, 1) 182.5563         0.212454   
    128. A(H  46,O  47,N  49)          104.4012         0.348098   
    129. A(O  47,N  49,O  48)          111.9440         0.450870   
    130. D(C   4,C   2,C   0,H   1)     -1.1918         0.036920   
    131. D(H   3,C   2,C   0,H   1)   -179.3439         0.036920   
    132. D(C   4,C   2,C   0,C   6)    178.3495         0.036920   
    133. D(H   3,C   2,C   0,C   6)      0.1973         0.036920   
    134. D(C  44,C   4,C   2,C   0)      5.9050         0.014562   
    135. D(O   5,C   4,C   2,C   0)   -175.4351         0.014562   
    136. D(O   5,C   4,C   2,H   3)      2.8473         0.014562   
    137. D(C  44,C   4,C   2,H   3)   -175.8126         0.014562   
    138. D(C   8,C   6,C   0,C   2)     -0.5522         0.016380   
    139. D(C   8,C   6,C   0,H   1)    179.0093         0.016380   
    140. D(C   7,C   6,C   0,C   2)    179.8456         0.016380   
    141. D(C   7,C   6,C   0,H   1)     -0.5928         0.016380   
    142. D(H  10,C   7,C   6,C   0)     -0.1779         0.024195   
    143. D(C   9,C   7,C   6,C   0)   -179.7967         0.024195   
    144. D(C   9,C   7,C   6,C   8)      0.5786         0.024195   
    145. D(H  10,C   7,C   6,C   8)   -179.8026         0.024195   
    146. D(H  12,C   8,C   6,C   7)   -179.8177         0.023239   
    147. D(H  12,C   8,C   6,C   0)      0.5768         0.023239   
    148. D(C  11,C   8,C   6,C   0)    179.7434         0.023239   
    149. D(C  11,C   8,C   6,C   7)     -0.6511         0.023239   
    150. D(H  14,C   9,C   7,H  10)     -0.3052         0.027349   
    151. D(H  14,C   9,C   7,C   6)    179.3143         0.027349   
    152. D(C  13,C   9,C   7,H  10)   -179.5723         0.027349   
    153. D(C  13,C   9,C   7,C   6)      0.0472         0.027349   
    154. D(O  17,C  11,C   8,H  12)      2.5165         0.028368   
    155. D(O  17,C  11,C   8,C   6)   -176.6822         0.028368   
    156. D(C  13,C  11,C   8,H  12)    179.2951         0.028368   
    157. D(C  13,C  11,C   8,C   6)      0.0964         0.028368   
    158. D(O  15,C  13,C   9,C   7)    178.6549         0.025965   
    159. D(C  11,C  13,C   9,H  14)   -179.8901         0.025965   
    160. D(C  11,C  13,C   9,C   7)     -0.6169         0.025965   
    161. D(O  15,C  13,C  11,O  17)     -2.0533         0.022521   
    162. D(O  15,C  13,C  11,C   8)   -178.7655         0.022521   
    163. D(C   9,C  13,C  11,O  17)    177.2565         0.022521   
    164. D(C   9,C  13,C  11,C   8)      0.5442         0.022521   
    165. D(O  15,C  13,C   9,H  14)     -0.6184         0.025965   
    166. D(H  16,O  15,C  13,C  11)    179.5540         0.029576   
    167. D(H  16,O  15,C  13,C   9)      0.2700         0.029576   
    168. D(C  18,O  17,C  11,C  13)     70.6296         0.026682   
    169. D(C  18,O  17,C  11,C   8)   -112.6498         0.026682   
    170. D(H  21,C  18,O  17,C  11)    -64.1392         0.017546   
    171. D(H  20,C  18,O  17,C  11)    176.7898         0.017546   
    172. D(H  19,C  18,O  17,C  11)     58.3843         0.017546   
    173. D(C  26,C  24,C  22,C  28)    176.0652         0.035996   
    174. D(C  26,C  24,C  22,H  23)     -3.2249         0.035996   
    175. D(H  25,C  24,C  22,C  28)      1.4015         0.035996   
    176. D(H  25,C  24,C  22,H  23)   -177.8885         0.035996   
    177. D(C  44,C  26,C  24,H  25)   -175.6354         0.017000   
    178. D(C  44,C  26,C  24,C  22)      9.3204         0.017000   
    179. D(O  27,C  26,C  24,H  25)      6.5833         0.017000   
    180. D(O  27,C  26,C  24,C  22)   -168.4610         0.017000   
    181. D(H  46,O  27,C  26,C  44)     -3.2821         0.070803   
    182. D(H  46,O  27,C  26,C  24)    174.6708         0.070803   
    183. D(C  30,C  28,C  22,C  24)      0.3677         0.017053   
    184. D(C  30,C  28,C  22,H  23)    179.6824         0.017053   
    185. D(C  29,C  28,C  22,C  24)   -179.2555         0.017053   
    186. D(C  29,C  28,C  22,H  23)      0.0592         0.017053   
    187. D(H  32,C  29,C  28,C  30)   -179.9080         0.023964   
    188. D(H  32,C  29,C  28,C  22)     -0.2632         0.023964   
    189. D(C  31,C  29,C  28,C  30)      0.5598         0.023964   
    190. D(C  31,C  29,C  28,C  22)   -179.7953         0.023964   
    191. D(C  33,C  30,C  28,C  29)     -0.6539         0.023051   
    192. D(C  33,C  30,C  28,C  22)    179.7206         0.023051   
    193. D(H  34,C  30,C  28,C  29)   -179.8109         0.023051   
    194. D(H  34,C  30,C  28,C  22)      0.5637         0.023051   
    195. D(H  36,C  31,C  29,H  32)     -0.2384         0.027603   
    196. D(H  36,C  31,C  29,C  28)    179.2940         0.027603   
    197. D(C  35,C  31,C  29,H  32)   -179.4858         0.027603   
    198. D(C  35,C  31,C  29,C  28)      0.0467         0.027603   
    199. D(O  39,C  33,C  30,H  34)      2.5315         0.028591   
    200. D(O  39,C  33,C  30,C  28)   -176.6586         0.028591   
    201. D(C  35,C  33,C  30,H  34)    179.3294         0.028591   
    202. D(C  35,C  33,C  30,C  28)      0.1394         0.028591   
    203. D(O  37,C  35,C  33,O  39)     -2.1024         0.022379   
    204. D(O  37,C  35,C  33,C  30)   -178.8383         0.022379   
    205. D(C  31,C  35,C  33,O  39)    177.2189         0.022379   
    206. D(C  31,C  35,C  33,C  30)      0.4829         0.022379   
    207. D(O  37,C  35,C  31,H  36)     -0.5462         0.025807   
    208. D(O  37,C  35,C  31,C  29)    178.7072         0.025807   
    209. D(C  33,C  35,C  31,H  36)   -179.8298         0.025807   
    210. D(C  33,C  35,C  31,C  29)     -0.5763         0.025807   
    211. D(H  38,O  37,C  35,C  33)    179.5908         0.029995   
    212. D(H  38,O  37,C  35,C  31)      0.2940         0.029995   
    213. D(C  40,O  39,C  33,C  35)     71.0059         0.026792   
    214. D(C  40,O  39,C  33,C  30)   -112.2534         0.026792   
    215. D(H  43,C  40,O  39,C  33)    -64.2563         0.017496   
    216. D(H  42,C  40,O  39,C  33)    176.6863         0.017496   
    217. D(H  41,C  40,O  39,C  33)     58.2740         0.017496   
    218. D(H  45,C  44,C  26,O  27)     32.4040         0.014345   
    219. D(H  45,C  44,C  26,C  24)   -145.4252         0.014345   
    220. D(C   4,C  44,C  26,O  27)   -135.6081         0.014345   
    221. D(C   4,C  44,C  26,C  24)     46.5627         0.014345   
    222. D(H  45,C  44,C   4,O   5)   -164.0015         0.015587   
    223. D(H  45,C  44,C   4,C   2)     14.6364         0.015587   
    224. D(C  26,C  44,C   4,O   5)      3.4942         0.015587   
    225. D(C  26,C  44,C   4,C   2)   -177.8679         0.015587   
    226. D(N  49,O  47,O  27,C  26)     84.3617         0.001501   
    227. D(O  48,N  49,O  47,H  46)    179.7479         0.019450   
    -----------------------------------------------------------------

Number of atoms                         .... 50
Number of degrees of freedom            .... 227

         *************************************************************
         *                GEOMETRY OPTIMIZATION CYCLE   1            *
         *************************************************************
---------------------------------
CARTESIAN COORDINATES (ANGSTROEM)
---------------------------------
  C     -2.706063    0.255079   -0.199328
  H     -2.413647    0.953447   -0.979154
  C     -1.832525   -0.022744    0.792593
  H     -2.091485   -0.724356    1.580170
  C     -0.467715    0.508197    0.941029
  O      0.251613    0.097224    1.860741
  C     -4.044642   -0.291176   -0.370933
  C     -4.807618    0.126191   -1.473548
  C     -4.619859   -1.229182    0.510014
  C     -6.091430   -0.359650   -1.682865
  H     -4.390562    0.845057   -2.171226
  C     -5.898547   -1.721223    0.315258
  H     -4.080067   -1.586109    1.379766
  C     -6.652908   -1.277794   -0.794985
  H     -6.672929   -0.018250   -2.534810
  O     -7.910772   -1.764431   -0.936055
  H     -8.323230   -1.382950   -1.724018
  O     -6.432848   -2.578340    1.239615
  C     -6.646625   -3.926444    0.791993
  H     -5.706524   -4.373609    0.452807
  H     -7.015406   -4.475895    1.657622
  H     -7.386988   -3.970264   -0.008702
  C      2.695606    0.060859   -0.022810
  H      1.786470   -0.526532   -0.090764
  C      2.586543    1.408258    0.050277
  H      3.464509    2.045912    0.085717
  C      1.342031    2.150652   -0.021029
  O      1.384803    3.391378   -0.160254
  C      3.915058   -0.724381   -0.036111
  C      3.812047   -2.122765   -0.133519
  C      5.206478   -0.161500    0.035858
  C      4.943503   -2.925505   -0.146594
  H      2.831461   -2.583220   -0.191924
  C      6.343265   -0.948854    0.025795
  H      5.348594    0.909989    0.115219
  C      6.214632   -2.354729   -0.061623
  H      4.846963   -4.005805   -0.210855
  O      7.351444   -3.090582   -0.044242
  H      7.134844   -4.032121   -0.103107
  O      7.569150   -0.356935    0.167124
  C      8.420854   -0.399991   -0.989296
  H      7.933525    0.078878   -1.844700
  H      9.316487    0.160809   -0.724072
  H      8.696302   -1.424360   -1.246130
  C      0.002617    1.536218    0.012995
  H     -0.727169    2.051671   -0.600355
  H      0.074762    4.430422   -0.390325
  O     -0.678967    5.055408   -0.568489
  O     -2.105655    6.090339    0.628115
  N     -1.192038    5.342529    0.685339

----------------------------
CARTESIAN COORDINATES (A.U.)
----------------------------
  NO LB      ZA    FRAG     MASS         X           Y           Z
   0 C     6.0000    0    12.011   -5.113718    0.482029   -0.376675
   1 H     1.0000    0     1.008   -4.561132    1.801754   -1.850333
   2 C     6.0000    0    12.011   -3.462970   -0.042980    1.497784
   3 H     1.0000    0     1.008   -3.952334   -1.368834    2.986089
   4 C     6.0000    0    12.011   -0.883853    0.960353    1.778287
   5 O     8.0000    0    15.999    0.475480    0.183727    3.516291
   6 C     6.0000    0    12.011   -7.643266   -0.550243   -0.700962
   7 C     6.0000    0    12.011   -9.085081    0.238466   -2.784602
   8 C     6.0000    0    12.011   -8.730268   -2.322817    0.963787
   9 C     6.0000    0    12.011  -11.511134   -0.679640   -3.180154
  10 H     1.0000    0     1.008   -8.296960    1.596926   -4.103023
  11 C     6.0000    0    12.011  -11.146638   -3.252640    0.595751
  12 H     1.0000    0     1.008   -7.710209   -2.997312    2.607380
  13 C     6.0000    0    12.011  -12.572174   -2.414681   -1.502304
  14 H     1.0000    0     1.008  -12.610008   -0.034488   -4.790097
  15 O     8.0000    0    15.999  -14.949193   -3.334291   -1.768888
  16 H     1.0000    0     1.008  -15.728625   -2.613397   -3.257922
  17 O     8.0000    0    15.999  -12.156321   -4.872356    2.342533
  18 C     6.0000    0    12.011  -12.560301   -7.419904    1.496650
  19 H     1.0000    0     1.008  -10.783768   -8.264923    0.855681
  20 H     1.0000    0     1.008  -13.257196   -8.458216    3.132452
  21 H     1.0000    0     1.008  -13.959384   -7.502712   -0.016444
  22 C     6.0000    0    12.011    5.093957    0.115007   -0.043105
  23 H     1.0000    0     1.008    3.375939   -0.995001   -0.171519
  24 C     6.0000    0    12.011    4.887858    2.661222    0.095010
  25 H     1.0000    0     1.008    6.546973    3.866213    0.161982
  26 C     6.0000    0    12.011    2.536071    4.064143   -0.039739
  27 O     8.0000    0    15.999    2.616898    6.408776   -0.302836
  28 C     6.0000    0    12.011    7.398387   -1.368882   -0.068240
  29 C     6.0000    0    12.011    7.203725   -4.011444   -0.252314
  30 C     6.0000    0    12.011    9.838818   -0.305191    0.067762
  31 C     6.0000    0    12.011    9.341867   -5.528403   -0.277023
  32 H     1.0000    0     1.008    5.350686   -4.881578   -0.362684
  33 C     6.0000    0    12.011   11.987034   -1.793074    0.048745
  34 H     1.0000    0     1.008   10.107378    1.719630    0.217732
  35 C     6.0000    0    12.011   11.743953   -4.449793   -0.116451
  36 H     1.0000    0     1.008    9.159433   -7.569874   -0.398458
  37 O     8.0000    0    15.999   13.892216   -5.840354   -0.083605
  38 H     1.0000    0     1.008   13.482901   -7.619604   -0.194844
  39 O     8.0000    0    15.999   14.303621   -0.674509    0.315819
  40 C     6.0000    0    12.011   15.913108   -0.755873   -1.869499
  41 H     1.0000    0     1.008   14.992190    0.149058   -3.485978
  42 H     1.0000    0     1.008   17.605609    0.303885   -1.368298
  43 H     1.0000    0     1.008   16.433629   -2.691650   -2.354844
  44 C     6.0000    0    12.011    0.004945    2.903031    0.024557
  45 H     1.0000    0     1.008   -1.374150    3.877096   -1.134507
  46 H     1.0000    0     1.008    0.141280    8.372284   -0.737607
  47 O     8.0000    0    15.999   -1.283062    9.553337   -1.074289
  48 O     8.0000    0    15.999   -3.979111   11.509073    1.186965
  49 N     7.0000    0    14.007   -2.252625   10.095917    1.295103

--------------------------------
INTERNAL COORDINATES (ANGSTROEM)
--------------------------------
 C      0   0   0     0.000000000000     0.00000000     0.00000000
 H      1   0   0     1.086900901994     0.00000000     0.00000000
 C      1   2   0     1.350615240183   119.01868980     0.00000000
 H      3   1   2     1.086092634665   120.74610652   180.65605842
 C      3   1   2     1.471950382206   126.83817999   358.80822196
 O      5   3   1     1.237821368880   119.60340597   184.56491002
 C      1   2   3     1.455897159930   113.82019889   180.39962584
 C      7   1   2     1.404310303135   118.72227325   359.40715690
 C      7   1   2     1.409538034228   123.45098493   179.00933495
 C      8   7   1     1.388534599898   121.11146883   180.20325854
 H      8   7   1     1.085107655846   119.53148582   359.82207178
 C      9   7   1     1.383863160345   121.71732197   179.74341451
 H      9   7   1     1.084085249460   121.15317326     0.57683536
 C     10   8   7     1.395197779392   120.42491561     0.04717027
 H     10   8   7     1.086510621221   120.20487714   179.31430388
 O     14  10   8     1.356074539679   122.90471629   178.65488399
 H     16  14  10     0.967747407382   109.79038217     0.27002473
 O     12   9   7     1.369146805036   119.21952080   183.31781978
 C     18  12   9     1.436471529627   115.79854401   247.35015163
 H     19  18  12     1.094894319111   110.61202504    58.38430524
 H     19  18  12     1.089591388091   106.02517028   176.78982207
 H     19  18  12     1.091407369956   111.54570873   295.86075147
 C      6   5   3     3.085804363027    90.60981613   139.72284447
 H     23   6   5     1.084515652028    51.73462937   296.25377055
 C     23   6   5     1.353780082857    83.77181254    70.24426042
 H     25  23   6     1.085671642105   121.41148742   142.17888286
 C     25  23   6     1.450876809042   125.15038129   316.84257365
 O     27  25  23     1.249245392901   118.96700104   191.53903717
 C     23   6   5     1.450462669118   132.67568165   207.12810485
 C     29  23   6     1.405552345536   118.53075479    59.50506103
 C     29  23   6     1.410595680385   123.58731219   239.12819302
 C     30  29  23     1.387355449465   121.10067297   180.20466236
 H     30  29  23     1.084886562939   119.48764444   359.73678208
 C     31  29  23     1.382863792517   121.67035702   179.72063765
 H     31  29  23     1.083782175023   121.21819591     0.56372141
 C     32  30  29     1.395985045643   120.36163750     0.04672273
 H     32  30  29     1.086507035284   120.22514027   179.29404221
 O     36  32  30     1.354298069154   122.88519076   178.70723524
 H     38  36  32     0.967923724653   109.87158629     0.29403498
 O     34  31  29     1.368625596000   119.29589575   183.34142157
 C     40  34  31     1.436857939795   115.77666674   247.74662963
 H     41  40  34     1.094769873817   110.60276318    58.27399447
 H     41  40  34     1.089494782395   106.01758312   176.68634972
 H     41  40  34     1.091406043790   111.53800971   295.74373010
 C      5   3   1     1.462629984590   119.18952646     5.90502301
 H     45   5   3     1.083733188338   118.48025039    14.63643040
 H     28  27  25     1.687824789680   126.87203970   174.67084867
 O     47  28  27     0.995217220778   177.23323375   241.54770602
 O     48  47  28     2.130347848808   135.37511994   202.13615060
 N     49  48  47     1.182028089753    37.08178172   359.65244878

---------------------------
INTERNAL COORDINATES (A.U.)
---------------------------
 C      0   0   0     0.000000000000     0.00000000     0.00000000
 H      1   0   0     2.053945039481     0.00000000     0.00000000
 C      1   2   0     2.552292916246   119.01868980     0.00000000
 H      3   1   2     2.052417635585   120.74610652   180.65605842
 C      3   1   2     2.781583105090   126.83817999   358.80822196
 O      5   3   1     2.339143389900   119.60340597   184.56491002
 C      1   2   3     2.751246911421   113.82019889   180.39962584
 C      7   1   2     2.653761879968   118.72227325   359.40715690
 C      7   1   2     2.663640860036   123.45098493   179.00933495
 C      8   7   1     2.623950121281   121.11146883   180.20325854
 H      8   7   1     2.050556295371   119.53148582   359.82207178
 C      9   7   1     2.615122379875   121.71732197   179.74341451
 H      9   7   1     2.048624227303   121.15317326     0.57683536
 C     10   8   7     2.636541705706   120.42491561     0.04717027
 H     10   8   7     2.053207515704   120.20487714   179.31430388
 O     14  10   8     2.562609497176   122.90471629   178.65488399
 H     16  14  10     1.828777566764   109.79038217     0.27002473
 O     12   9   7     2.587312498650   119.21952080   183.31781978
 C     18  12   9     2.714537790170   115.79854401   247.35015163
 H     19  18  12     2.069050408706   110.61202504    58.38430524
 H     19  18  12     2.059029321372   106.02517028   176.78982207
 H     19  18  12     2.062461029760   111.54570873   295.86075147
 C      6   5   3     5.831325148980    90.60981613   139.72284447
 H     23   6   5     2.049437570283    51.73462937   296.25377055
 C     23   6   5     2.558273602156    83.77181254    70.24426042
 H     25  23   6     2.051622074944   121.41148742   142.17888286
 C     25  23   6     2.741759823147   125.15038129   316.84257365
 O     27  25  23     2.360731666646   118.96700104   191.53903717
 C     23   6   5     2.740977212110   132.67568165   207.12810485
 C     29  23   6     2.656108999953   118.53075479    59.50506103
 C     29  23   6     2.665639521621   123.58731219   239.12819302
 C     30  29  23     2.621721849893   121.10067297   180.20466236
 H     30  29  23     2.050138490326   119.48764444   359.73678208
 C     31  29  23     2.613233848372   121.67035702   179.72063765
 H     31  29  23     2.048051499619   121.21819591     0.56372141
 C     32  30  29     2.638029423314   120.36163750     0.04672273
 H     32  30  29     2.053200739265   120.22514027   179.29404221
 O     36  32  30     2.559252454399   122.88519076   178.70723524
 H     38  36  32     1.829110758119   109.87158629     0.29403498
 O     34  31  29     2.586327556315   119.29589575   183.34142157
 C     40  34  31     2.715267999563   115.77666674   247.74662963
 H     41  40  34     2.068815241182   110.60276318    58.27399447
 H     41  40  34     2.058846763062   106.01758312   176.68634972
 H     41  40  34     2.062458523669   111.53800971   295.74373010
 C      5   3   1     2.763970106136   119.18952646     5.90502301
 H     45   5   3     2.047958928200   118.48025039    14.63643040
 H     28  27  25     3.189526614538   126.87203970   174.67084867
 O     47  28  27     1.880687991033   177.23323375   241.54770602
 O     48  47  28     4.025774004235   135.37511994   202.13615060
 N     49  48  47     2.233709372235    37.08178172   359.65244878

---------------------
BASIS SET INFORMATION
---------------------
There are 4 groups of distinct atoms

 Group   1 Type C   : 12s6p1d contracted to 5s4p1d pattern {63111/3111/1}
 Group   2 Type H   : 5s contracted to 3s pattern {311}
 Group   3 Type O   : 12s6p1d contracted to 5s4p1d pattern {63111/3111/1}
 Group   4 Type N   : 12s6p1d contracted to 5s4p1d pattern {63111/3111/1}

Atom   0C    basis set group =>   1
Atom   1H    basis set group =>   2
Atom   2C    basis set group =>   1
Atom   3H    basis set group =>   2
Atom   4C    basis set group =>   1
Atom   5O    basis set group =>   3
Atom   6C    basis set group =>   1
Atom   7C    basis set group =>   1
Atom   8C    basis set group =>   1
Atom   9C    basis set group =>   1
Atom  10H    basis set group =>   2
Atom  11C    basis set group =>   1
Atom  12H    basis set group =>   2
Atom  13C    basis set group =>   1
Atom  14H    basis set group =>   2
Atom  15O    basis set group =>   3
Atom  16H    basis set group =>   2
Atom  17O    basis set group =>   3
Atom  18C    basis set group =>   1
Atom  19H    basis set group =>   2
Atom  20H    basis set group =>   2
Atom  21H    basis set group =>   2
Atom  22C    basis set group =>   1
Atom  23H    basis set group =>   2
Atom  24C    basis set group =>   1
Atom  25H    basis set group =>   2
Atom  26C    basis set group =>   1
Atom  27O    basis set group =>   3
Atom  28C    basis set group =>   1
Atom  29C    basis set group =>   1
Atom  30C    basis set group =>   1
Atom  31C    basis set group =>   1
Atom  32H    basis set group =>   2
Atom  33C    basis set group =>   1
Atom  34H    basis set group =>   2
Atom  35C    basis set group =>   1
Atom  36H    basis set group =>   2
Atom  37O    basis set group =>   3
Atom  38H    basis set group =>   2
Atom  39O    basis set group =>   3
Atom  40C    basis set group =>   1
Atom  41H    basis set group =>   2
Atom  42H    basis set group =>   2
Atom  43H    basis set group =>   2
Atom  44C    basis set group =>   1
Atom  45H    basis set group =>   2
Atom  46H    basis set group =>   2
Atom  47O    basis set group =>   3
Atom  48O    basis set group =>   3
Atom  49N    basis set group =>   4
---------------------------------
AUXILIARY/J BASIS SET INFORMATION
---------------------------------
There are 4 groups of distinct atoms

 Group   1 Type C   : 12s5p4d2f1g contracted to 6s4p3d1f1g pattern {711111/2111/211/2/1}
 Group   2 Type H   : 5s2p1d contracted to 3s1p1d pattern {311/2/1}
 Group   3 Type O   : 12s5p4d2f1g contracted to 6s4p3d1f1g pattern {711111/2111/211/2/1}
 Group   4 Type N   : 12s5p4d2f1g contracted to 6s4p3d1f1g pattern {711111/2111/211/2/1}

Atom   0C    basis set group =>   1
Atom   1H    basis set group =>   2
Atom   2C    basis set group =>   1
Atom   3H    basis set group =>   2
Atom   4C    basis set group =>   1
Atom   5O    basis set group =>   3
Atom   6C    basis set group =>   1
Atom   7C    basis set group =>   1
Atom   8C    basis set group =>   1
Atom   9C    basis set group =>   1
Atom  10H    basis set group =>   2
Atom  11C    basis set group =>   1
Atom  12H    basis set group =>   2
Atom  13C    basis set group =>   1
Atom  14H    basis set group =>   2
Atom  15O    basis set group =>   3
Atom  16H    basis set group =>   2
Atom  17O    basis set group =>   3
Atom  18C    basis set group =>   1
Atom  19H    basis set group =>   2
Atom  20H    basis set group =>   2
Atom  21H    basis set group =>   2
Atom  22C    basis set group =>   1
Atom  23H    basis set group =>   2
Atom  24C    basis set group =>   1
Atom  25H    basis set group =>   2
Atom  26C    basis set group =>   1
Atom  27O    basis set group =>   3
Atom  28C    basis set group =>   1
Atom  29C    basis set group =>   1
Atom  30C    basis set group =>   1
Atom  31C    basis set group =>   1
Atom  32H    basis set group =>   2
Atom  33C    basis set group =>   1
Atom  34H    basis set group =>   2
Atom  35C    basis set group =>   1
Atom  36H    basis set group =>   2
Atom  37O    basis set group =>   3
Atom  38H    basis set group =>   2
Atom  39O    basis set group =>   3
Atom  40C    basis set group =>   1
Atom  41H    basis set group =>   2
Atom  42H    basis set group =>   2
Atom  43H    basis set group =>   2
Atom  44C    basis set group =>   1
Atom  45H    basis set group =>   2
Atom  46H    basis set group =>   2
Atom  47O    basis set group =>   3
Atom  48O    basis set group =>   3
Atom  49N    basis set group =>   4
------------------------------------------------------------------------------
                           ORCA GTO INTEGRAL CALCULATION
                           -- RI-GTO INTEGRALS CHOSEN --
------------------------------------------------------------------------------
------------------------------------------------------------------------------
                   ___                                                        
                  /   \      - P O W E R E D   B Y -                         
                 /     \                                                     
                 |  |  |   _    _      __       _____    __    __             
                 |  |  |  | |  | |    /  \     |  _  \  |  |  /  |          
                  \  \/   | |  | |   /    \    | | | |  |  | /  /          
                 / \  \   | |__| |  /  /\  \   | |_| |  |  |/  /          
                |  |  |   |  __  | /  /__\  \  |    /   |      \           
                |  |  |   | |  | | |   __   |  |    \   |  |\   \          
                \     /   | |  | | |  |  |  |  | |\  \  |  | \   \       
                 \___/    |_|  |_| |__|  |__|  |_| \__\ |__|  \__/        
                                                                              
                      - O R C A' S   B I G   F R I E N D -                    
                                      &                                       
                       - I N T E G R A L  F E E D E R -                       
                                                                              
 v1 FN, 2020, v2 2021                                                         
------------------------------------------------------------------------------


Reading SHARK input file CURCUMIN-OPT-FREQ-TS2-WB97M-V-6-311+G-D-298.SHARKINP.tmp ... ok
----------------------
SHARK INTEGRAL PACKAGE
----------------------

Number of atoms                             ...     50
Number of basis functions                   ...    720
Number of shells                            ...    360
Maximum angular momentum                    ...      2
Integral batch strategy                     ... SHARK/LIBINT Hybrid
RI-J (if used) integral strategy            ... SPLIT-RIJ (Revised 2003 algorithm where possible)
Printlevel                                  ...      1
Contraction scheme used                     ... SEGMENTED contraction
Coulomb Range Separation                    ... NOT USED
Exchange Range Separation                   ... Long Range
   Mu parameter                             ...  0.300000
   Scaling (regular/separated)              ...  0.150000  0.850000
Finite Nucleus Model                        ... NOT USED
Auxiliary Coulomb fitting basis             ... AVAILABLE
   # of basis functions in Aux-J            ...   1690
   # of shells in Aux-J                     ...    550
   Maximum angular momentum in Aux-J        ...      4
Auxiliary J/K fitting basis                 ... NOT available
Auxiliary Correlation fitting basis         ... NOT available
Auxiliary 'external' fitting basis          ... NOT available
Integral threshold                          ...     2.500000e-11
Primitive cut-off                           ...     2.500000e-12
Primitive pair pre-selection threshold      ...     2.500000e-12

Calculating pre-screening integrals         ... done (  0.1 sec) Dimension = 360
Organizing shell pair data                  ... done (  0.5 sec)
Shell pair information
Total number of shell pairs                 ...     64980
Shell pairs after pre-screening             ...     38095
Total number of primitive shell pairs       ...    225475
Primitive shell pairs kept                  ...     82869
          la=0 lb=0:  12202 shell pairs
          la=1 lb=0:  15708 shell pairs
          la=1 lb=1:   5012 shell pairs
          la=2 lb=0:   2985 shell pairs
          la=2 lb=1:   2004 shell pairs
          la=2 lb=2:    184 shell pairs

Calculating one electron integrals          ... done (  0.2 sec)
Calculating RI/J V-Matrix + Cholesky decomp.... done (  0.6 sec)
Calculating Nuclear repulsion               ... done (  0.0 sec) ENN=   2538.992862719357 Eh

SHARK setup successfully completed in   2.2 seconds

Maximum memory used throughout the entire GTOINT-calculation: 178.3 MB
-------------------------------------------------------------------------------
                                 ORCA SCF
-------------------------------------------------------------------------------

------------
SCF SETTINGS
------------
Hamiltonian:
 Density Functional     Method          .... DFT(GTOs)
  Functional kind                       .... Exchange-Correlation
  Functional name                       .... wB97M-V exchange-correlation functional
  Functional family                     .... Hybrid MGGA
  Functional refs                              
    [ 0] N. Mardirossian and M. Head-Gordon, J. Chem. Phys. 144, 214110 (2016)
  Fraction of HF Exchange (short range) .... 0.1500
  Fraction of HF Exchange (long range)  .... 1.0000
  Range separation parameter mu         .... 0.3000
  Functional external parameters         .... 0
   Density functional embedding theory  .... OFF
 Long-range corrected/Screened/Range-Separated Hybrid DFT is turned on
   Amount of maximum screened exact exchange              ....  0.850000
   Range separation parameter mu (erf(mu*r12)/r12)        ....  0.300000
   NL short-range parameter             ....  6.000000
   NL long-range parameter              ....  0.010000
 RI-approximation to the Coulomb term is turned on
   Number of AuxJ basis functions       .... 1690
   RIJ-ON(X) (HFX calculated with O(N)) .... on


General Settings:
 Integral files         IntName         .... CURCUMIN-OPT-FREQ-TS2-WB97M-V-6-311+G-D-298
 Hartree-Fock type      HFTyp           .... UHF
 Total Charge           Charge          ....    0
 Multiplicity           Mult            ....    2
 Number of Electrons    NEL             ....  217
 Basis Dimension        Dim             ....  720
 Nuclear Repulsion      ENuc            ....   2538.9928627194 Eh

Convergence Acceleration:
 DIIS                   CNVDIIS         .... on
   Start iteration      DIISMaxIt       ....    12
   Startup error        DIISStart       ....  0.200000
   # of expansion vecs  DIISMaxEq       ....     5
   Bias factor          DIISBfac        ....   1.050
   Max. coefficient     DIISMaxC        ....  10.000
 Trust-Rad. Augm. Hess. CNVTRAH         .... off
 SOSCF                  CNVSOSCF        .... off
 Level Shifting         CNVShift        .... on
   Level shift para.    LevelShift      ....    0.2500
   Turn off err/grad.   ShiftErr        ....    0.0010
 Zerner damping         CNVZerner       .... off
 Static damping         CNVDamp         .... on
   Fraction old density DampFac         ....    0.7000
   Max. Damping (<1)    DampMax         ....    0.9800
   Min. Damping (>=0)   DampMin         ....    0.0000
   Turn off err/grad.   DampErr         ....    0.1000
 Fernandez-Rico         CNVRico         .... off

SCF Procedure:
 Maximum # iterations   MaxIter         ....   125
 SCF integral mode      SCFMode         .... Direct
   Integral package                     .... SHARK and LIBINT hybrid scheme
 Reset frequency        DirectResetFreq ....    20
 Integral Threshold     Thresh          ....  2.500e-11 Eh
 Primitive CutOff       TCut            ....  2.500e-12 Eh

Convergence Tolerance:
 Convergence Check Mode ConvCheckMode   .... Total+1el-Energy
 Convergence forced     ConvForced      .... 0
 Energy Change          TolE            ....  1.000e-08 Eh
 1-El. energy change                    ....  1.000e-05 Eh
 DIIS Error             TolErr          ....  5.000e-07


Diagonalization of the overlap matrix:
Smallest eigenvalue                        ... 1.292e-07
Time for diagonalization                   ...    0.048 sec
Threshold for overlap eigenvalues          ... 1.000e-08
Number of eigenvalues below threshold      ... 0
Time for construction of square roots      ...    0.069 sec
Total time needed                          ...    0.118 sec

Time for model grid setup =    1.191 sec

------------------------------
INITIAL GUESS: MODEL POTENTIAL
------------------------------
Loading Hartree-Fock densities                     ... done
Calculating cut-offs                               ... done
Initializing the effective Hamiltonian             ... done
Setting up the integral package (SHARK)            ... done
Starting the Coulomb interaction                   ... done (   1.8 sec)
Reading the grid                                   ... done
Mapping shells                                     ... done
Starting the XC term evaluation                    ... done (   1.2 sec)
  promolecular density results
     # of electrons  =    216.977175413
     EX              =   -184.985948280
     EC              =     -7.281381532
     EX+EC           =   -192.267329813
Transforming the Hamiltonian                       ... done (   0.0 sec)
Diagonalizing the Hamiltonian                      ... done (   0.0 sec)
Back transforming the eigenvectors                 ... done (   0.0 sec)
Now organizing SCF variables                       ... done
                      ------------------
                      INITIAL GUESS DONE (   4.3 sec)
                      ------------------
-------------------
DFT GRID GENERATION
-------------------

General Integration Accuracy     IntAcc      ... 4.388
Radial Grid Type                 RadialGrid  ... OptM3 with GC (2021)
Angular Grid (max. ang.)         AngularGrid ... 4 (Lebedev-302)
Angular grid pruning method      GridPruning ... 4 (adaptive)
Weight generation scheme         WeightScheme... Becke
Basis function cutoff            BFCut       ... 1.0000e-11
Integration weight cutoff        WCut        ... 1.0000e-14
Angular grids for H and He will be reduced by one unit
Partially contracted basis set               ... off
Rotationally invariant grid construction     ... off

Total number of grid points                  ...   252003
Total number of batches                      ...     3964
Average number of points per batch           ...       63
Average number of grid points per atom       ...     5040

------------------
NL GRID GENERATION
------------------

General Integration Accuracy     IntAcc      ... 4.004
Radial Grid Type                 RadialGrid  ... OptM3 with GC (2021)
Angular Grid (max. ang.)         AngularGrid ... 2 (Lebedev-110)
Angular grid pruning method      GridPruning ... 4 (adaptive)
Weight generation scheme         WeightScheme... Becke
Basis function cutoff            BFCut       ... 1.0000e-10
Integration weight cutoff        WCut        ... 1.0000e-14
Angular grids for H and He will be reduced by one unit
Partially contracted basis set               ... off
Rotationally invariant grid construction     ... off

Total number of grid points                  ...    83879
Total number of batches                      ...     1337
Average number of points per batch           ...       62
Average number of grid points per atom       ...     1678
Time for grid setup =    5.196 sec


--------------------
CPCM SOLVATION MODEL
--------------------
CPCM parameters:
  Epsilon                                         ...       7.0000
  Refrac                                          ...       1.8534
  Rsolv                                           ...       1.3000
  Surface type                                    ... GAUSSIAN VDW
  Epsilon function type                           ...         CPCM
Radii:
 Radius for C  used is    3.8550 Bohr (=   2.0400 Ang.)
 Radius for H  used is    2.4944 Bohr (=   1.3200 Ang.)
 Radius for O  used is    3.4469 Bohr (=   1.8240 Ang.)
 Radius for N  used is    3.5149 Bohr (=   1.8600 Ang.)
Calculating surface                               ...        done! (  0.0s)
GEPOL surface points                              ...         2743
GEPOL Volume                                      ...    3266.9315
GEPOL Surface-area                                ...    1727.3584
Calculating surface distance matrix               ...        done! (  0.0s)
Performing Cholesky decomposition & store         ...        done! (  0.7s)
Overall time for CPCM initialization              ...                 0.7s
--------------
SCF ITERATIONS
--------------
ITER       Energy         Delta-E        Max-DP      RMS-DP      [F,P]     Damp
               ***  Starting incremental Fock matrix formation  ***
  0  -1467.8392213155   0.000000000000 4.12127247  0.02199204  0.1592251 0.7000
  1  -1468.1130643272  -0.273843011692 2.68512371  0.01411124  0.0746017 0.7000
                               ***Turning on DIIS***
  2  -1468.2488039476  -0.13573962039813.62266140  0.04893380  0.0284307 0.0000
  3  -1468.4892310628  -0.240427115201 6.79067604  0.02453390  0.0399247 0.0000
  4  -1468.5200523293  -0.030821266477 2.61918672  0.01422372  0.0078016 0.0000
  5  -1468.5239696443  -0.003917314969 6.31437043  0.02841380  0.0034760 0.0000
  6  -1468.5260798937  -0.002110249380 3.22204763  0.01361929  0.0030971 0.0000
  7  -1468.5277629569  -0.001683063234 2.70171689  0.01025058  0.0024815 0.0000
  8  -1468.5288437202  -0.001080763356 2.70688673  0.00917893  0.0018144 0.0000
  9  -1468.5294062828  -0.000562562592 2.65464815  0.01031722  0.0012708 0.0000
 10  -1468.5297088972  -0.000302614368 9.38875105  0.03499284  0.0008579 0.0000
 11  -1468.5300080106  -0.000299113381 2.04168050  0.00603648  0.0005988 0.0000
 12  -1468.5300664616  -0.000058450975 2.39507539  0.01123728  0.0005637 0.0000
 13  -1468.5300991092  -0.000032647599 2.90507359  0.01087675  0.0004758 0.0000
 14  -1468.5301192138  -0.000020104639 3.34890670  0.01293200  0.0002837 0.0000
 15  -1468.5301322250  -0.000013011228 1.82746624  0.00817089  0.0001781 0.0000
 16  -1468.5301382241  -0.000005999036 1.57603190  0.00616412  0.0001371 0.0000
 17  -1468.5301415409  -0.000003316843 2.50114978  0.00860687  0.0000794 0.0000
 18  -1468.5301428071  -0.000001266179 1.17017919  0.00670853  0.0000459 0.0000
 19  -1468.5301432542  -0.000000447103 2.24256900  0.00991295  0.0000319 0.0000
               *** Restarting incremental Fock matrix formation ***
                                   *** Resetting DIIS ***
 20  -1468.5301434316  -0.000000177449 3.57485025  0.01028264  0.0000436 0.0000
 21  -1468.5301436337  -0.000000202064 1.57903585  0.00689968  0.0000431 0.0000
 22  -1468.5301435615   0.00000007218911.00937517  0.04327644  0.0000217 0.0000
 23  -1468.5301415342   0.000002027320 2.42943349  0.01103663  0.0000095 0.0000
 24  -1468.5301411465   0.000000387682 6.76750537  0.02346756  0.0000046 0.0000
 25  -1468.5301423208  -0.000001174256 1.88351686  0.00656355  0.0000023 0.0000
 26  -1468.5301425716  -0.000000250824 2.11768390  0.00572629  0.0000016 0.0000
                            ***DIIS convergence achieved***

               *****************************************************
               *                     SUCCESS                       *
               *           SCF CONVERGED AFTER  27 CYCLES          *
               *****************************************************


----------------
TOTAL SCF ENERGY
----------------

Total Energy       :        -1468.53014243 Eh          -39960.73674 eV

Components:
Nuclear Repulsion  :         2538.99286272 Eh           69089.50824 eV
Electronic Energy  :        -4007.52300515 Eh         -109050.24498 eV
One Electron Energy:        -7047.00295266 Eh         -191758.69917 eV
Two Electron Energy:         3039.47994751 Eh           82708.45419 eV
CPCM Dielectric    :           -0.04713679 Eh              -1.28266 eV

Virial components:
Potential Energy   :        -2933.10270742 Eh          -79813.78232 eV
Kinetic Energy     :         1464.57256498 Eh           39853.04558 eV
Virial Ratio       :            2.00270221


DFT components:
N(Alpha)           :      109.000113708956 electrons
N(Beta)            :      108.000112530191 electrons
N(Total)           :      217.000226239146 electrons
NL Energy, E(C,NL) :        0.825503161101 Eh       
E(XC)              :     -139.365317858527 Eh       
DFET-embed. en.    :        0.000000000000 Eh       
CPCM Solvation Model Properties:
Surface-charge          :           -0.03957744
Charge-correction       :            0.00021703 Eh               0.00591 eV
Free-energy (cav+disp)  :  This term is not implemented in the current solvation scheme

---------------
SCF CONVERGENCE
---------------

  Last Energy change         ...    1.3810e-07  Tolerance :   1.0000e-08
  Last MAX-Density change    ...    1.1044e+00  Tolerance :   1.0000e-07
  Last RMS-Density change    ...    3.2261e-03  Tolerance :   5.0000e-09
  Last DIIS Error            ...    9.0508e-07  Tolerance :   5.0000e-07

             **** THE GBW FILE WAS UPDATED (CURCUMIN-OPT-FREQ-TS2-WB97M-V-6-311+G-D-298.gbw) ****
             **** DENSITY CURCUMIN-OPT-FREQ-TS2-WB97M-V-6-311+G-D-298.scfp WAS UPDATED ****
             **** ENERGY FILE WAS UPDATED (CURCUMIN-OPT-FREQ-TS2-WB97M-V-6-311+G-D-298.en.tmp) ****
----------------------
UHF SPIN CONTAMINATION
----------------------

Warning: in a DFT calculation there is little theoretical justification to 
         calculate <S**2> as in Hartree-Fock theory. We will do it anyways
         but you should keep in mind that the values have only limited relevance

Expectation value of <S**2>     :     0.762384
Ideal value S*(S+1) for S=0.5   :     0.750000
Deviation                       :     0.012384

             **** THE GBW FILE WAS UPDATED (CURCUMIN-OPT-FREQ-TS2-WB97M-V-6-311+G-D-298.gbw) ****
             **** DENSITY CURCUMIN-OPT-FREQ-TS2-WB97M-V-6-311+G-D-298.scfp WAS UPDATED ****
----------------
ORBITAL ENERGIES
----------------
                 SPIN UP ORBITALS
  NO   OCC          E(Eh)            E(eV) 
   0   1.0000     -19.407128      -528.0948 
   1   1.0000     -19.390710      -527.6480 
   2   1.0000     -19.381436      -527.3957 
   3   1.0000     -19.379700      -527.3485 
   4   1.0000     -19.360712      -526.8318 
   5   1.0000     -19.360278      -526.8200 
   6   1.0000     -19.352313      -526.6032 
   7   1.0000     -19.339914      -526.2658 
   8   1.0000     -14.691771      -399.7834 
   9   1.0000     -10.467723      -284.8412 
  10   1.0000     -10.456537      -284.5369 
  11   1.0000     -10.433477      -283.9093 
  12   1.0000     -10.430948      -283.8405 
  13   1.0000     -10.416747      -283.4541 
  14   1.0000     -10.415761      -283.4273 
  15   1.0000     -10.407709      -283.2082 
  16   1.0000     -10.389454      -282.7114 
  17   1.0000     -10.386412      -282.6286 
  18   1.0000     -10.386236      -282.6238 
  19   1.0000     -10.385036      -282.5912 
  20   1.0000     -10.372275      -282.2439 
  21   1.0000     -10.371450      -282.2215 
  22   1.0000     -10.368125      -282.1310 
  23   1.0000     -10.366038      -282.0742 
  24   1.0000     -10.365775      -282.0671 
  25   1.0000     -10.363854      -282.0148 
  26   1.0000     -10.362248      -281.9711 
  27   1.0000     -10.361707      -281.9564 
  28   1.0000     -10.361502      -281.9508 
  29   1.0000     -10.361216      -281.9430 
  30   1.0000      -1.358520       -36.9672 
  31   1.0000      -1.219585       -33.1866 
  32   1.0000      -1.217679       -33.1347 
  33   1.0000      -1.199618       -32.6433 
  34   1.0000      -1.189826       -32.3768 
  35   1.0000      -1.189020       -32.3549 
  36   1.0000      -1.187072       -32.3019 
  37   1.0000      -1.182632       -32.1810 
  38   1.0000      -1.005109       -27.3504 
  39   1.0000      -1.003480       -27.3061 
  40   1.0000      -0.954765       -25.9805 
  41   1.0000      -0.945154       -25.7189 
  42   1.0000      -0.912710       -24.8361 
  43   1.0000      -0.893706       -24.3190 
  44   1.0000      -0.892283       -24.2802 
  45   1.0000      -0.880567       -23.9614 
  46   1.0000      -0.861306       -23.4373 
  47   1.0000      -0.816295       -22.2125 
  48   1.0000      -0.815645       -22.1948 
  49   1.0000      -0.808084       -21.9891 
  50   1.0000      -0.796850       -21.6834 
  51   1.0000      -0.787224       -21.4214 
  52   1.0000      -0.758120       -20.6295 
  53   1.0000      -0.746962       -20.3259 
  54   1.0000      -0.715190       -19.4613 
  55   1.0000      -0.711188       -19.3524 
  56   1.0000      -0.700847       -19.0710 
  57   1.0000      -0.684586       -18.6285 
  58   1.0000      -0.676245       -18.4016 
  59   1.0000      -0.673453       -18.3256 
  60   1.0000      -0.653383       -17.7795 
  61   1.0000      -0.638378       -17.3712 
  62   1.0000      -0.634929       -17.2773 
  63   1.0000      -0.629885       -17.1400 
  64   1.0000      -0.622433       -16.9373 
  65   1.0000      -0.617929       -16.8147 
  66   1.0000      -0.616274       -16.7697 
  67   1.0000      -0.600313       -16.3354 
  68   1.0000      -0.593552       -16.1514 
  69   1.0000      -0.591359       -16.0917 
  70   1.0000      -0.582057       -15.8386 
  71   1.0000      -0.581445       -15.8219 
  72   1.0000      -0.579583       -15.7713 
  73   1.0000      -0.570576       -15.5262 
  74   1.0000      -0.556797       -15.1512 
  75   1.0000      -0.552978       -15.0473 
  76   1.0000      -0.550707       -14.9855 
  77   1.0000      -0.547655       -14.9025 
  78   1.0000      -0.543137       -14.7795 
  79   1.0000      -0.540467       -14.7068 
  80   1.0000      -0.535794       -14.5797 
  81   1.0000      -0.534087       -14.5333 
  82   1.0000      -0.529248       -14.4016 
  83   1.0000      -0.524968       -14.2851 
  84   1.0000      -0.517495       -14.0818 
  85   1.0000      -0.511664       -13.9231 
  86   1.0000      -0.490239       -13.3401 
  87   1.0000      -0.489541       -13.3211 
  88   1.0000      -0.486418       -13.2361 
  89   1.0000      -0.485033       -13.1984 
  90   1.0000      -0.483366       -13.1531 
  91   1.0000      -0.481256       -13.0956 
  92   1.0000      -0.474154       -12.9024 
  93   1.0000      -0.472960       -12.8699 
  94   1.0000      -0.450232       -12.2514 
  95   1.0000      -0.449368       -12.2279 
  96   1.0000      -0.449163       -12.2223 
  97   1.0000      -0.412108       -11.2140 
  98   1.0000      -0.402065       -10.9407 
  99   1.0000      -0.401069       -10.9136 
 100   1.0000      -0.395620       -10.7654 
 101   1.0000      -0.395085       -10.7508 
 102   1.0000      -0.382705       -10.4139 
 103   1.0000      -0.380846       -10.3633 
 104   1.0000      -0.366401        -9.9703 
 105   1.0000      -0.351097        -9.5538 
 106   1.0000      -0.349459        -9.5093 
 107   1.0000      -0.312039        -8.4910 
 108   1.0000      -0.306770        -8.3476 
 109   0.0000      -0.027217        -0.7406 
 110   0.0000      -0.000124        -0.0034 
 111   0.0000       0.014726         0.4007 
 112   0.0000       0.031896         0.8679 
 113   0.0000       0.036186         0.9847 
 114   0.0000       0.041853         1.1389 
 115   0.0000       0.044290         1.2052 
 116   0.0000       0.046510         1.2656 
 117   0.0000       0.047424         1.2905 
 118   0.0000       0.050935         1.3860 
 119   0.0000       0.053868         1.4658 
 120   0.0000       0.056072         1.5258 
 121   0.0000       0.060008         1.6329 
 122   0.0000       0.061234         1.6663 
 123   0.0000       0.066396         1.8067 
 124   0.0000       0.070034         1.9057 
 125   0.0000       0.070509         1.9187 
 126   0.0000       0.072095         1.9618 
 127   0.0000       0.074962         2.0398 
 128   0.0000       0.077198         2.1007 
 129   0.0000       0.081665         2.2222 
 130   0.0000       0.082987         2.2582 
 131   0.0000       0.086601         2.3565 
 132   0.0000       0.090416         2.4603 
 133   0.0000       0.093765         2.5515 
 134   0.0000       0.094170         2.5625 
 135   0.0000       0.095477         2.5981 
 136   0.0000       0.103995         2.8298 
 137   0.0000       0.104175         2.8347 
 138   0.0000       0.108552         2.9538 
 139   0.0000       0.108810         2.9609 
 140   0.0000       0.110862         3.0167 
 141   0.0000       0.115722         3.1490 
 142   0.0000       0.119484         3.2513 
 143   0.0000       0.120471         3.2782 
 144   0.0000       0.127758         3.4765 
 145   0.0000       0.131582         3.5805 
 146   0.0000       0.134607         3.6628 
 147   0.0000       0.136962         3.7269 
 148   0.0000       0.138784         3.7765 
 149   0.0000       0.140275         3.8171 
 150   0.0000       0.143175         3.8960 
 151   0.0000       0.149352         4.0641 
 152   0.0000       0.153420         4.1748 
 153   0.0000       0.154934         4.2160 
 154   0.0000       0.157814         4.2943 
 155   0.0000       0.160955         4.3798 
 156   0.0000       0.163677         4.4539 
 157   0.0000       0.165794         4.5115 
 158   0.0000       0.167811         4.5664 
 159   0.0000       0.170790         4.6474 
 160   0.0000       0.173778         4.7287 
 161   0.0000       0.176820         4.8115 
 162   0.0000       0.178304         4.8519 
 163   0.0000       0.181723         4.9449 
 164   0.0000       0.186280         5.0689 
 165   0.0000       0.186662         5.0793 
 166   0.0000       0.187749         5.1089 
 167   0.0000       0.193146         5.2558 
 168   0.0000       0.195630         5.3234 
 169   0.0000       0.197161         5.3650 
 170   0.0000       0.199814         5.4372 
 171   0.0000       0.202618         5.5135 
 172   0.0000       0.202770         5.5176 
 173   0.0000       0.206701         5.6246 
 174   0.0000       0.211068         5.7435 
 175   0.0000       0.213509         5.8099 
 176   0.0000       0.217266         5.9121 
 177   0.0000       0.219211         5.9650 
 178   0.0000       0.221111         6.0167 
 179   0.0000       0.223547         6.0830 
 180   0.0000       0.226759         6.1704 
 181   0.0000       0.228097         6.2068 
 182   0.0000       0.228804         6.2261 
 183   0.0000       0.230751         6.2791 
 184   0.0000       0.232899         6.3375 
 185   0.0000       0.237367         6.4591 
 186   0.0000       0.237632         6.4663 
 187   0.0000       0.239310         6.5120 
 188   0.0000       0.241855         6.5812 
 189   0.0000       0.245837         6.6896 
 190   0.0000       0.247214         6.7270 
 191   0.0000       0.248906         6.7731 
 192   0.0000       0.255427         6.9505 
 193   0.0000       0.258400         7.0314 
 194   0.0000       0.259562         7.0630 
 195   0.0000       0.262723         7.1491 
 196   0.0000       0.265308         7.2194 
 197   0.0000       0.268097         7.2953 
 198   0.0000       0.268967         7.3190 
 199   0.0000       0.269507         7.3337 
 200   0.0000       0.272961         7.4277 
 201   0.0000       0.276063         7.5121 
 202   0.0000       0.277569         7.5530 
 203   0.0000       0.280811         7.6412 
 204   0.0000       0.284014         7.7284 
 205   0.0000       0.285688         7.7740 
 206   0.0000       0.288805         7.8588 
 207   0.0000       0.289234         7.8704 
 208   0.0000       0.291471         7.9313 
 209   0.0000       0.292838         7.9685 
 210   0.0000       0.296401         8.0655 
 211   0.0000       0.296798         8.0763 
 212   0.0000       0.300644         8.1809 
 213   0.0000       0.302477         8.2308 
 214   0.0000       0.305663         8.3175 
 215   0.0000       0.307160         8.3583 
 216   0.0000       0.310435         8.4474 
 217   0.0000       0.312478         8.5030 
 218   0.0000       0.318173         8.6579 
 219   0.0000       0.319919         8.7054 
 220   0.0000       0.322142         8.7659 
 221   0.0000       0.324876         8.8403 
 222   0.0000       0.326753         8.8914 
 223   0.0000       0.328457         8.9378 
 224   0.0000       0.334804         9.1105 
 225   0.0000       0.338609         9.2140 
 226   0.0000       0.338830         9.2200 
 227   0.0000       0.341319         9.2878 
 228   0.0000       0.344377         9.3710 
 229   0.0000       0.346544         9.4299 
 230   0.0000       0.347769         9.4633 
 231   0.0000       0.348436         9.4814 
 232   0.0000       0.352046         9.5797 
 233   0.0000       0.354350         9.6424 
 234   0.0000       0.357399         9.7253 
 235   0.0000       0.358733         9.7616 
 236   0.0000       0.362466         9.8632 
 237   0.0000       0.368242        10.0204 
 238   0.0000       0.370943        10.0939 
 239   0.0000       0.371282        10.1031 
 240   0.0000       0.372458        10.1351 
 241   0.0000       0.376972        10.2579 
 242   0.0000       0.377594        10.2749 
 243   0.0000       0.382758        10.4154 
 244   0.0000       0.386343        10.5129 
 245   0.0000       0.388743        10.5782 
 246   0.0000       0.390644        10.6300 
 247   0.0000       0.399109        10.8603 
 248   0.0000       0.400568        10.9000 
 249   0.0000       0.403809        10.9882 
 250   0.0000       0.406804        11.0697 
 251   0.0000       0.411812        11.2060 
 252   0.0000       0.413623        11.2552 
 253   0.0000       0.416496        11.3334 
 254   0.0000       0.421980        11.4826 
 255   0.0000       0.424701        11.5567 
 256   0.0000       0.426303        11.6003 
 257   0.0000       0.429950        11.6995 
 258   0.0000       0.432455        11.7677 
 259   0.0000       0.435287        11.8448 
 260   0.0000       0.437764        11.9122 
 261   0.0000       0.441530        12.0146 
 262   0.0000       0.447616        12.1803 
 263   0.0000       0.450461        12.2577 
 264   0.0000       0.450911        12.2699 
 265   0.0000       0.455160        12.3855 
 266   0.0000       0.460756        12.5378 
 267   0.0000       0.461838        12.5672 
 268   0.0000       0.468635        12.7522 
 269   0.0000       0.481565        13.1040 
 270   0.0000       0.485037        13.1985 
 271   0.0000       0.486207        13.2304 
 272   0.0000       0.494258        13.4494 
 273   0.0000       0.495847        13.4927 
 274   0.0000       0.499084        13.5808 
 275   0.0000       0.505985        13.7685 
 276   0.0000       0.509307        13.8589 
 277   0.0000       0.519916        14.1476 
 278   0.0000       0.524216        14.2646 
 279   0.0000       0.530120        14.4253 
 280   0.0000       0.532045        14.4777 
 281   0.0000       0.543671        14.7941 
 282   0.0000       0.548346        14.9213 
 283   0.0000       0.553625        15.0649 
 284   0.0000       0.557949        15.1826 
 285   0.0000       0.567790        15.4503 
 286   0.0000       0.571403        15.5487 
 287   0.0000       0.575367        15.6565 
 288   0.0000       0.579665        15.7735 
 289   0.0000       0.588222        16.0063 
 290   0.0000       0.596365        16.2279 
[...]
 51:    567.07   0.009027   45.62  0.004967  (-0.064598  0.004548  0.027818)
 52:    581.87   0.010159   51.34  0.005448  ( 0.002274 -0.070631 -0.021316)
 53:    588.89   0.022980  116.13  0.012177  ( 0.096734 -0.047365  0.024008)
 54:    596.13   0.002471   12.49  0.001294  ( 0.035704 -0.004344  0.000376)
 55:    616.48   0.003197   16.15  0.001618  ( 0.040044 -0.003626 -0.001217)
 56:    644.89   0.003960   20.01  0.001916  (-0.029052  0.006079  0.032179)
 57:    652.02   0.000778    3.93  0.000372  (-0.011073 -0.015207  0.004315)
 58:    709.17   0.003009   15.21  0.001324  (-0.015090  0.026432 -0.019942)
 59:    748.93   0.009277   46.88  0.003866  ( 0.029093  0.046072 -0.029944)
 60:    752.59   0.000799    4.04  0.000331  ( 0.005281 -0.004700  0.016772)
 61:    756.10   0.001528    7.72  0.000631  (-0.013734  0.014599 -0.015135)
 62:    758.40   0.001958    9.89  0.000805  (-0.027031  0.004665 -0.007284)
 63:    774.17   0.002191   11.07  0.000883  ( 0.029707  0.000359  0.000803)
 64:    782.22   0.001194    6.04  0.000476  ( 0.011131  0.007797 -0.017080)
 65:    820.56   0.008311   42.00  0.003161  ( 0.054989  0.009540  0.006783)
 66:    824.00   0.002539   12.83  0.000962  (-0.020304  0.022307 -0.007192)
 67:    839.85   0.014637   73.97  0.005439  ( 0.027929 -0.067435  0.010536)
 68:    845.70   0.022700  114.72  0.008376  (-0.023246  0.022252  0.085678)
 69:    879.44   0.001042    5.27  0.000370  (-0.009734  0.011892 -0.011559)
 70:    891.17   0.042829  216.44  0.014998  ( 0.034754  0.080470  0.085524)
 71:    893.22   0.001736    8.77  0.000606  ( 0.004470 -0.005188 -0.023654)
 72:    918.40   0.010670   53.92  0.003625  (-0.052435  0.024222  0.017010)
 73:    921.32   0.004878   24.65  0.001652  (-0.033530  0.021835  0.007170)
 74:    924.44   0.003905   19.73  0.001318  (-0.029483  0.016548 -0.013229)
 75:    955.00   0.090092  455.29  0.029439  ( 0.139104  0.018219 -0.098778)
 76:    965.96   0.003754   18.97  0.001213  ( 0.014976 -0.000501  0.031434)
 77:    967.98   0.000814    4.11  0.000263  ( 0.001381  0.006333  0.014849)
 78:    972.06   0.001732    8.75  0.000556  ( 0.002519 -0.002134  0.023348)
 79:    975.25   0.009461   47.81  0.003027  ( 0.019474 -0.039480 -0.033005)
 80:    976.38   0.002487   12.57  0.000795  ( 0.017017 -0.021939 -0.004897)
 81:   1007.25   0.017483   88.35  0.005417  ( 0.035577 -0.060181 -0.023002)
 82:   1013.33   0.010014   50.60  0.003084  ( 0.004657  0.005908 -0.055020)
 83:   1055.48   0.025503  128.88  0.007540  ( 0.067494 -0.006914 -0.054195)
 84:   1056.24   0.026604  134.45  0.007860  ( 0.031037  0.082435 -0.010070)
 85:   1141.28   0.035468  179.24  0.009698  (-0.073552  0.015871 -0.063531)
 86:   1144.73   0.048289  244.03  0.013164  (-0.033440  0.108073 -0.019132)
 87:   1175.87   0.003024   15.28  0.000803  ( 0.022188 -0.017440  0.002494)
 88:   1176.63   0.002090   10.56  0.000554  ( 0.022361  0.006334  0.003772)
 89:   1184.10   0.001840    9.30  0.000485  (-0.010133  0.014701 -0.012889)
 90:   1191.45   0.002493   12.60  0.000653  ( 0.003713 -0.019175  0.016478)
 91:   1202.36   0.021717  109.75  0.005636  (-0.057964 -0.045796 -0.013392)
 92:   1203.72   0.057020  288.15  0.014782  (-0.115477 -0.037649  0.005477)
 93:   1205.60   0.078796  398.20  0.020396  ( 0.133415  0.034689  0.037324)
 94:   1220.55   0.017885   90.38  0.004573  (-0.001483 -0.062964 -0.024618)
 95:   1221.73   0.021333  107.81  0.005449  (-0.049064  0.052205 -0.017785)
 96:   1267.02   0.040317  203.75  0.009930  (-0.085734  0.050727 -0.002577)
 97:   1271.06   0.021074  106.50  0.005174  (-0.053546 -0.036047  0.031743)
 98:   1287.59   0.007564   38.22  0.001833  ( 0.031750  0.021007 -0.019589)
 99:   1289.77   0.032173  162.59  0.007784  ( 0.086390  0.012622 -0.012718)
100:   1304.16   0.143043  722.88  0.034228  (-0.135477  0.125028  0.015552)
101:   1312.50   0.013957   70.53  0.003318  (-0.049526 -0.029225  0.003383)
102:   1316.15   0.090628  458.00  0.021488  (-0.119468  0.084755  0.005689)
103:   1323.92   0.131014  662.09  0.030881  (-0.164934 -0.060649  0.000159)
104:   1346.52   0.001759    8.89  0.000408  ( 0.002864 -0.017293 -0.010022)
105:   1359.58   0.029602  149.60  0.006795  ( 0.082286 -0.002465  0.004188)
106:   1364.67   0.004074   20.59  0.000932  (-0.012884 -0.027257 -0.004775)
107:   1378.42   0.027107  136.99  0.006137  (-0.064562 -0.043767  0.007291)
108:   1383.09   0.031110  157.22  0.007019  (-0.076387  0.034415 -0.000090)
109:   1417.78   0.064138  324.13  0.014117  ( 0.114103  0.024349 -0.022468)
110:   1465.81   0.001296    6.55  0.000276  ( 0.014674 -0.007373  0.002507)
111:   1466.16   0.001013    5.12  0.000216  ( 0.009336  0.008574 -0.007412)
112:   1478.89   0.069041  348.90  0.014568  ( 0.077753  0.062942 -0.067536)
113:   1484.72   0.003113   15.73  0.000654  ( 0.001240 -0.025487  0.001787)
114:   1484.99   0.003200   16.17  0.000672  ( 0.015315 -0.003755  0.020586)
115:   1493.30   0.005447   27.53  0.001138  (-0.024669  0.022702 -0.003800)
116:   1493.38   0.016789   84.84  0.003508  ( 0.056102  0.011220 -0.015327)
117:   1494.25   0.000796    4.02  0.000166  ( 0.008849  0.002814  0.008940)
118:   1494.68   0.001121    5.67  0.000234  ( 0.011536  0.002504 -0.009733)
119:   1559.22   0.105542  533.37  0.021123  ( 0.142634  0.026816 -0.007733)
120:   1559.64   0.054458  275.21  0.010896  ( 0.057431 -0.087123  0.002748)
121:   1622.11   0.222709  1125.48  0.042845  (-0.137762  0.138942 -0.067541)
122:   1640.60   0.272207  1375.62  0.051777  (-0.037348  0.216421  0.059535)
123:   1660.57   0.011702   59.14  0.002199  (-0.008918  0.046024 -0.001131)
124:   1663.50   0.013763   69.55  0.002582  (-0.027910 -0.001616 -0.042429)
125:   1675.63   0.062329  314.98  0.011608  (-0.100297 -0.007138 -0.038696)
126:   1677.20   0.003036   15.34  0.000565  (-0.003584  0.022626  0.006336)
127:   1698.95   0.063395  320.37  0.011644  ( 0.075935 -0.076640 -0.002146)
128:   1712.79   0.096482  487.58  0.017579  (-0.110984 -0.038250 -0.061629)
129:   1758.81   0.039628  200.26  0.007031  ( 0.076764 -0.007017 -0.033003)
130:   3045.04   0.013134   66.37  0.001346  ( 0.003973 -0.036262  0.003903)
131:   3045.44   0.012955   65.47  0.001327  ( 0.019440  0.006927 -0.030026)
132:   3120.34   0.008483   42.87  0.000848  ( 0.026168  0.005541  0.011530)
133:   3120.63   0.008308   41.98  0.000831  (-0.015393  0.024228 -0.002617)
134:   3165.62   0.007251   36.64  0.000715  ( 0.013787  0.006197 -0.022052)
135:   3166.56   0.006865   34.69  0.000677  ( 0.022669  0.009592  0.008404)
136:   3169.24   0.001107    5.59  0.000109  (-0.009906 -0.002694 -0.001903)
137:   3170.25   0.001777    8.98  0.000175  ( 0.009453  0.005884 -0.007137)
138:   3181.54   0.003051   15.42  0.000299  (-0.015227 -0.007793 -0.002578)
139:   3182.79   0.002958   14.95  0.000290  ( 0.013575 -0.010276 -0.000341)
140:   3188.80   0.001471    7.44  0.000144  ( 0.010106  0.005385 -0.003587)
141:   3196.16   0.001074    5.43  0.000105  ( 0.009102 -0.004601 -0.000943)
142:   3197.52   0.002531   12.79  0.000247  ( 0.000147 -0.003960  0.015207)
143:   3198.17   0.002177   11.00  0.000212  (-0.006064 -0.013059 -0.002267)
144:   3203.82   0.000937    4.73  0.000091  (-0.004015 -0.004783  0.007227)
145:   3207.53   0.001156    5.84  0.000113  ( 0.010345  0.002337 -0.000182)
146:   3216.92   0.000046    0.23  0.000004  (-0.000394  0.002032 -0.000374)
147:   3285.30   0.421354  2129.35  0.040023  (-0.153607  0.121389  0.041148)
148:   3799.62   0.039905  201.66  0.003277  (-0.041688 -0.006382 -0.038714)
149:   3801.23   0.043035  217.48  0.003533  (-0.016704  0.056978  0.002735)

* The epsilon (eps) is given for a Dirac delta lineshape.
** The dipole moment derivative (T) already includes vibrational overlap.

The first frequency considered to be a vibration is 8
The total number of vibrations considered is 142


--------------------------
THERMOCHEMISTRY AT 298.15K
--------------------------

Temperature         ... 298.15 K
Pressure            ... 1.00 atm
Total Mass          ... 414.39 AMU

Throughout the following assumptions are being made:
  (1) The electronic state is orbitally nondegenerate
      but the spin degeneracy is treated
  (2) There are no thermally accessible electronically excited states
  (3) Hindered rotations indicated by low frequency modes are not
      treated as such but are treated as vibrations and this may
      cause some error
  (4) All equations used are the standard statistical mechanics
      equations for an ideal gas
  (5) All vibrations are strictly harmonic

freq.      22.22  E(vib)   ...       0.56 
freq.      28.28  E(vib)   ...       0.55 
freq.      30.20  E(vib)   ...       0.55 
freq.      37.89  E(vib)   ...       0.54 
freq.      47.41  E(vib)   ...       0.53 
freq.      53.03  E(vib)   ...       0.52 
freq.      57.89  E(vib)   ...       0.51 
freq.      62.46  E(vib)   ...       0.51 
freq.      70.98  E(vib)   ...       0.50 
freq.      83.78  E(vib)   ...       0.48 
freq.      87.30  E(vib)   ...       0.48 
freq.     106.05  E(vib)   ...       0.45 
freq.     128.57  E(vib)   ...       0.43 
freq.     134.49  E(vib)   ...       0.42 
freq.     147.38  E(vib)   ...       0.41 
freq.     153.13  E(vib)   ...       0.40 
freq.     163.46  E(vib)   ...       0.39 
freq.     163.98  E(vib)   ...       0.39 
freq.     169.67  E(vib)   ...       0.38 
freq.     173.64  E(vib)   ...       0.38 
freq.     177.64  E(vib)   ...       0.37 
freq.     186.28  E(vib)   ...       0.37 
freq.     201.59  E(vib)   ...       0.35 
freq.     219.46  E(vib)   ...       0.33 
freq.     233.33  E(vib)   ...       0.32 
freq.     298.83  E(vib)   ...       0.26 
freq.     305.26  E(vib)   ...       0.26 
freq.     313.67  E(vib)   ...       0.25 
freq.     332.36  E(vib)   ...       0.24 
freq.     335.52  E(vib)   ...       0.24 
freq.     339.66  E(vib)   ...       0.23 
freq.     369.38  E(vib)   ...       0.21 
freq.     398.02  E(vib)   ...       0.20 
freq.     398.86  E(vib)   ...       0.19 
freq.     409.26  E(vib)   ...       0.19 
freq.     415.63  E(vib)   ...       0.18 
freq.     430.24  E(vib)   ...       0.18 
freq.     470.15  E(vib)   ...       0.16 
freq.     476.08  E(vib)   ...       0.15 
freq.     503.95  E(vib)   ...       0.14 
freq.     508.79  E(vib)   ...       0.14 
freq.     536.40  E(vib)   ...       0.12 
freq.     559.53  E(vib)   ...       0.12 
freq.     567.07  E(vib)   ...       0.11 
freq.     581.87  E(vib)   ...       0.11 
freq.     588.89  E(vib)   ...       0.10 
freq.     596.13  E(vib)   ...       0.10 
freq.     616.48  E(vib)   ...       0.09 
freq.     644.89  E(vib)   ...       0.09 
freq.     652.02  E(vib)   ...       0.08 
freq.     709.17  E(vib)   ...       0.07 
freq.     748.93  E(vib)   ...       0.06 
freq.     752.59  E(vib)   ...       0.06 
freq.     756.10  E(vib)   ...       0.06 
freq.     758.40  E(vib)   ...       0.06 
freq.     774.17  E(vib)   ...       0.05 
freq.     782.22  E(vib)   ...       0.05 
freq.     820.56  E(vib)   ...       0.05 
freq.     824.00  E(vib)   ...       0.05 
freq.     839.85  E(vib)   ...       0.04 
freq.     845.70  E(vib)   ...       0.04 
freq.     879.44  E(vib)   ...       0.04 
freq.     891.17  E(vib)   ...       0.04 
freq.     893.22  E(vib)   ...       0.03 
freq.     918.40  E(vib)   ...       0.03 
freq.     921.32  E(vib)   ...       0.03 
freq.     924.44  E(vib)   ...       0.03 
freq.     955.00  E(vib)   ...       0.03 
freq.     965.96  E(vib)   ...       0.03 
freq.     967.98  E(vib)   ...       0.03 
freq.     972.06  E(vib)   ...       0.03 
freq.     975.25  E(vib)   ...       0.03 
freq.     976.38  E(vib)   ...       0.03 
freq.    1007.25  E(vib)   ...       0.02 
freq.    1013.33  E(vib)   ...       0.02 
freq.    1055.48  E(vib)   ...       0.02 
freq.    1056.24  E(vib)   ...       0.02 
freq.    1141.28  E(vib)   ...       0.01 
freq.    1144.73  E(vib)   ...       0.01 
freq.    1175.87  E(vib)   ...       0.01 
freq.    1176.63  E(vib)   ...       0.01 
freq.    1184.10  E(vib)   ...       0.01 
freq.    1191.45  E(vib)   ...       0.01 
freq.    1202.36  E(vib)   ...       0.01 
freq.    1203.72  E(vib)   ...       0.01 
freq.    1205.60  E(vib)   ...       0.01 
freq.    1220.55  E(vib)   ...       0.01 
freq.    1221.73  E(vib)   ...       0.01 
freq.    1267.02  E(vib)   ...       0.01 
freq.    1271.06  E(vib)   ...       0.01 
freq.    1287.59  E(vib)   ...       0.01 
freq.    1289.77  E(vib)   ...       0.01 
freq.    1304.16  E(vib)   ...       0.01 
freq.    1312.50  E(vib)   ...       0.01 
freq.    1316.15  E(vib)   ...       0.01 
freq.    1323.92  E(vib)   ...       0.01 
freq.    1346.52  E(vib)   ...       0.01 
freq.    1359.58  E(vib)   ...       0.01 
freq.    1364.67  E(vib)   ...       0.01 
freq.    1378.42  E(vib)   ...       0.01 
freq.    1383.09  E(vib)   ...       0.01 
freq.    1417.78  E(vib)   ...       0.00 
freq.    1465.81  E(vib)   ...       0.00 
freq.    1466.16  E(vib)   ...       0.00 
freq.    1478.89  E(vib)   ...       0.00 
freq.    1484.72  E(vib)   ...       0.00 
freq.    1484.99  E(vib)   ...       0.00 
freq.    1493.30  E(vib)   ...       0.00 
freq.    1493.38  E(vib)   ...       0.00 
freq.    1494.25  E(vib)   ...       0.00 
freq.    1494.68  E(vib)   ...       0.00 
freq.    1559.22  E(vib)   ...       0.00 
freq.    1559.64  E(vib)   ...       0.00 
freq.    1622.11  E(vib)   ...       0.00 
freq.    1640.60  E(vib)   ...       0.00 
freq.    1660.57  E(vib)   ...       0.00 
freq.    1663.50  E(vib)   ...       0.00 
freq.    1675.63  E(vib)   ...       0.00 
freq.    1677.20  E(vib)   ...       0.00 
freq.    1698.95  E(vib)   ...       0.00 
freq.    1712.79  E(vib)   ...       0.00 
freq.    1758.81  E(vib)   ...       0.00 
freq.    3045.04  E(vib)   ...       0.00 
freq.    3045.44  E(vib)   ...       0.00 
freq.    3120.34  E(vib)   ...       0.00 
freq.    3120.63  E(vib)   ...       0.00 
freq.    3165.62  E(vib)   ...       0.00 
freq.    3166.56  E(vib)   ...       0.00 
freq.    3169.24  E(vib)   ...       0.00 
freq.    3170.25  E(vib)   ...       0.00 
freq.    3181.54  E(vib)   ...       0.00 
freq.    3182.79  E(vib)   ...       0.00 
freq.    3188.80  E(vib)   ...       0.00 
freq.    3196.16  E(vib)   ...       0.00 
freq.    3197.52  E(vib)   ...       0.00 
freq.    3198.17  E(vib)   ...       0.00 
freq.    3203.82  E(vib)   ...       0.00 
freq.    3207.53  E(vib)   ...       0.00 
freq.    3216.92  E(vib)   ...       0.00 
freq.    3285.30  E(vib)   ...       0.00 
freq.    3799.62  E(vib)   ...       0.00 
freq.    3801.23  E(vib)   ...       0.00 

------------
INNER ENERGY
------------

The inner energy is: U= E(el) + E(ZPE) + E(vib) + E(rot) + E(trans)
    E(el)   - is the total energy from the electronic structure calculation
              = E(kin-el) + E(nuc-el) + E(el-el) + E(nuc-nuc)
    E(ZPE)  - the the zero temperature vibrational energy from the frequency calculation
    E(vib)  - the the finite temperature correction to E(ZPE) due to population
              of excited vibrational states
    E(rot)  - is the rotational thermal energy
    E(trans)- is the translational thermal energy

Summary of contributions to the inner energy U:
Electronic energy                ...  -1468.53384871 Eh
Zero point energy                ...      0.37934137 Eh     238.04 kcal/mol
Thermal vibrational correction   ...      0.02637605 Eh      16.55 kcal/mol
Thermal rotational correction    ...      0.00141627 Eh       0.89 kcal/mol
Thermal translational correction ...      0.00141627 Eh       0.89 kcal/mol
-----------------------------------------------------------------------
Total thermal energy                  -1468.12529875 Eh


Summary of corrections to the electronic energy:
(perhaps to be used in another calculation)
Total thermal correction                  0.02920859 Eh      18.33 kcal/mol
Non-thermal (ZPE) correction              0.37934137 Eh     238.04 kcal/mol
-----------------------------------------------------------------------
Total correction                          0.40854996 Eh     256.37 kcal/mol


--------
ENTHALPY
--------

The enthalpy is H = U + kB*T
                kB is Boltzmann's constant
Total free energy                 ...  -1468.12529875 Eh 
Thermal Enthalpy correction       ...      0.00094421 Eh       0.59 kcal/mol
-----------------------------------------------------------------------
Total Enthalpy                    ...  -1468.12435454 Eh


Note: Only C1 symmetry has been detected, increase convergence thresholds 
      if your molecule has a higher symmetry. Symmetry factor of 1.0 is   
      used for the rotational entropy correction. 
 

Note: Rotational entropy computed according to Herzberg 
Infrared and Raman Spectra, Chapter V,1, Van Nostrand Reinhold, 1945 
Point Group:  C1, Symmetry Number:   1  
Rotational constants in cm-1:     0.006427     0.001740     0.001448 

Vibrational entropy computed according to the QRRHO of S. Grimme
Chem.Eur.J. 2012 18 9955


-------
ENTROPY
-------

The entropy contributions are T*S = T*(S(el)+S(vib)+S(rot)+S(trans))
     S(el)   - electronic entropy
     S(vib)  - vibrational entropy
     S(rot)  - rotational entropy
     S(trans)- translational entropy
The entropies will be listed as multiplied by the temperature to get
units of energy

Electronic entropy                ...      0.00065446 Eh      0.41 kcal/mol
Vibrational entropy               ...      0.04785432 Eh     30.03 kcal/mol
Rotational entropy                ...      0.01797940 Eh     11.28 kcal/mol
Translational entropy             ...      0.02088467 Eh     13.11 kcal/mol
-----------------------------------------------------------------------
Final entropy term                ...      0.08737284 Eh     54.83 kcal/mol

In case the symmetry of your molecule has not been determined correctly
or in case you have a reason to use a different symmetry number we print 
out the resulting rotational entropy values for sn=1,12 :
 --------------------------------------------------------
|  sn= 1 | S(rot)=       0.01797940 Eh     11.28 kcal/mol|
|  sn= 2 | S(rot)=       0.01732494 Eh     10.87 kcal/mol|
|  sn= 3 | S(rot)=       0.01694211 Eh     10.63 kcal/mol|
|  sn= 4 | S(rot)=       0.01667049 Eh     10.46 kcal/mol|
|  sn= 5 | S(rot)=       0.01645980 Eh     10.33 kcal/mol|
|  sn= 6 | S(rot)=       0.01628766 Eh     10.22 kcal/mol|
|  sn= 7 | S(rot)=       0.01614211 Eh     10.13 kcal/mol|
|  sn= 8 | S(rot)=       0.01601603 Eh     10.05 kcal/mol|
|  sn= 9 | S(rot)=       0.01590482 Eh      9.98 kcal/mol|
|  sn=10 | S(rot)=       0.01580534 Eh      9.92 kcal/mol|
|  sn=11 | S(rot)=       0.01571535 Eh      9.86 kcal/mol|
|  sn=12 | S(rot)=       0.01563320 Eh      9.81 kcal/mol|
 --------------------------------------------------------


-------------------
GIBBS FREE ENERGY
-------------------

The Gibbs free energy is G = H - T*S

Total enthalpy                    ...  -1468.12435454 Eh 
Total entropy correction          ...     -0.08737284 Eh    -54.83 kcal/mol
-----------------------------------------------------------------------
Final Gibbs free energy         ...  -1468.21172738 Eh

For completeness - the Gibbs free energy minus the electronic energy
G-E(el)                           ...      0.32212133 Eh    202.13 kcal/mol



Timings for individual modules:

Sum of individual times         ...   714564.871 sec (=11909.415 min)
GTO integral calculation        ...       41.410 sec (=   0.690 min)   0.0 %
SCF iterations                  ...    70130.891 sec (=1168.848 min)   9.8 %
SCF Gradient evaluation         ...    10226.380 sec (= 170.440 min)   1.4 %
Geometry relaxation             ...        1.838 sec (=   0.031 min)   0.0 %
Numerical frequency calculation ...   634164.352 sec (=10569.406 min)  88.7 %
                             ****ORCA TERMINATED NORMALLY****
TOTAL RUN TIME: 8 days 6 hours 10 minutes 28 seconds 672 msec
