 Entering Gaussian System, Link 0=g16
 Initial command:
 /sw/cluster/pub/apps//g16/l1.exe "/data/mmaximo/25533/Gau-2212138.inp" -scrdir="/data/mmaximo/25533/"
 Entering Link 1 = /sw/cluster/pub/apps//g16/l1.exe PID=   2212139.
  
 Copyright (c) 1988,1990,1992,1993,1995,1998,2003,2009,2016,
            Gaussian, Inc.  All Rights Reserved.
  
 This is part of the Gaussian(R) 16 program.  It is based on
 the Gaussian(R) 09 system (copyright 2009, Gaussian, Inc.),
 the Gaussian(R) 03 system (copyright 2003, Gaussian, Inc.),
 the Gaussian(R) 98 system (copyright 1998, Gaussian, Inc.),
 the Gaussian(R) 94 system (copyright 1995, Gaussian, Inc.),
 the Gaussian 92(TM) system (copyright 1992, Gaussian, Inc.),
 the Gaussian 90(TM) system (copyright 1990, Gaussian, Inc.),
 the Gaussian 88(TM) system (copyright 1988, Gaussian, Inc.),
 the Gaussian 86(TM) system (copyright 1986, Carnegie Mellon
 University), and the Gaussian 82(TM) system (copyright 1983,
 Carnegie Mellon University). Gaussian is a federally registered
 trademark of Gaussian, Inc.
  
 This software contains proprietary and confidential information,
 including trade secrets, belonging to Gaussian, Inc.
  
 This software is provided under written license and may be
 used, copied, transmitted, or stored only in accord with that
 written license.
  
 The following legend is applicable only to US Government
 contracts under FAR:
  
                    RESTRICTED RIGHTS LEGEND
  
 Use, reproduction and disclosure by the US Government is
 subject to restrictions as set forth in subparagraphs (a)
 and (c) of the Commercial Computer Software - Restricted
 Rights clause in FAR 52.227-19.
  
 Gaussian, Inc.
 340 Quinnipiac St., Bldg. 40, Wallingford CT 06492
  
  
 ---------------------------------------------------------------
 Warning -- This program may not be used in any manner that
 competes with the business of Gaussian, Inc. or will provide
 assistance to any competitor of Gaussian, Inc.  The licensee
 of this program is prohibited from giving any competitor of
 Gaussian, Inc. access to this program.  By using this program,
 the user acknowledges that Gaussian, Inc. is engaged in the
 business of creating and licensing software in the field of
 computational chemistry and represents and warrants to the
 licensee that it is not a competitor of Gaussian, Inc. and that
 it will not use this program in any manner prohibited above.
 ---------------------------------------------------------------
  

 Cite this work as:
 Gaussian 16, Revision A.03,
 M. J. Frisch, G. W. Trucks, H. B. Schlegel, G. E. Scuseria, 
 M. A. Robb, J. R. Cheeseman, G. Scalmani, V. Barone, 
 G. A. Petersson, H. Nakatsuji, X. Li, M. Caricato, A. V. Marenich, 
 J. Bloino, B. G. Janesko, R. Gomperts, B. Mennucci, H. P. Hratchian, 
 J. V. Ortiz, A. F. Izmaylov, J. L. Sonnenberg, D. Williams-Young, 
 F. Ding, F. Lipparini, F. Egidi, J. Goings, B. Peng, A. Petrone, 
 T. Henderson, D. Ranasinghe, V. G. Zakrzewski, J. Gao, N. Rega, 
 G. Zheng, W. Liang, M. Hada, M. Ehara, K. Toyota, R. Fukuda, 
 J. Hasegawa, M. Ishida, T. Nakajima, Y. Honda, O. Kitao, H. Nakai, 
 T. Vreven, K. Throssell, J. A. Montgomery, Jr., J. E. Peralta, 
 F. Ogliaro, M. J. Bearpark, J. J. Heyd, E. N. Brothers, K. N. Kudin, 
 V. N. Staroverov, T. A. Keith, R. Kobayashi, J. Normand, 
 K. Raghavachari, A. P. Rendell, J. C. Burant, S. S. Iyengar, 
 J. Tomasi, M. Cossi, J. M. Millam, M. Klene, C. Adamo, R. Cammi, 
 J. W. Ochterski, R. L. Martin, K. Morokuma, O. Farkas, 
 J. B. Foresman, and D. J. Fox, Gaussian, Inc., Wallingford CT, 2016.
 
 ******************************************
 Gaussian 16:  ES64L-G16RevA.03 25-Dec-2016
                20-Nov-2024 
 ******************************************
 %chk=CURCUMIN-OPT-FREQ-Prod-B3LYP-6-311G-D-363.chk
 ----------------------------------------------------------------------
 # opt=(calcfc) freq=noraman b3lyp/6-311g(d) scrf=(smd,solvent=generic,
 read) temperature=363.15 SCF=(MaxCycle=500)
 ----------------------------------------------------------------------
 1/10=4,18=20,19=15,26=3,38=1,40=2,112=363150/1,3;
 2/9=110,12=2,17=6,18=5,40=1/2;
 3/5=4,6=6,7=1,11=2,25=1,30=1,70=32203,71=2,72=-2,74=-5,140=1/1,2,3;
 4//1;
 5/5=2,7=500,38=5/2;
 8/6=4,10=90,11=11/1;
 11/6=1,8=1,9=11,15=111,16=1/1,2,10;
 10/6=1,13=1/2;
 6/7=2,8=2,9=2,10=2,28=1/1;
 7/10=1,18=20,25=1/1,2,3,16;
 1/10=4,18=20,19=15,26=3/3(2);
 2/9=110/2;
 99//99;
 2/9=110/2;
 3/5=4,6=6,7=1,11=2,25=1,30=1,70=32205,71=1,72=-2,74=-5/1,2,3;
 4/5=5,16=3,69=1/1;
 5/5=2,7=500,38=5/2;
 7//1,2,3,16;
 1/18=20,19=15,26=3/3(-5);
 2/9=110/2;
 6/7=2,8=2,9=2,10=2,19=2,28=1/1;
 99/9=1/99;
 ---
 XXX
 ---
 Symbolic Z-matrix:
 Charge =  0 Multiplicity = 2
 C                    -2.70606   0.25508  -0.19933 
 H                    -2.41365   0.95345  -0.97915 
 C                    -1.83253  -0.02274   0.79259 
 H                    -2.09149  -0.72436   1.58017 
 C                    -0.46772   0.5082    0.94103 
 O                     0.25161   0.09722   1.86074 
 C                    -4.04464  -0.29118  -0.37093 
 C                    -4.80762   0.12619  -1.47355 
 C                    -4.61986  -1.22918   0.51001 
 C                    -6.09143  -0.35965  -1.68287 
 H                    -4.39056   0.84506  -2.17123 
 C                    -5.89855  -1.72122   0.31526 
 H                    -4.08007  -1.58611   1.37977 
 C                    -6.65291  -1.27779  -0.79499 
 H                    -6.67293  -0.01825  -2.53481 
 O                    -7.91077  -1.76443  -0.93606 
 H                    -8.32323  -1.38295  -1.72402 
 O                    -6.43285  -2.57834   1.23962 
 C                    -6.64663  -3.92644   0.79199 
 H                    -5.70652  -4.37361   0.45281 
 H                    -7.01541  -4.4759    1.65762 
 H                    -7.38699  -3.97026  -0.0087 
 C                     2.69561   0.06086  -0.02281 
 H                     1.78647  -0.52653  -0.09076 
 C                     2.58654   1.40826   0.05028 
 H                     3.46451   2.04591   0.08572 
 C                     1.34203   2.15065  -0.02103 
 O                     1.3848    3.39138  -0.16025 
 C                     3.91506  -0.72438  -0.03611 
 C                     3.81205  -2.12277  -0.13352 
 C                     5.20648  -0.1615    0.03586 
 C                     4.9435   -2.92551  -0.14659 
 H                     2.83146  -2.58322  -0.19192 
 C                     6.34327  -0.94885   0.0258 
 H                     5.34859   0.90999   0.11522 
 C                     6.21463  -2.35473  -0.06162 
 H                     4.84696  -4.0058   -0.21086 
 O                     7.35144  -3.09058  -0.04424 
 H                     7.13484  -4.03212  -0.10311 
 O                     7.56915  -0.35694   0.16712 
 C                     8.42085  -0.39999  -0.9893 
 H                     7.93353   0.07888  -1.8447 
 H                     9.31649   0.16081  -0.72407 
 H                     8.6963   -1.42436  -1.24613 
 C                     0.00262   1.53622   0.013 
 H                    -0.72717   2.05167  -0.60036 
 H                     0.07476   4.43042  -0.39033 
 O                    -0.67897   5.05541  -0.56849 
 O                    -2.10566   6.09034   0.62812 
 N                    -1.19204   5.34253   0.68534 
 
 Add virtual bond connecting atoms H47        and O28        Dist= 3.19D+00.

 GradGradGradGradGradGradGradGradGradGradGradGradGradGradGradGradGradGrad
 Berny optimization.
 Initialization pass.
                           ----------------------------
                           !    Initial Parameters    !
                           ! (Angstroms and Degrees)  !
 --------------------------                            --------------------------
 ! Name  Definition              Value          Derivative Info.                !
 --------------------------------------------------------------------------------
 ! R1    R(1,2)                  1.0869         calculate D2E/DX2 analytically  !
 ! R2    R(1,3)                  1.3506         calculate D2E/DX2 analytically  !
 ! R3    R(1,7)                  1.4559         calculate D2E/DX2 analytically  !
 ! R4    R(3,4)                  1.0861         calculate D2E/DX2 analytically  !
 ! R5    R(3,5)                  1.472          calculate D2E/DX2 analytically  !
 ! R6    R(5,6)                  1.2378         calculate D2E/DX2 analytically  !
 ! R7    R(5,45)                 1.4626         calculate D2E/DX2 analytically  !
 ! R8    R(7,8)                  1.4043         calculate D2E/DX2 analytically  !
 ! R9    R(7,9)                  1.4095         calculate D2E/DX2 analytically  !
 ! R10   R(8,10)                 1.3885         calculate D2E/DX2 analytically  !
 ! R11   R(8,11)                 1.0851         calculate D2E/DX2 analytically  !
 ! R12   R(9,12)                 1.3839         calculate D2E/DX2 analytically  !
 ! R13   R(9,13)                 1.0841         calculate D2E/DX2 analytically  !
 ! R14   R(10,14)                1.3952         calculate D2E/DX2 analytically  !
 ! R15   R(10,15)                1.0865         calculate D2E/DX2 analytically  !
 ! R16   R(12,14)                1.4136         calculate D2E/DX2 analytically  !
 ! R17   R(12,18)                1.3691         calculate D2E/DX2 analytically  !
 ! R18   R(14,16)                1.3561         calculate D2E/DX2 analytically  !
 ! R19   R(16,17)                0.9677         calculate D2E/DX2 analytically  !
 ! R20   R(18,19)                1.4365         calculate D2E/DX2 analytically  !
 ! R21   R(19,20)                1.0949         calculate D2E/DX2 analytically  !
 ! R22   R(19,21)                1.0896         calculate D2E/DX2 analytically  !
 ! R23   R(19,22)                1.0914         calculate D2E/DX2 analytically  !
 ! R24   R(23,24)                1.0845         calculate D2E/DX2 analytically  !
 ! R25   R(23,25)                1.3538         calculate D2E/DX2 analytically  !
 ! R26   R(23,29)                1.4505         calculate D2E/DX2 analytically  !
 ! R27   R(25,26)                1.0857         calculate D2E/DX2 analytically  !
 ! R28   R(25,27)                1.4509         calculate D2E/DX2 analytically  !
 ! R29   R(27,28)                1.2492         calculate D2E/DX2 analytically  !
 ! R30   R(27,45)                1.474          calculate D2E/DX2 analytically  !
 ! R31   R(28,47)                1.6878         calculate D2E/DX2 analytically  !
 ! R32   R(29,30)                1.4056         calculate D2E/DX2 analytically  !
 ! R33   R(29,31)                1.4106         calculate D2E/DX2 analytically  !
 ! R34   R(30,32)                1.3874         calculate D2E/DX2 analytically  !
 ! R35   R(30,33)                1.0849         calculate D2E/DX2 analytically  !
 ! R36   R(31,34)                1.3829         calculate D2E/DX2 analytically  !
 ! R37   R(31,35)                1.0838         calculate D2E/DX2 analytically  !
 ! R38   R(32,36)                1.396          calculate D2E/DX2 analytically  !
 ! R39   R(32,37)                1.0865         calculate D2E/DX2 analytically  !
 ! R40   R(34,36)                1.4145         calculate D2E/DX2 analytically  !
 ! R41   R(34,40)                1.3686         calculate D2E/DX2 analytically  !
 ! R42   R(36,38)                1.3543         calculate D2E/DX2 analytically  !
 ! R43   R(38,39)                0.9679         calculate D2E/DX2 analytically  !
 ! R44   R(40,41)                1.4369         calculate D2E/DX2 analytically  !
 ! R45   R(41,42)                1.0948         calculate D2E/DX2 analytically  !
 ! R46   R(41,43)                1.0895         calculate D2E/DX2 analytically  !
 ! R47   R(41,44)                1.0914         calculate D2E/DX2 analytically  !
 ! R48   R(45,46)                1.0837         calculate D2E/DX2 analytically  !
 ! R49   R(47,48)                0.9952         calculate D2E/DX2 analytically  !
 ! R50   R(48,50)                1.3848         calculate D2E/DX2 analytically  !
 ! R51   R(49,50)                1.182          calculate D2E/DX2 analytically  !
 ! A1    A(2,1,3)              119.0187         calculate D2E/DX2 analytically  !
 ! A2    A(2,1,7)              113.8202         calculate D2E/DX2 analytically  !
 ! A3    A(3,1,7)              127.1597         calculate D2E/DX2 analytically  !
 ! A4    A(1,3,4)              120.7461         calculate D2E/DX2 analytically  !
 ! A5    A(1,3,5)              126.8382         calculate D2E/DX2 analytically  !
 ! A6    A(4,3,5)              112.3935         calculate D2E/DX2 analytically  !
 ! A7    A(3,5,6)              119.6034         calculate D2E/DX2 analytically  !
 ! A8    A(3,5,45)             119.1895         calculate D2E/DX2 analytically  !
 ! A9    A(6,5,45)             121.1932         calculate D2E/DX2 analytically  !
 ! A10   A(1,7,8)              118.7223         calculate D2E/DX2 analytically  !
 ! A11   A(1,7,9)              123.451          calculate D2E/DX2 analytically  !
 ! A12   A(8,7,9)              117.8256         calculate D2E/DX2 analytically  !
 ! A13   A(7,8,10)             121.1115         calculate D2E/DX2 analytically  !
 ! A14   A(7,8,11)             119.5315         calculate D2E/DX2 analytically  !
 ! A15   A(10,8,11)            119.356          calculate D2E/DX2 analytically  !
 ! A16   A(7,9,12)             121.7173         calculate D2E/DX2 analytically  !
 ! A17   A(7,9,13)             121.1532         calculate D2E/DX2 analytically  !
 ! A18   A(12,9,13)            117.1245         calculate D2E/DX2 analytically  !
 ! A19   A(8,10,14)            120.4249         calculate D2E/DX2 analytically  !
 ! A20   A(8,10,15)            120.2049         calculate D2E/DX2 analytically  !
 ! A21   A(14,10,15)           119.3662         calculate D2E/DX2 analytically  !
 ! A22   A(9,12,14)            119.4773         calculate D2E/DX2 analytically  !
 ! A23   A(9,12,18)            119.2195         calculate D2E/DX2 analytically  !
 ! A24   A(14,12,18)           121.2227         calculate D2E/DX2 analytically  !
 ! A25   A(10,14,12)           119.4379         calculate D2E/DX2 analytically  !
 ! A26   A(10,14,16)           122.9047         calculate D2E/DX2 analytically  !
 ! A27   A(12,14,16)           117.6536         calculate D2E/DX2 analytically  !
 ! A28   A(14,16,17)           109.7904         calculate D2E/DX2 analytically  !
 ! A29   A(12,18,19)           115.7985         calculate D2E/DX2 analytically  !
 ! A30   A(18,19,20)           110.612          calculate D2E/DX2 analytically  !
 ! A31   A(18,19,21)           106.0252         calculate D2E/DX2 analytically  !
 ! A32   A(18,19,22)           111.5457         calculate D2E/DX2 analytically  !
 ! A33   A(20,19,21)           109.3156         calculate D2E/DX2 analytically  !
 ! A34   A(20,19,22)           109.8027         calculate D2E/DX2 analytically  !
 ! A35   A(21,19,22)           109.4508         calculate D2E/DX2 analytically  !
 ! A36   A(24,23,25)           118.3536         calculate D2E/DX2 analytically  !
 ! A37   A(24,23,29)           114.2668         calculate D2E/DX2 analytically  !
 ! A38   A(25,23,29)           127.3762         calculate D2E/DX2 analytically  !
 ! A39   A(23,25,26)           121.4115         calculate D2E/DX2 analytically  !
 ! A40   A(23,25,27)           125.1504         calculate D2E/DX2 analytically  !
 ! A41   A(26,25,27)           113.2494         calculate D2E/DX2 analytically  !
 ! A42   A(25,27,28)           118.967          calculate D2E/DX2 analytically  !
 ! A43   A(25,27,45)           124.403          calculate D2E/DX2 analytically  !
 ! A44   A(28,27,45)           116.5953         calculate D2E/DX2 analytically  !
 ! A45   A(27,28,47)           126.872          calculate D2E/DX2 analytically  !
 ! A46   A(23,29,30)           118.5308         calculate D2E/DX2 analytically  !
 ! A47   A(23,29,31)           123.5873         calculate D2E/DX2 analytically  !
 ! A48   A(30,29,31)           117.8809         calculate D2E/DX2 analytically  !
 ! A49   A(29,30,32)           121.1007         calculate D2E/DX2 analytically  !
 ! A50   A(29,30,33)           119.4876         calculate D2E/DX2 analytically  !
 ! A51   A(32,30,33)           119.41           calculate D2E/DX2 analytically  !
 ! A52   A(29,31,34)           121.6704         calculate D2E/DX2 analytically  !
 ! A53   A(29,31,35)           121.2182         calculate D2E/DX2 analytically  !
 ! A54   A(34,31,35)           117.1064         calculate D2E/DX2 analytically  !
 ! A55   A(30,32,36)           120.3616         calculate D2E/DX2 analytically  !
 ! A56   A(30,32,37)           120.2251         calculate D2E/DX2 analytically  !
 ! A57   A(36,32,37)           119.409          calculate D2E/DX2 analytically  !
 ! A58   A(31,34,36)           119.446          calculate D2E/DX2 analytically  !
 ! A59   A(31,34,40)           119.2959         calculate D2E/DX2 analytically  !
 ! A60   A(36,34,40)           121.1787         calculate D2E/DX2 analytically  !
 ! A61   A(32,36,34)           119.5354         calculate D2E/DX2 analytically  !
 ! A62   A(32,36,38)           122.8852         calculate D2E/DX2 analytically  !
 ! A63   A(34,36,38)           117.5758         calculate D2E/DX2 analytically  !
 ! A64   A(36,38,39)           109.8716         calculate D2E/DX2 analytically  !
 ! A65   A(34,40,41)           115.7767         calculate D2E/DX2 analytically  !
 ! A66   A(40,41,42)           110.6028         calculate D2E/DX2 analytically  !
 ! A67   A(40,41,43)           106.0176         calculate D2E/DX2 analytically  !
 ! A68   A(40,41,44)           111.538          calculate D2E/DX2 analytically  !
 ! A69   A(42,41,43)           109.3291         calculate D2E/DX2 analytically  !
 ! A70   A(42,41,44)           109.8172         calculate D2E/DX2 analytically  !
 ! A71   A(43,41,44)           109.4469         calculate D2E/DX2 analytically  !
 ! A72   A(5,45,27)            126.8577         calculate D2E/DX2 analytically  !
 ! A73   A(5,45,46)            118.4803         calculate D2E/DX2 analytically  !
 ! A74   A(27,45,46)           113.6146         calculate D2E/DX2 analytically  !
 ! A75   A(47,48,50)           104.4012         calculate D2E/DX2 analytically  !
 ! A76   A(48,50,49)           111.944          calculate D2E/DX2 analytically  !
 ! A77   L(28,47,48,1,-1)      181.2865         calculate D2E/DX2 analytically  !
 ! A78   L(28,47,48,1,-2)      182.4615         calculate D2E/DX2 analytically  !
 ! D1    D(2,1,3,4)           -179.3439         calculate D2E/DX2 analytically  !
 ! D2    D(2,1,3,5)             -1.1918         calculate D2E/DX2 analytically  !
 ! D3    D(7,1,3,4)              0.1973         calculate D2E/DX2 analytically  !
 ! D4    D(7,1,3,5)            178.3495         calculate D2E/DX2 analytically  !
 ! D5    D(2,1,7,8)             -0.5928         calculate D2E/DX2 analytically  !
 ! D6    D(2,1,7,9)            179.0093         calculate D2E/DX2 analytically  !
 ! D7    D(3,1,7,8)            179.8456         calculate D2E/DX2 analytically  !
 ! D8    D(3,1,7,9)             -0.5522         calculate D2E/DX2 analytically  !
 ! D9    D(1,3,5,6)           -175.4351         calculate D2E/DX2 analytically  !
 ! D10   D(1,3,5,45)             5.905          calculate D2E/DX2 analytically  !
 ! D11   D(4,3,5,6)              2.8473         calculate D2E/DX2 analytically  !
 ! D12   D(4,3,5,45)          -175.8126         calculate D2E/DX2 analytically  !
 ! D13   D(3,5,45,27)         -177.8679         calculate D2E/DX2 analytically  !
 ! D14   D(3,5,45,46)           14.6364         calculate D2E/DX2 analytically  !
 ! D15   D(6,5,45,27)            3.4942         calculate D2E/DX2 analytically  !
 ! D16   D(6,5,45,46)         -164.0015         calculate D2E/DX2 analytically  !
 ! D17   D(1,7,8,10)          -179.7967         calculate D2E/DX2 analytically  !
 ! D18   D(1,7,8,11)            -0.1779         calculate D2E/DX2 analytically  !
 ! D19   D(9,7,8,10)             0.5786         calculate D2E/DX2 analytically  !
 ! D20   D(9,7,8,11)          -179.8026         calculate D2E/DX2 analytically  !
 ! D21   D(1,7,9,12)           179.7434         calculate D2E/DX2 analytically  !
 ! D22   D(1,7,9,13)             0.5768         calculate D2E/DX2 analytically  !
 ! D23   D(8,7,9,12)            -0.6511         calculate D2E/DX2 analytically  !
 ! D24   D(8,7,9,13)          -179.8177         calculate D2E/DX2 analytically  !
 ! D25   D(7,8,10,14)            0.0472         calculate D2E/DX2 analytically  !
 ! D26   D(7,8,10,15)          179.3143         calculate D2E/DX2 analytically  !
 ! D27   D(11,8,10,14)        -179.5723         calculate D2E/DX2 analytically  !
 ! D28   D(11,8,10,15)          -0.3052         calculate D2E/DX2 analytically  !
 ! D29   D(7,9,12,14)            0.0964         calculate D2E/DX2 analytically  !
 ! D30   D(7,9,12,18)         -176.6822         calculate D2E/DX2 analytically  !
 ! D31   D(13,9,12,14)         179.2951         calculate D2E/DX2 analytically  !
 ! D32   D(13,9,12,18)           2.5165         calculate D2E/DX2 analytically  !
 ! D33   D(8,10,14,12)          -0.6169         calculate D2E/DX2 analytically  !
 ! D34   D(8,10,14,16)         178.6549         calculate D2E/DX2 analytically  !
 ! D35   D(15,10,14,12)       -179.8901         calculate D2E/DX2 analytically  !
 ! D36   D(15,10,14,16)         -0.6184         calculate D2E/DX2 analytically  !
 ! D37   D(9,12,14,10)           0.5442         calculate D2E/DX2 analytically  !
 ! D38   D(9,12,14,16)        -178.7655         calculate D2E/DX2 analytically  !
 ! D39   D(18,12,14,10)        177.2565         calculate D2E/DX2 analytically  !
 ! D40   D(18,12,14,16)         -2.0533         calculate D2E/DX2 analytically  !
 ! D41   D(9,12,18,19)        -112.6498         calculate D2E/DX2 analytically  !
 ! D42   D(14,12,18,19)         70.6296         calculate D2E/DX2 analytically  !
 ! D43   D(10,14,16,17)          0.27           calculate D2E/DX2 analytically  !
 ! D44   D(12,14,16,17)        179.554          calculate D2E/DX2 analytically  !
 ! D45   D(12,18,19,20)         58.3843         calculate D2E/DX2 analytically  !
 ! D46   D(12,18,19,21)        176.7898         calculate D2E/DX2 analytically  !
 ! D47   D(12,18,19,22)        -64.1392         calculate D2E/DX2 analytically  !
 ! D48   D(24,23,25,26)       -177.8885         calculate D2E/DX2 analytically  !
 ! D49   D(24,23,25,27)         -3.2249         calculate D2E/DX2 analytically  !
 ! D50   D(29,23,25,26)          1.4015         calculate D2E/DX2 analytically  !
 ! D51   D(29,23,25,27)        176.0652         calculate D2E/DX2 analytically  !
 ! D52   D(24,23,29,30)          0.0592         calculate D2E/DX2 analytically  !
 ! D53   D(24,23,29,31)        179.6824         calculate D2E/DX2 analytically  !
 ! D54   D(25,23,29,30)       -179.2555         calculate D2E/DX2 analytically  !
 ! D55   D(25,23,29,31)          0.3677         calculate D2E/DX2 analytically  !
 ! D56   D(23,25,27,28)       -168.461          calculate D2E/DX2 analytically  !
 ! D57   D(23,25,27,45)          9.3204         calculate D2E/DX2 analytically  !
 ! D58   D(26,25,27,28)          6.5833         calculate D2E/DX2 analytically  !
 ! D59   D(26,25,27,45)       -175.6354         calculate D2E/DX2 analytically  !
 ! D60   D(25,27,28,47)        174.6708         calculate D2E/DX2 analytically  !
 ! D61   D(45,27,28,47)         -3.2821         calculate D2E/DX2 analytically  !
 ! D62   D(25,27,45,5)          46.5627         calculate D2E/DX2 analytically  !
 ! D63   D(25,27,45,46)       -145.4252         calculate D2E/DX2 analytically  !
 ! D64   D(28,27,45,5)        -135.6081         calculate D2E/DX2 analytically  !
 ! D65   D(28,27,45,46)         32.404          calculate D2E/DX2 analytically  !
 ! D66   D(27,28,48,50)         84.3617         calculate D2E/DX2 analytically  !
 ! D67   D(23,29,30,32)       -179.7953         calculate D2E/DX2 analytically  !
 ! D68   D(23,29,30,33)         -0.2632         calculate D2E/DX2 analytically  !
 ! D69   D(31,29,30,32)          0.5598         calculate D2E/DX2 analytically  !
 ! D70   D(31,29,30,33)       -179.908          calculate D2E/DX2 analytically  !
 ! D71   D(23,29,31,34)        179.7206         calculate D2E/DX2 analytically  !
 ! D72   D(23,29,31,35)          0.5637         calculate D2E/DX2 analytically  !
 ! D73   D(30,29,31,34)         -0.6539         calculate D2E/DX2 analytically  !
 ! D74   D(30,29,31,35)       -179.8109         calculate D2E/DX2 analytically  !
 ! D75   D(29,30,32,36)          0.0467         calculate D2E/DX2 analytically  !
 ! D76   D(29,30,32,37)        179.294          calculate D2E/DX2 analytically  !
 ! D77   D(33,30,32,36)       -179.4858         calculate D2E/DX2 analytically  !
 ! D78   D(33,30,32,37)         -0.2384         calculate D2E/DX2 analytically  !
 ! D79   D(29,31,34,36)          0.1394         calculate D2E/DX2 analytically  !
 ! D80   D(29,31,34,40)       -176.6586         calculate D2E/DX2 analytically  !
 ! D81   D(35,31,34,36)        179.3294         calculate D2E/DX2 analytically  !
 ! D82   D(35,31,34,40)          2.5315         calculate D2E/DX2 analytically  !
 ! D83   D(30,32,36,34)         -0.5763         calculate D2E/DX2 analytically  !
 ! D84   D(30,32,36,38)        178.7072         calculate D2E/DX2 analytically  !
 ! D85   D(37,32,36,34)       -179.8298         calculate D2E/DX2 analytically  !
 ! D86   D(37,32,36,38)         -0.5462         calculate D2E/DX2 analytically  !
 ! D87   D(31,34,36,32)          0.4829         calculate D2E/DX2 analytically  !
 ! D88   D(31,34,36,38)       -178.8383         calculate D2E/DX2 analytically  !
 ! D89   D(40,34,36,32)        177.2189         calculate D2E/DX2 analytically  !
 ! D90   D(40,34,36,38)         -2.1024         calculate D2E/DX2 analytically  !
 ! D91   D(31,34,40,41)       -112.2534         calculate D2E/DX2 analytically  !
 ! D92   D(36,34,40,41)         71.0059         calculate D2E/DX2 analytically  !
 ! D93   D(32,36,38,39)          0.294          calculate D2E/DX2 analytically  !
 ! D94   D(34,36,38,39)        179.5908         calculate D2E/DX2 analytically  !
 ! D95   D(34,40,41,42)         58.274          calculate D2E/DX2 analytically  !
 ! D96   D(34,40,41,43)        176.6863         calculate D2E/DX2 analytically  !
 ! D97   D(34,40,41,44)        -64.2563         calculate D2E/DX2 analytically  !
 ! D98   D(47,48,50,49)        179.7479         calculate D2E/DX2 analytically  !
 --------------------------------------------------------------------------------
 Trust Radius=3.00D-01 FncErr=1.00D-07 GrdErr=1.00D-06 EigMax=2.50D+02 EigMin=1.00D-04
 Number of steps in this run=    237 maximum allowed number of steps=    300.
 GradGradGradGradGradGradGradGradGradGradGradGradGradGradGradGradGradGrad

                          Input orientation:                          
 ---------------------------------------------------------------------
 Center     Atomic      Atomic             Coordinates (Angstroms)
 Number     Number       Type             X           Y           Z
 ---------------------------------------------------------------------
      1          6           0       -2.706063    0.255079   -0.199328
      2          1           0       -2.413647    0.953447   -0.979154
      3          6           0       -1.832525   -0.022744    0.792593
      4          1           0       -2.091485   -0.724356    1.580170
      5          6           0       -0.467715    0.508197    0.941029
      6          8           0        0.251613    0.097224    1.860741
      7          6           0       -4.044642   -0.291176   -0.370933
      8          6           0       -4.807618    0.126191   -1.473548
      9          6           0       -4.619859   -1.229182    0.510014
     10          6           0       -6.091430   -0.359650   -1.682865
     11          1           0       -4.390562    0.845057   -2.171226
     12          6           0       -5.898547   -1.721223    0.315258
     13          1           0       -4.080067   -1.586109    1.379766
     14          6           0       -6.652908   -1.277794   -0.794985
     15          1           0       -6.672929   -0.018250   -2.534810
     16          8           0       -7.910772   -1.764431   -0.936055
     17          1           0       -8.323230   -1.382950   -1.724018
     18          8           0       -6.432848   -2.578340    1.239615
     19          6           0       -6.646625   -3.926444    0.791993
     20          1           0       -5.706524   -4.373609    0.452807
     21          1           0       -7.015406   -4.475895    1.657622
     22          1           0       -7.386988   -3.970264   -0.008702
     23          6           0        2.695606    0.060859   -0.022810
     24          1           0        1.786470   -0.526532   -0.090764
     25          6           0        2.586543    1.408258    0.050277
     26          1           0        3.464509    2.045912    0.085717
     27          6           0        1.342031    2.150652   -0.021029
     28          8           0        1.384803    3.391378   -0.160254
     29          6           0        3.915058   -0.724381   -0.036111
     30          6           0        3.812047   -2.122765   -0.133519
     31          6           0        5.206478   -0.161500    0.035858
     32          6           0        4.943503   -2.925505   -0.146594
     33          1           0        2.831461   -2.583220   -0.191924
     34          6           0        6.343265   -0.948854    0.025795
     35          1           0        5.348594    0.909989    0.115219
     36          6           0        6.214632   -2.354729   -0.061623
     37          1           0        4.846963   -4.005805   -0.210855
     38          8           0        7.351444   -3.090582   -0.044242
     39          1           0        7.134844   -4.032121   -0.103107
     40          8           0        7.569150   -0.356935    0.167124
     41          6           0        8.420854   -0.399991   -0.989296
     42          1           0        7.933525    0.078878   -1.844700
     43          1           0        9.316487    0.160809   -0.724072
     44          1           0        8.696302   -1.424360   -1.246130
     45          6           0        0.002617    1.536218    0.012995
     46          1           0       -0.727169    2.051671   -0.600355
     47          1           0        0.074762    4.430422   -0.390325
     48          8           0       -0.678967    5.055408   -0.568489
     49          8           0       -2.105655    6.090339    0.628115
     50          7           0       -1.192038    5.342529    0.685339
 ---------------------------------------------------------------------
                    Distance matrix (angstroms):
                    1          2          3          4          5
     1  C    0.000000
     2  H    1.086901   0.000000
     3  C    1.350615   2.104695   0.000000
     4  H    2.122172   3.077166   1.086093   0.000000
     5  C    2.524814   2.769838   1.471950   2.136426   0.000000
     6  O    3.607859   3.987698   2.344987   2.498764   1.237821
     7  C    1.455897   2.139898   2.513824   2.794507   3.892897
     8  C    2.461053   2.580673   3.742827   4.174446   4.981051
     9  C    2.523651   3.442218   3.050340   2.791551   4.521566
    10  C    3.746930   3.968063   4.937577   5.174937   6.266111
    11  H    2.659698   2.311055   4.010094   4.671379   5.018798
    12  C    3.789792   4.579726   4.432292   4.133699   5.903883
    13  H    2.787723   3.845881   2.800058   2.176520   4.198535
    14  C    4.275756   4.794131   5.227968   5.172450   6.667842
    15  H    4.611422   4.637429   5.873767   6.198490   7.131850
    16  O    5.631180   6.132463   6.554905   6.424737   8.005459
    17  H    6.046518   6.398183   7.093148   7.084211   8.508115
    18  O    4.897729   5.792273   5.281465   4.732934   6.722996
    19  C    5.830599   6.698388   6.197938   5.623512   7.607048
    20  H    5.554530   6.424257   5.835525   5.258945   7.177431
    21  H    6.663394   7.589896   6.887749   6.190722   8.259960
    22  H    6.308797   7.065326   6.861272   6.411145   8.296683
    23  C    5.408041   5.274066   4.601722   5.109046   3.337019
    24  H    4.561311   4.540986   3.759155   4.227256   2.686375
    25  C    5.422527   5.125279   4.703930   5.364006   3.306364
    26  H    6.431508   6.072903   5.730408   6.385675   4.307959
    27  C    4.473483   4.056651   3.932358   4.755895   2.626480
    28  O    5.154909   4.587192   4.786998   5.661530   3.599636
    29  C    6.695164   6.614903   5.849253   6.220203   4.656474
    30  C    6.938604   6.995530   6.093354   6.304282   5.137410
    31  C    7.926989   7.767861   7.080923   7.480773   5.784833
    32  C    8.284610   8.358653   7.431194   7.570854   6.500347
    33  H    6.222553   6.374865   5.410922   5.552575   4.661009
    34  C    9.131838   9.017327   8.263728   8.579714   7.024963
    35  H    8.087357   7.839128   7.273053   7.757057   5.888366
    36  C    9.295637   9.286177   8.421673   8.622365   7.338625
    37  H    8.671993   8.826150   7.841380   7.881481   7.067450
    38  O   10.600516  10.610619   9.718910   9.869481   8.663788
    39  H   10.734654  10.807267   9.863625   9.944842   8.916480
    40  O   10.299944  10.133474   9.428382   9.770341   8.120257
    41  C   11.174142  10.918714  10.413896  10.826663   9.140986
    42  H   10.767503  10.420077  10.116391  10.624300   8.861458
    43  H   12.034365  11.759651  11.253197  11.671970   9.930954
    44  H   11.572823  11.364691  10.815596  11.173823   9.617570
    45  C    3.003888   2.676250   2.530984   3.457094   1.462630
    46  H    2.702700   2.047875   2.732273   3.784491   2.196700
    47  H    5.020255   4.316046   4.986755   5.928508   4.177396
    48  O    5.223845   4.472566   5.382459   6.325948   4.795873
    49  O    5.924138   5.391274   6.121392   6.880892   5.825897
    50  N    5.381176   4.850454   5.404432   6.198130   4.894976
                    6          7          8          9         10
     6  O    0.000000
     7  C    4.856854   0.000000
     8  C    6.059219   1.404310   0.000000
     9  C    5.226381   1.409538   2.409732   0.000000
    10  C    7.280115   2.432117   1.388535   2.780346   0.000000
    11  H    6.194013   2.156790   1.085108   3.397660   2.140740
    12  C    6.596949   2.439848   2.793366   1.383863   2.425609
    13  H    4.672087   2.177855   3.406274   1.084085   3.863870
    14  C    7.524358   2.820689   2.415930   2.416335   1.395198
    15  H    8.202651   3.415369   2.150936   3.866834   1.086511
    16  O    8.826798   4.175740   3.673270   3.634242   2.416845
    17  H    9.411129   4.618347   3.834028   4.327759   2.455559
    18  O    7.226788   3.678113   4.161384   2.374758   3.685111
    19  C    8.057159   4.619295   4.993844   3.385634   4.376663
    20  H    7.580899   4.484045   4.976653   3.327392   4.563016
    21  H    8.588611   5.518365   5.988134   4.194853   5.381083
    22  H    8.853672   4.983791   5.057654   3.929326   4.185430
    23  C    3.085804   6.758407   7.642466   7.447425   8.952352
    24  H    2.559928   5.842581   6.769057   6.472689   8.038902
    25  C    3.232412   6.858433   7.657634   7.687631   9.024217
    26  H    4.155815   7.877681   8.633928   8.732885  10.011522
    27  C    2.991093   5.924627   6.635242   6.873821   8.019954
    28  O    4.027405   6.563876   7.122659   7.606234   8.501918
    29  C    4.206413   7.978508   8.881147   8.567257  10.147642
    30  C    4.645655   8.070852   9.008446   8.503509  10.177814
    31  C    5.286570   9.260967  10.131298   9.895538  11.429611
    32  C    5.931283   9.368926  10.303301   9.734811  11.433000
    33  H    4.248980   7.250262   8.206034   7.605807   9.315855
    34  C    6.447444  10.416263  11.302475  10.977392  12.565362
    35  H    5.448546   9.482195  10.309567  10.203037  11.649860
    36  C    6.727938  10.469318  11.385890  10.907787  12.571711
    37  H    6.499508   9.637673  10.577274   9.891916  11.623670
    38  O    8.012407  11.739428  12.658331  12.127824  13.814990
    39  H    8.263598  11.791832  12.719751  12.099811  13.817272
    40  O    7.524689  11.626435  12.494383  12.224988  13.785279
    41  C    8.666397  12.481298  13.247786  13.152782  14.528904
    42  H    8.528916  12.074163  12.746636  12.839126  14.032742
    43  H    9.426412  13.373435  14.144018  14.059758  15.446490
    44  H    9.125823  12.821144  13.594550  13.432881  14.832443
    45  C    2.355179   4.457250   5.228417   5.409413   6.603610
    46  H    3.291636   4.067824   4.595650   5.210562   5.980100
    47  H    4.886223   6.266048   6.598288   7.408184   7.914378
    48  O    5.599172   6.320819   6.493233   7.495990   7.736888
    49  O    6.556943   6.743997   6.876675   7.740191   7.926499
    50  N    5.565871   6.402475   6.703983   7.414046   7.882086
                   11         12         13         14         15
    11  H    0.000000
    12  C    3.878455   0.000000
    13  H    4.314686   2.111469   0.000000
    14  C    3.393928   1.413623   3.382915   0.000000
    15  H    2.467122   3.409204   4.950255   2.147986   0.000000
    16  O    4.552686   2.369958   4.479858   1.356075   2.671595
    17  H    4.542014   3.186246   5.261101   1.914193   2.289822
    18  O    5.246372   1.369147   2.557292   2.424756   4.567054
    19  C    6.052909   2.376951   3.522764   3.087699   5.132474
    20  H    5.987636   2.662883   3.357793   3.469394   5.369259
    21  H    7.061332   3.261523   4.128472   4.046546   6.128978
    22  H    6.069794   2.716356   4.306712   2.899398   4.744420
    23  C    7.446102   8.783483   7.112627   9.475387   9.699786
    24  H    6.660728   7.787915   6.140148   8.501966   8.820042
    25  C    7.343859   9.047686   7.428153   9.659027   9.718818
    26  H    8.260629  10.095089   8.472707  10.685728  10.672187
    27  C    6.260235   8.217693   6.732366   8.733401   8.675414
    28  O    6.624394   8.911340   7.550619   9.317127   9.065932
    29  C    8.718095   9.870360   8.165127  10.609621  10.901724
    30  C    8.957846   9.729248   8.053788  10.519829  10.960379
    31  C    9.898866  11.217503   9.490812  11.940747  12.155211
    32  C   10.268449  10.918500   9.249247  11.730819  12.210536
    33  H    8.235796   8.787111   7.157769   9.592762  10.119368
    34  C   11.102255  12.269568  10.530203  13.026219  13.298272
    35  H   10.004159  11.552553   9.835102  12.233189  12.345092
    36  C   11.276489  12.135587  10.423493  12.933337  13.329104
    37  H   10.616298  10.998277   9.384928  11.833439  12.410047
    38  O   12.565350  13.325414  11.617688  14.141135  14.571383
    39  H   12.684596  13.243284  11.573941  14.077184  14.583516
    40  O   12.245300  13.537433  11.776486  14.284277  14.500068
    41  C   12.925923  14.439278  12.778590  15.100550  15.177504
    42  H   12.352197  14.114957  12.549731  14.686950  14.623070
    43  H   13.800204  15.366181  13.672802  16.034219  16.092615
    44  H   13.314356  14.681133  13.044428  15.356538  15.487127
    45  C    4.954649   6.747297   5.318392   7.271005   7.312359
    46  H    4.164613   6.466547   5.328813   6.799824   6.586255
    47  H    5.997130   8.603546   7.522930   8.832272   8.361868
    48  O    5.837102   8.599288   7.711869   8.709117   8.095431
    49  O    6.369466   8.689327   7.961855   8.774515   8.257054
    50  N    6.214320   8.496163   7.538499   8.708682   8.315496
                   16         17         18         19         20
    16  O    0.000000
    17  H    0.967747   0.000000
    18  O    2.753225   3.712899   0.000000
    19  C    3.042781   3.951035   1.436472   0.000000
    20  H    3.687202   4.530978   2.090360   1.094894   0.000000
    21  H    3.857574   4.765732   2.028502   1.089591   1.781913
    22  H    2.449496   3.242384   2.099079   1.091407   1.788753
    23  C   10.800970  11.242484   9.585810  10.190180   9.512440
    24  H    9.812411  10.276527   8.575372   9.135412   8.440405
    25  C   11.010560  11.400093   9.932618  10.689274  10.117657
    26  H   12.039923  12.408990  10.985120  11.764476  11.200574
    27  C   10.088583  10.430905   9.187020  10.070289   9.616269
    28  O   10.657952  10.930941   9.935433  10.906930  10.533650
    29  C   11.905539  12.371679  10.589797  11.067435  10.301978
    30  C   11.755720  12.261401  10.346541  10.653340   9.798636
    31  C   13.250519  13.698252  11.948391  12.459639  11.705098
    32  C   12.930728  13.448939  11.465752  11.671071  10.764728
    33  H   10.799061  11.323210   9.374260   9.623225   8.747477
    34  C   14.309713  14.776886  12.936678  13.348796  12.534301
    35  H   13.567184  13.984246  12.338358  12.951231  12.257488
    36  C   14.164749  14.664834  12.716209  12.985025  12.101838
    37  H   12.973414  13.513808  11.461922  11.537529  10.580728
    38  O   15.345659  15.856641  13.853425  14.047914  13.130261
    39  H   15.238333  15.766975  13.711260  13.810911  12.857931
    40  O   15.582876  16.037358  14.217624  14.670382  13.872952
    41  C   16.388610  16.788996  15.177144  15.576835  14.746257
    42  H   15.977020  16.322794  14.932062  15.348470  14.531143
    43  H   17.335799  17.735352  16.105917  16.547659  15.736482
    44  H   16.613449  17.026290  15.375363  15.678641  14.799522
    45  C    8.626512   8.992135   7.736239   8.640598   8.228838
    46  H    8.141221   8.411860   7.574778   8.527394   8.196789
    47  H   10.121402  10.300500   9.701981  10.789445  10.566225
    48  O    9.947076  10.060937   9.728849  10.869108  10.734325
    49  O    9.891583  10.002041   9.707962  10.999237  11.067574
    50  N    9.913586  10.094106   9.513857  10.755359  10.716249
                   21         22         23         24         25
    21  H    0.000000
    22  H    1.780554   0.000000
    23  C   10.849412  10.858584   0.000000
    24  H    9.804455   9.798896   1.084516   0.000000
    25  C   11.375598  11.331518   1.353780   2.098433   0.000000
    26  H   12.443210  12.407992   2.131531   3.076431   1.085672
    27  C   10.797025  10.661217   2.489860   2.714720   1.450877
    28  O   11.651702  11.452557   3.581822   3.939059   2.328361
    29  C   11.679796  11.758943   1.450463   2.138462   2.514073
    30  C   11.224043  11.351089   2.454977   2.579293   3.742160
    31  C   13.062104  13.156901   2.521381   3.441764   3.054244
    32  C   12.193212  12.375441   3.739884   3.965482   4.937157
    33  H   10.196265  10.313785   2.652962   2.309157   4.006313
    34  C   13.912475  14.058804   3.785142   4.577808   4.435035
    35  H   13.574065  13.639182   2.788982   3.846394   2.807386
    36  C   13.508851  13.697329   4.268503   4.790801   5.228348
    37  H   12.017820  12.235673   4.604504   4.635340   5.872799
    38  O   14.533472  14.764704   5.622176   6.127434   6.553837
    39  H   14.266278  14.522271   6.038689   6.394874   7.092834
    40  O   15.228155  15.387434   4.895106   5.790912   5.287337
    41  C   16.183241  16.235649   5.824512   6.696150   6.195939
    42  H   16.015079  15.952572   5.545755   6.420989   5.826526
    43  H   17.143577  17.221603   6.658665   7.587798   6.888243
    44  H   16.266573  16.330495   6.301646   7.063055   6.858101
    45  C    9.386317   9.215643   3.070856   2.729072   2.587361
    46  H    9.340744   8.998163   4.001535   3.636646   3.437730
    47  H   11.566635  11.242548   5.108519   5.252721   3.954320
    48  O   11.659836  11.259381   6.052357   6.120838   4.934382
    49  O   11.696617  11.380411   7.735014   7.710279   6.653758
    50  N   11.456806  11.206570   6.596309   6.627196   5.491764
                   26         27         28         29         30
    26  H    0.000000
    27  C    2.127740   0.000000
    28  O    2.489168   1.249245   0.000000
    29  C    2.809334   3.858304   4.832916   0.000000
    30  C    4.188880   4.937178   6.024782   1.405552   0.000000
    31  C    2.812403   4.503691   5.221743   1.410596   2.412403
    32  C    5.191953   6.225250   7.250348   2.432047   1.387355
    33  H    4.680459   4.965597   6.147328   2.157253   1.084887
    34  C    4.154449   5.884001   6.592312   2.439346   2.794729
    35  H    2.200220   4.196469   4.684529   2.179241   3.408877
    36  C    5.191390   6.636441   7.506978   2.818994   2.414827
    37  H    6.214693   7.086787   8.167462   3.415659   2.150086
    38  O    6.442726   7.973965   8.810793   4.172256   3.670418
    39  H    7.102781   8.472904   9.390132   4.616563   3.832433
    40  O    4.756930   6.715684   7.239004   3.678139   4.162255
    41  C    5.630582   7.586373   8.035409   4.616924   4.994137
    42  H    5.250508   7.146035   7.529660   4.479319   4.976138
    43  H    6.201211   8.248981   8.582894   5.516547   5.988516
    44  H    6.417808   8.268427   8.822045   4.981407   5.057828
    45  C    3.499968   1.474014   2.319929   4.518840   5.284068
    46  H    4.247457   2.151047   2.539474   5.438300   6.184524
    47  H    4.171677   2.634331   1.687825   6.437805   7.548345
    48  O    5.162697   3.580748   2.682312   7.402328   8.478477
    49  O    6.904948   5.275326   4.482099   9.117598  10.151569
    50  N    5.736781   4.136247   3.340977   7.963060   9.024523
                   31         32         33         34         35
    31  C    0.000000
    32  C    2.782475   0.000000
    33  H    3.399606   2.140078   0.000000
    34  C    1.382864   2.428209   3.879603   0.000000
    35  H    1.083782   3.865703   4.316573   2.110134   0.000000
    36  C    2.415808   1.395985   3.393381   1.414451   3.382259
    37  H    3.868953   1.086507   2.467054   3.411726   4.952069
    38  O    3.631366   2.415762   4.550766   2.368191   4.476763
    39  H    4.326617   2.455293   4.541620   3.185867   5.259544
    40  O    2.374372   3.686461   5.246995   1.368626   2.557080
    41  C    3.382312   4.379536   6.053396   2.376560   3.517781
    42  H    3.321305   4.566192   5.987444   2.661562   3.348716
    43  H    4.192082   5.383475   7.061759   3.260936   4.124301
    44  H    3.926472   4.188785   6.070475   2.716741   4.302279
    45  C    5.473841   6.659189   5.001412   6.810254   5.383501
    46  H    6.364830   7.558750   5.857720   7.706248   6.223374
    47  H    6.899412   8.824608   7.538563   8.270665   6.361000
    48  O    7.887955   9.771650   8.415078   9.258298   7.347343
    49  O    9.638649  11.470669  10.013901  11.013504   9.092025
    50  N    8.465056  10.329442   8.931721   9.838561   7.921636
                   36         37         38         39         40
    36  C    0.000000
    37  H    2.149149   0.000000
    38  O    1.354298   2.671670   0.000000
    39  H    1.913676   2.290568   0.967924   0.000000
    40  O    2.424505   4.568087   2.750436   3.710612   0.000000
    41  C    3.090145   5.136201   3.045660   3.953672   1.436858
    42  H    3.472233   5.374100   3.691334   4.535565   2.090487
    43  H    4.048243   6.131942   3.859418   4.767161   2.028664
    44  H    2.902986   4.749007   2.455499   3.247317   2.099322
    45  C    7.330359   7.364225   8.684228   9.049229   7.801295
    46  H    8.239854   8.241097   9.592498   9.953443   8.672907
    47  H    9.156655   9.694124  10.470691  11.024604   8.910409
    48  O   10.133546  10.619293  11.450742  11.993974   9.892725
    49  O   11.875272  12.287184  13.197655  13.725367  11.635364
    50  N   10.708151  11.165305  12.026668  12.563545  10.464743
                   41         42         43         44         45
    41  C    0.000000
    42  H    1.094770   0.000000
    43  H    1.089495   1.781882   0.000000
    44  H    1.091406   1.788809   1.780431   0.000000
    45  C    8.695988   8.274912   9.443685   9.269875   0.000000
    46  H    9.478831   8.969277  10.220846  10.064871   1.083733
    47  H    9.661724   9.100071  10.185797  10.456664   2.923062
    48  O   10.618154  10.028439  11.130607  11.416753   3.631443
    49  O   12.471880  11.959833  12.940366  13.291568   5.056006
    50  N   11.322042  10.834344  11.801091  12.136747   4.045646
                   46         47         48         49         50
    46  H    0.000000
    47  H    2.519060   0.000000
    48  O    3.004293   0.995217   0.000000
    49  O    4.440743   2.923485   2.130348   0.000000
    50  N    3.563546   1.895725   1.384834   1.182028   0.000000
 Stoichiometry    C21H20NO8(2)
 Framework group  C1[X(C21H20NO8)]
 Deg. of freedom   144
 Full point group                 C1      NOp   1
 Largest Abelian subgroup         C1      NOp   1
 Largest concise Abelian subgroup C1      NOp   1
                         Standard orientation:                         
 ---------------------------------------------------------------------
 Center     Atomic      Atomic             Coordinates (Angstroms)
 Number     Number       Type             X           Y           Z
 ---------------------------------------------------------------------
      1          6           0        2.706063    0.255079    0.199328
      2          1           0        2.413647    0.953447    0.979154
      3          6           0        1.832525   -0.022744   -0.792593
      4          1           0        2.091485   -0.724356   -1.580170
      5          6           0        0.467715    0.508197   -0.941029
      6          8           0       -0.251613    0.097224   -1.860741
      7          6           0        4.044642   -0.291176    0.370933
      8          6           0        4.807618    0.126191    1.473548
      9          6           0        4.619859   -1.229182   -0.510014
     10          6           0        6.091430   -0.359650    1.682865
     11          1           0        4.390562    0.845057    2.171226
     12          6           0        5.898547   -1.721223   -0.315258
     13          1           0        4.080067   -1.586109   -1.379766
     14          6           0        6.652908   -1.277794    0.794985
     15          1           0        6.672929   -0.018250    2.534810
     16          8           0        7.910772   -1.764431    0.936055
     17          1           0        8.323230   -1.382950    1.724018
     18          8           0        6.432848   -2.578340   -1.239615
     19          6           0        6.646625   -3.926444   -0.791993
     20          1           0        5.706524   -4.373609   -0.452807
     21          1           0        7.015406   -4.475895   -1.657622
     22          1           0        7.386988   -3.970264    0.008702
     23          6           0       -2.695606    0.060859    0.022810
     24          1           0       -1.786470   -0.526532    0.090764
     25          6           0       -2.586543    1.408258   -0.050277
     26          1           0       -3.464509    2.045912   -0.085717
     27          6           0       -1.342031    2.150652    0.021029
     28          8           0       -1.384803    3.391378    0.160254
     29          6           0       -3.915058   -0.724381    0.036111
     30          6           0       -3.812047   -2.122765    0.133519
     31          6           0       -5.206478   -0.161500   -0.035858
     32          6           0       -4.943503   -2.925505    0.146594
     33          1           0       -2.831461   -2.583220    0.191924
     34          6           0       -6.343265   -0.948854   -0.025795
     35          1           0       -5.348594    0.909989   -0.115219
     36          6           0       -6.214632   -2.354729    0.061623
     37          1           0       -4.846963   -4.005805    0.210855
     38          8           0       -7.351444   -3.090582    0.044242
     39          1           0       -7.134844   -4.032121    0.103107
     40          8           0       -7.569150   -0.356935   -0.167124
     41          6           0       -8.420854   -0.399991    0.989296
     42          1           0       -7.933525    0.078878    1.844700
     43          1           0       -9.316487    0.160809    0.724072
     44          1           0       -8.696302   -1.424360    1.246130
     45          6           0       -0.002617    1.536218   -0.012995
     46          1           0        0.727169    2.051671    0.600355
     47          1           0       -0.074762    4.430422    0.390325
     48          8           0        0.678967    5.055408    0.568489
     49          8           0        2.105655    6.090339   -0.628115
     50          7           0        1.192038    5.342529   -0.685339
 ---------------------------------------------------------------------
 Rotational constants (GHZ):           0.1744253           0.0494082           0.0400494
 Standard basis: 6-311G(d) (5D, 7F)
 There are   630 symmetry adapted cartesian basis functions of A   symmetry.
 There are   600 symmetry adapted basis functions of A   symmetry.
   600 basis functions,  1060 primitive gaussians,   630 cartesian basis functions
   109 alpha electrons      108 beta electrons
       nuclear repulsion energy      2538.9928752901 Hartrees.
 NAtoms=   50 NActive=   50 NUniq=   50 SFac= 1.00D+00 NAtFMM=   60 NAOKFM=F Big=F
 Integral buffers will be    131072 words long.
 Raffenetti 2 integral format.
 Two-electron integral symmetry is turned on.
 Force inversion solution in PCM.
 Using the following non-standard input for PCM:
 Eps=7
 EpsInf=1.85341
 HbondAcidity=0
 HbondBasicity=0.48
 SurfaceTensionAtInterface=60.62
 CarbonAromaticity=0
 ElectronegativeHalogenicity=0
 --- end of non-standard input.
 Force inversion solution in PCM.
 ------------------------------------------------------------------------------
 Polarizable Continuum Model (PCM)
 =================================
 Model                : PCM.
 Atomic radii         : SMD-Coulomb.
 Polarization charges : Total charges.
 Charge compensation  : None.
 Solution method      : Matrix inversion.
 Cavity type          : VdW (van der Waals Surface) (Alpha=1.000).
 Cavity algorithm     : GePol (No added spheres)
                        Default sphere list used, NSphG=   50.
                        Lebedev-Laikov grids with approx.  5.0 points / Ang**2.
                        Smoothing algorithm: York/Karplus (Gamma=1.0000).
                        Polarization charges: spherical gaussians, with
                                              point-specific exponents (IZeta= 3).
                        Self-potential: point-specific (ISelfS= 7).
                        Self-field    : sphere-specific E.n sum rule (ISelfD= 2).
 1st derivatives      : Analytical E(r).r(x)/FMM algorithm (CHGder, D1EAlg=3).
                        Cavity 1st derivative terms included.
 2nd derivatives      : Analytical E(r).r(xy)/FMM algorithm (CHGder, D2EAlg=3).
                        Cavity 2nd derivative terms included.
 Solvent              : Generic,
                        Eps                           =   7.000000
                        Eps(infinity)                 =   1.853410
                        RSolv                         =   0.000000 Ang.
                        Molar volume                  =   0.000000 cm**3/mol
                        Thermal expansion coefficient =   0.000000 K**-1
                        Absolute temperature          = 298.150000 K
                        Numeral density               =   0.000000 Ang**-3
                        Hydrogen bond acidity         =   0.000000
                        Hydrogen bond basicity        =   0.480000
                        Surface tension at interface  =  60.620000 (cal/mol)*Ang**-2
                        Carbon aromaticity            =   0.000000
                        Electronegative halogenicity  =   0.000000
 ------------------------------------------------------------------------------
 ------------------------------------------------------------------------------
 Atomic radii for non-electrostatic terms: SMD-CDS.
 ------------------------------------------------------------------------------
 Nuclear repulsion after PCM non-electrostatic terms =     2538.9908880238 Hartrees.
 One-electron integrals computed using PRISM.
 NBasis=   600 RedAO= T EigKep=  1.74D-04  NBF=   600
 NBsUse=   600 1.00D-06 EigRej= -1.00D+00 NBFU=   600
 ExpMin= 1.03D-01 ExpMax= 8.59D+03 ExpMxC= 1.30D+03 IAcc=3 IRadAn=         5 AccDes= 0.00D+00
 Harris functional with IExCor=  402 and IRadAn=       5 diagonalized for initial guess.
 HarFok:  IExCor=  402 AccDes= 0.00D+00 IRadAn=         5 IDoV= 1 UseB2=F ITyADJ=14
 ICtDFT=  3500011 ScaDFX=  1.000000  1.000000  1.000000  1.000000
 FoFCou: FMM=F IPFlag=           0 FMFlag=      100000 FMFlg1=           0
         NFxFlg=           0 DoJE=T BraDBF=F KetDBF=T FulRan=T
         wScrn=  0.000000 ICntrl=       500 IOpCl=  0 I1Cent=   200000004 NGrid=           0
         NMat0=    1 NMatS0=      1 NMatT0=    0 NMatD0=    1 NMtDS0=    0 NMtDT0=    0
 Petite list used in FoFCou.
 Initial guess <Sx>= 0.0000 <Sy>= 0.0000 <Sz>= 0.5000 <S**2>= 0.7500 S= 0.5000
 Requested convergence on RMS density matrix=1.00D-08 within 500 cycles.
 Requested convergence on MAX density matrix=1.00D-06.
 Requested convergence on             energy=1.00D-06.
 No special actions if energy rises.
 Inv3:  Mode=1 IEnd=    57238272.
 Iteration    1 A*A^-1 deviation from unit magnitude is 3.89D-15 for   2923.
 Iteration    1 A*A^-1 deviation from orthogonality  is 2.45D-15 for   1302    338.
 Iteration    1 A^-1*A deviation from unit magnitude is 3.66D-15 for   2923.
 Iteration    1 A^-1*A deviation from orthogonality  is 2.07D-15 for   3094   2323.
 EnCoef did     3 forward-backward iterations
 Restarting incremental Fock formation.
 Error on total polarization charges =  0.03510
 SCF Done:  E(UB3LYP) =  -1468.99018152     A.U. after   23 cycles
            NFock= 23  Conv=0.46D-08     -V/T= 2.0033
 <Sx>= 0.0000 <Sy>= 0.0000 <Sz>= 0.5000 <S**2>= 0.7618 S= 0.5059
 <L.S>=  0.00000000000    
 SMD-CDS (non-electrostatic) energy       (kcal/mol) =      -1.25
 (included in total energy above)
 Annihilation of the first spin contaminant:
 S**2 before annihilation     0.7618,   after     0.7501
 DoSCS=F DFT=T ScalE2(SS,OS)=  1.000000  1.000000
 Range of M.O.s used for correlation:     1   600
 NBasis=   600 NAE=   109 NBE=   108 NFC=     0 NFV=     0
 NROrb=    600 NOA=   109 NOB=   108 NVA=   491 NVB=   492

 **** Warning!!: The largest alpha MO coefficient is  0.16030292D+02


 **** Warning!!: The largest beta MO coefficient is  0.15652892D+02


 **** Warning!!: The smallest beta delta epsilon is  0.78445987D-01

 Symmetrizing basis deriv contribution to polar:
 IMax=3 JMax=2 DiffMx= 0.00D+00
 G2DrvN: will do    26 centers at a time, making    2 passes.
 Calling FoFCou, ICntrl=  3107 FMM=F I1Cent=   0 AccDes= 0.00D+00.
 Calling FoFCou, ICntrl=  3107 FMM=F I1Cent=   0 AccDes= 0.00D+00.
 NEqPCM:  Using equilibrium solvation (IEInf=0, Eps=   7.0000, EpsInf=   1.8534)
 G2PCM: DoFxE=T DoFxN=T DoGrad=T DoDP/DQ/DG/TGxP=FFFF NFrqRd=   0 IEInf=0 SqF1=F DoCFld=F IF1Alg=4.
 End of G2Drv F.D. properties file   721 does not exist.
 End of G2Drv F.D. properties file   722 does not exist.
 End of G2Drv F.D. properties file   788 does not exist.
          IDoAtm=11111111111111111111111111111111111111111111111111
 NEqPCM:  Using equilibrium solvation (IEInf=0, Eps=   7.0000, EpsInf=   1.8534)
          Differentiating once with respect to nuclear coordinates.
 CalDSu exits because no D1Ps are significant.
          There are   153 degrees of freedom in the 1st order CPHF.  IDoFFX=6 NUNeed=     0.
    150 vectors produced by pass  0 Test12= 1.07D-13 1.00D-09 XBig12= 3.66D-01 1.96D-01.
 AX will form    50 AO Fock derivatives at one time.
    150 vectors produced by pass  1 Test12= 1.07D-13 1.00D-09 XBig12= 3.16D-02 2.71D-02.
    149 vectors produced by pass  2 Test12= 1.07D-13 1.00D-09 XBig12= 5.93D-04 3.69D-03.
    147 vectors produced by pass  3 Test12= 1.07D-13 1.00D-09 XBig12= 4.31D-06 2.40D-04.
    147 vectors produced by pass  4 Test12= 1.07D-13 1.00D-09 XBig12= 3.65D-08 1.87D-05.
    146 vectors produced by pass  5 Test12= 1.07D-13 1.00D-09 XBig12= 1.49D-10 8.28D-07.
    105 vectors produced by pass  6 Test12= 1.07D-13 1.00D-09 XBig12= 6.72D-13 4.66D-08.
     22 vectors produced by pass  7 Test12= 1.07D-13 1.00D-09 XBig12= 4.90D-15 2.93D-09.
     13 vectors produced by pass  8 Test12= 1.07D-13 1.00D-09 XBig12= 3.34D-15 3.71D-09.
      4 vectors produced by pass  9 Test12= 1.07D-13 1.00D-09 XBig12= 1.11D-15 1.80D-09.
      2 vectors produced by pass 10 Test12= 1.07D-13 1.00D-09 XBig12= 1.07D-15 1.49D-09.
 InvSVY:  IOpt=1 It=  1 EMax= 7.77D-16
 Solved reduced A of dimension  1035 with   153 vectors.
 End of Minotr F.D. properties file   721 does not exist.
 End of Minotr F.D. properties file   722 does not exist.
 End of Minotr F.D. properties file   788 does not exist.

 **********************************************************************

            Population analysis using the SCF density.

 **********************************************************************

 Orbital symmetries:
 Alpha Orbitals:
       Occupied  (A) (A) (A) (A) (A) (A) (A) (A) (A) (A) (A) (A)
                 (A) (A) (A) (A) (A) (A) (A) (A) (A) (A) (A) (A)
                 (A) (A) (A) (A) (A) (A) (A) (A) (A) (A) (A) (A)
                 (A) (A) (A) (A) (A) (A) (A) (A) (A) (A) (A) (A)
                 (A) (A) (A) (A) (A) (A) (A) (A) (A) (A) (A) (A)
                 (A) (A) (A) (A) (A) (A) (A) (A) (A) (A) (A) (A)
                 (A) (A) (A) (A) (A) (A) (A) (A) (A) (A) (A) (A)
                 (A) (A) (A) (A) (A) (A) (A) (A) (A) (A) (A) (A)
                 (A) (A) (A) (A) (A) (A) (A) (A) (A) (A) (A) (A)
                 (A)
       Virtual   (A) (A) (A) (A) (A) (A) (A) (A) (A) (A) (A) (A)
                 (A) (A) (A) (A) (A) (A) (A) (A) (A) (A) (A) (A)
                 (A) (A) (A) (A) (A) (A) (A) (A) (A) (A) (A) (A)
                 (A) (A) (A) (A) (A) (A) (A) (A) (A) (A) (A) (A)
                 (A) (A) (A) (A) (A) (A) (A) (A) (A) (A) (A) (A)
                 (A) (A) (A) (A) (A) (A) (A) (A) (A) (A) (A) (A)
                 (A) (A) (A) (A) (A) (A) (A) (A) (A) (A) (A) (A)
                 (A) (A) (A) (A) (A) (A) (A) (A) (A) (A) (A) (A)
                 (A) (A) (A) (A) (A) (A) (A) (A) (A) (A) (A) (A)
                 (A) (A) (A) (A) (A) (A) (A) (A) (A) (A) (A) (A)
                 (A) (A) (A) (A) (A) (A) (A) (A) (A) (A) (A) (A)
                 (A) (A) (A) (A) (A) (A) (A) (A) (A) (A) (A) (A)
                 (A) (A) (A) (A) (A) (A) (A) (A) (A) (A) (A) (A)
                 (A) (A) (A) (A) (A) (A) (A) (A) (A) (A) (A) (A)
                 (A) (A) (A) (A) (A) (A) (A) (A) (A) (A) (A) (A)
                 (A) (A) (A) (A) (A) (A) (A) (A) (A) (A) (A) (A)
                 (A) (A) (A) (A) (A) (A) (A) (A) (A) (A) (A) (A)
                 (A) (A) (A) (A) (A) (A) (A) (A) (A) (A) (A) (A)
                 (A) (A) (A) (A) (A) (A) (A) (A) (A) (A) (A) (A)
                 (A) (A) (A) (A) (A) (A) (A) (A) (A) (A) (A) (A)
                 (A) (A) (A) (A) (A) (A) (A) (A) (A) (A) (A) (A)
                 (A) (A) (A) (A) (A) (A) (A) (A) (A) (A) (A) (A)
                 (A) (A) (A) (A) (A) (A) (A) (A) (A) (A) (A) (A)
                 (A) (A) (A) (A) (A) (A) (A) (A) (A) (A) (A) (A)
                 (A) (A) (A) (A) (A) (A) (A) (A) (A) (A) (A) (A)
                 (A) (A) (A) (A) (A) (A) (A) (A) (A) (A) (A) (A)
                 (A) (A) (A) (A) (A) (A) (A) (A) (A) (A) (A) (A)
                 (A) (A) (A) (A) (A) (A) (A) (A) (A) (A) (A) (A)
                 (A) (A) (A) (A) (A) (A) (A) (A) (A) (A) (A) (A)
                 (A) (A) (A) (A) (A) (A) (A) (A) (A) (A) (A) (A)
                 (A) (A) (A) (A) (A) (A) (A) (A) (A) (A) (A) (A)
                 (A) (A) (A) (A) (A) (A) (A) (A) (A) (A) (A) (A)
                 (A) (A) (A) (A) (A) (A) (A) (A) (A) (A) (A) (A)
                 (A) (A) (A) (A) (A) (A) (A) (A) (A) (A) (A) (A)
                 (A) (A) (A) (A) (A) (A) (A) (A) (A) (A) (A) (A)
                 (A) (A) (A) (A) (A) (A) (A) (A) (A) (A) (A) (A)
                 (A) (A) (A) (A) (A) (A) (A) (A) (A) (A) (A) (A)
                 (A) (A) (A) (A) (A) (A) (A) (A) (A) (A) (A) (A)
                 (A) (A) (A) (A) (A) (A) (A) (A) (A) (A) (A) (A)
                 (A) (A) (A) (A) (A) (A) (A) (A) (A) (A) (A) (A)
                 (A) (A) (A) (A) (A) (A) (A) (A) (A) (A) (A)
 Beta  Orbitals:
       Occupied  (A) (A) (A) (A) (A) (A) (A) (A) (A) (A) (A) (A)
                 (A) (A) (A) (A) (A) (A) (A) (A) (A) (A) (A) (A)
                 (A) (A) (A) (A) (A) (A) (A) (A) (A) (A) (A) (A)
                 (A) (A) (A) (A) (A) (A) (A) (A) (A) (A) (A) (A)
                 (A) (A) (A) (A) (A) (A) (A) (A) (A) (A) (A) (A)
                 (A) (A) (A) (A) (A) (A) (A) (A) (A) (A) (A) (A)
                 (A) (A) (A) (A) (A) (A) (A) (A) (A) (A) (A) (A)
                 (A) (A) (A) (A) (A) (A) (A) (A) (A) (A) (A) (A)
                 (A) (A) (A) (A) (A) (A) (A) (A) (A) (A) (A) (A)
       Virtual   (A) (A) (A) (A) (A) (A) (A) (A) (A) (A) (A) (A)
                 (A) (A) (A) (A) (A) (A) (A) (A) (A) (A) (A) (A)
                 (A) (A) (A) (A) (A) (A) (A) (A) (A) (A) (A) (A)
                 (A) (A) (A) (A) (A) (A) (A) (A) (A) (A) (A) (A)
                 (A) (A) (A) (A) (A) (A) (A) (A) (A) (A) (A) (A)
                 (A) (A) (A) (A) (A) (A) (A) (A) (A) (A) (A) (A)
                 (A) (A) (A) (A) (A) (A) (A) (A) (A) (A) (A) (A)
                 (A) (A) (A) (A) (A) (A) (A) (A) (A) (A) (A) (A)
                 (A) (A) (A) (A) (A) (A) (A) (A) (A) (A) (A) (A)
                 (A) (A) (A) (A) (A) (A) (A) (A) (A) (A) (A) (A)
                 (A) (A) (A) (A) (A) (A) (A) (A) (A) (A) (A) (A)
                 (A) (A) (A) (A) (A) (A) (A) (A) (A) (A) (A) (A)
                 (A) (A) (A) (A) (A) (A) (A) (A) (A) (A) (A) (A)
                 (A) (A) (A) (A) (A) (A) (A) (A) (A) (A) (A) (A)
                 (A) (A) (A) (A) (A) (A) (A) (A) (A) (A) (A) (A)
                 (A) (A) (A) (A) (A) (A) (A) (A) (A) (A) (A) (A)
                 (A) (A) (A) (A) (A) (A) (A) (A) (A) (A) (A) (A)
                 (A) (A) (A) (A) (A) (A) (A) (A) (A) (A) (A) (A)
                 (A) (A) (A) (A) (A) (A) (A) (A) (A) (A) (A) (A)
                 (A) (A) (A) (A) (A) (A) (A) (A) (A) (A) (A) (A)
                 (A) (A) (A) (A) (A) (A) (A) (A) (A) (A) (A) (A)
                 (A) (A) (A) (A) (A) (A) (A) (A) (A) (A) (A) (A)
                 (A) (A) (A) (A) (A) (A) (A) (A) (A) (A) (A) (A)
                 (A) (A) (A) (A) (A) (A) (A) (A) (A) (A) (A) (A)
                 (A) (A) (A) (A) (A) (A) (A) (A) (A) (A) (A) (A)
                 (A) (A) (A) (A) (A) (A) (A) (A) (A) (A) (A) (A)
                 (A) (A) (A) (A) (A) (A) (A) (A) (A) (A) (A) (A)
                 (A) (A) (A) (A) (A) (A) (A) (A) (A) (A) (A) (A)
                 (A) (A) (A) (A) (A) (A) (A) (A) (A) (A) (A) (A)
                 (A) (A) (A) (A) (A) (A) (A) (A) (A) (A) (A) (A)
                 (A) (A) (A) (A) (A) (A) (A) (A) (A) (A) (A) (A)
                 (A) (A) (A) (A) (A) (A) (A) (A) (A) (A) (A) (A)
                 (A) (A) (A) (A) (A) (A) (A) (A) (A) (A) (A) (A)
                 (A) (A) (A) (A) (A) (A) (A) (A) (A) (A) (A) (A)
                 (A) (A) (A) (A) (A) (A) (A) (A) (A) (A) (A) (A)
                 (A) (A) (A) (A) (A) (A) (A) (A) (A) (A) (A) (A)
                 (A) (A) (A) (A) (A) (A) (A) (A) (A) (A) (A) (A)
                 (A) (A) (A) (A) (A) (A) (A) (A) (A) (A) (A) (A)
                 (A) (A) (A) (A) (A) (A) (A) (A) (A) (A) (A) (A)
                 (A) (A) (A) (A) (A) (A) (A) (A) (A) (A) (A) (A)
                 (A) (A) (A) (A) (A) (A) (A) (A) (A) (A) (A) (A)
 The electronic state is 2-A.
 Alpha  occ. eigenvalues --  -19.17427 -19.16614 -19.16391 -19.16349 -19.13700
 Alpha  occ. eigenvalues --  -19.13643 -19.12254 -19.10396 -14.47519 -10.27311
 Alpha  occ. eigenvalues --  -10.26036 -10.25293 -10.25022 -10.23569 -10.23449
 Alpha  occ. eigenvalues --  -10.21659 -10.20811 -10.20792 -10.20258 -10.19865
 Alpha  occ. eigenvalues --  -10.19223 -10.19114 -10.18724 -10.18513 -10.18376
 Alpha  occ. eigenvalues --  -10.18372 -10.18243 -10.18184 -10.17958 -10.17885
 Alpha  occ. eigenvalues --   -1.21185  -1.08718  -1.08484  -1.05517  -1.05246
 Alpha  occ. eigenvalues --   -1.05158  -1.04053  -1.03734  -0.87267  -0.87103
 Alpha  occ. eigenvalues --   -0.81923  -0.81207  -0.77880  -0.76578  -0.76431
 Alpha  occ. eigenvalues --   -0.75151  -0.73263  -0.69187  -0.69120  -0.67560
 Alpha  occ. eigenvalues --   -0.66948  -0.66353  -0.63463  -0.62430  -0.59361
 Alpha  occ. eigenvalues --   -0.59079  -0.57769  -0.56293  -0.55908  -0.55550
 Alpha  occ. eigenvalues --   -0.53161  -0.51863  -0.51725  -0.51276  -0.49961
 Alpha  occ. eigenvalues --   -0.49537  -0.49195  -0.48263  -0.47793  -0.47625
 Alpha  occ. eigenvalues --   -0.46508  -0.46456  -0.46331  -0.45396  -0.44481
 Alpha  occ. eigenvalues --   -0.44302  -0.43867  -0.43359  -0.42941  -0.42601
 Alpha  occ. eigenvalues --   -0.42317  -0.41652  -0.41411  -0.41261  -0.40106
 Alpha  occ. eigenvalues --   -0.39028  -0.38346  -0.38159  -0.37966  -0.37903
 Alpha  occ. eigenvalues --   -0.37284  -0.37142  -0.36714  -0.36508  -0.34498
 Alpha  occ. eigenvalues --   -0.34403  -0.33397  -0.30113  -0.29657  -0.28978
 Alpha  occ. eigenvalues --   -0.28648  -0.28599  -0.26302  -0.26216  -0.26081
 Alpha  occ. eigenvalues --   -0.25537  -0.25331  -0.22570  -0.22055
 Alpha virt. eigenvalues --   -0.08838  -0.06715  -0.06489  -0.01665  -0.01498
 Alpha virt. eigenvalues --    0.00174   0.02322   0.03620   0.03685   0.05615
 Alpha virt. eigenvalues --    0.06261   0.06403   0.06900   0.07025   0.07646
 Alpha virt. eigenvalues --    0.08118   0.08822   0.09575   0.10084   0.10972
 Alpha virt. eigenvalues --    0.11762   0.12070   0.12287   0.12318   0.13788
 Alpha virt. eigenvalues --    0.14196   0.14757   0.15550   0.15908   0.16017
 Alpha virt. eigenvalues --    0.16499   0.16675   0.17165   0.18160   0.19819
 Alpha virt. eigenvalues --    0.20982   0.21595   0.23471   0.24074   0.24390
 Alpha virt. eigenvalues --    0.25493   0.26073   0.26861   0.27157   0.28107
 Alpha virt. eigenvalues --    0.28638   0.29902   0.30347   0.30415   0.30760
 Alpha virt. eigenvalues --    0.31174   0.31952   0.32126   0.32822   0.33692
 Alpha virt. eigenvalues --    0.34641   0.35226   0.35414   0.35800   0.35908
 Alpha virt. eigenvalues --    0.36459   0.36698   0.37292   0.37456   0.37672
 Alpha virt. eigenvalues --    0.37979   0.38581   0.38783   0.39411   0.40101
 Alpha virt. eigenvalues --    0.40309   0.40958   0.41198   0.41930   0.42293
 Alpha virt. eigenvalues --    0.42821   0.42957   0.43150   0.43507   0.44063
 Alpha virt. eigenvalues --    0.44340   0.44871   0.45364   0.45704   0.46066
 Alpha virt. eigenvalues --    0.46629   0.47665   0.48100   0.48776   0.49063
 Alpha virt. eigenvalues --    0.49486   0.50040   0.51198   0.51504   0.52326
 Alpha virt. eigenvalues --    0.52778   0.53192   0.53485   0.54648   0.54888
 Alpha virt. eigenvalues --    0.55513   0.55760   0.56797   0.57149   0.57500
 Alpha virt. eigenvalues --    0.57903   0.57990   0.58408   0.58556   0.58658
 Alpha virt. eigenvalues --    0.59297   0.59689   0.59948   0.60780   0.61124
 Alpha virt. eigenvalues --    0.61832   0.62180   0.62412   0.62513   0.63075
 Alpha virt. eigenvalues --    0.63271   0.63767   0.64150   0.64865   0.65288
 Alpha virt. eigenvalues --    0.65589   0.67388   0.68115   0.68678   0.68953
 Alpha virt. eigenvalues --    0.69489   0.69834   0.70252   0.72046   0.72974
 Alpha virt. eigenvalues --    0.74246   0.74826   0.74878   0.75216   0.76865
 Alpha virt. eigenvalues --    0.77922   0.78146   0.78747   0.79052   0.79370
 Alpha virt. eigenvalues --    0.79563   0.79938   0.80152   0.80701   0.81065
 Alpha virt. eigenvalues --    0.81400   0.82121   0.83061   0.83538   0.83777
 Alpha virt. eigenvalues --    0.84445   0.85197   0.86524   0.86680   0.87797
 Alpha virt. eigenvalues --    0.87910   0.88788   0.89727   0.90442   0.91068
 Alpha virt. eigenvalues --    0.91681   0.93006   0.93064   0.93800   0.95041
 Alpha virt. eigenvalues --    0.95296   0.96234   0.96756   0.97569   0.97838
 Alpha virt. eigenvalues --    0.98950   0.99046   0.99505   1.00707   1.02609
 Alpha virt. eigenvalues --    1.02997   1.04822   1.05005   1.06004   1.06749
 Alpha virt. eigenvalues --    1.07556   1.08171   1.09356   1.10394   1.12834
 Alpha virt. eigenvalues --    1.13449   1.13754   1.14709   1.14972   1.15484
 Alpha virt. eigenvalues --    1.15852   1.18532   1.19583   1.19730   1.20484
 Alpha virt. eigenvalues --    1.22688   1.23006   1.23074   1.23711   1.24334
 Alpha virt. eigenvalues --    1.26274   1.26786   1.27809   1.28052   1.29242
 Alpha virt. eigenvalues --    1.31840   1.34069   1.34947   1.36677   1.37643
 Alpha virt. eigenvalues --    1.37870   1.40475   1.43467   1.44310   1.45004
 Alpha virt. eigenvalues --    1.46295   1.46365   1.46943   1.48002   1.49686
 Alpha virt. eigenvalues --    1.49904   1.50230   1.51042   1.52098   1.52641
 Alpha virt. eigenvalues --    1.52858   1.53416   1.54598   1.54932   1.55415
 Alpha virt. eigenvalues --    1.55760   1.56726   1.57879   1.58023   1.59086
 Alpha virt. eigenvalues --    1.59397   1.61820   1.62369   1.63397   1.64637
 Alpha virt. eigenvalues --    1.66694   1.68295   1.68434   1.68762   1.69501
 Alpha virt. eigenvalues --    1.69954   1.70830   1.71379   1.72251   1.74890
 Alpha virt. eigenvalues --    1.75521   1.76037   1.76895   1.77162   1.77920
 Alpha virt. eigenvalues --    1.79075   1.79829   1.81349   1.81970   1.82615
 Alpha virt. eigenvalues --    1.83049   1.83381   1.83592   1.84084   1.84661
 Alpha virt. eigenvalues --    1.85445   1.88142   1.89555   1.90627   1.90658
 Alpha virt. eigenvalues --    1.92667   1.94577   1.95737   1.96373   1.98827
 Alpha virt. eigenvalues --    2.02051   2.02490   2.03099   2.03541   2.06908
 Alpha virt. eigenvalues --    2.07474   2.09377   2.11042   2.12238   2.13400
 Alpha virt. eigenvalues --    2.14529   2.15402   2.16487   2.17236   2.18134
 Alpha virt. eigenvalues --    2.23528   2.24169   2.25448   2.26727   2.28344
 Alpha virt. eigenvalues --    2.28583   2.29460   2.30519   2.31169   2.31410
 Alpha virt. eigenvalues --    2.32039   2.32955   2.33374   2.34969   2.36228
 Alpha virt. eigenvalues --    2.38467   2.38814   2.39306   2.39943   2.41403
 Alpha virt. eigenvalues --    2.43101   2.44448   2.45426   2.49303   2.50531
 Alpha virt. eigenvalues --    2.50731   2.52362   2.52979   2.53951   2.57354
 Alpha virt. eigenvalues --    2.60855   2.62932   2.63618   2.64736   2.65448
 Alpha virt. eigenvalues --    2.65696   2.67186   2.69807   2.70033   2.72991
 Alpha virt. eigenvalues --    2.74977   2.75165   2.75761   2.76418   2.77553
 Alpha virt. eigenvalues --    2.79051   2.80197   2.81075   2.81108   2.82323
 Alpha virt. eigenvalues --    2.84400   2.84840   2.87296   2.87588   2.88403
 Alpha virt. eigenvalues --    2.89865   2.92326   2.92887   2.93770   2.94062
 Alpha virt. eigenvalues --    2.94864   2.95074   2.96487   2.97040   2.98349
 Alpha virt. eigenvalues --    2.98973   2.99301   3.01323   3.01896   3.03079
 Alpha virt. eigenvalues --    3.03206   3.03763   3.08425   3.08510   3.09174
 Alpha virt. eigenvalues --    3.11152   3.11771   3.13270   3.14124   3.14372
 Alpha virt. eigenvalues --    3.14521   3.14610   3.15423   3.15967   3.16825
 Alpha virt. eigenvalues --    3.17372   3.18106   3.19383   3.19864   3.20532
 Alpha virt. eigenvalues --    3.24709   3.25014   3.25138   3.27572   3.29090
 Alpha virt. eigenvalues --    3.29595   3.29655   3.29799   3.30987   3.31279
 Alpha virt. eigenvalues --    3.31604   3.32945   3.33236   3.34723   3.35351
 Alpha virt. eigenvalues --    3.38964   3.39667   3.41943   3.45013   3.45963
 Alpha virt. eigenvalues --    3.46929   3.47927   3.48818   3.49521   3.50862
 Alpha virt. eigenvalues --    3.53099   3.54752   3.57739   3.59504   3.63824
 Alpha virt. eigenvalues --    3.64833   3.70743   3.71101   3.71264   3.81034
 Alpha virt. eigenvalues --    3.86953   3.87007   3.89561   3.89857   3.94136
 Alpha virt. eigenvalues --    3.94431   3.97540   4.01721   4.05388   4.07191
 Alpha virt. eigenvalues --    4.07273   4.20625   4.27484   4.44145   4.58587
 Alpha virt. eigenvalues --    4.78309   4.78472   4.78969   4.80097   4.80691
 Alpha virt. eigenvalues --    4.80873   4.85093   4.89091   4.90024   4.90623
 Alpha virt. eigenvalues --    4.96482   4.96585   5.05502   5.10805   5.10873
 Alpha virt. eigenvalues --    5.14817   5.16147   5.16212   5.32797   5.49970
 Alpha virt. eigenvalues --    5.50189   5.60232   5.64560   5.68079   5.68136
 Alpha virt. eigenvalues --    5.84545  23.21958  23.24724  23.42098  23.42143
 Alpha virt. eigenvalues --   23.51959  23.57052  23.70138  23.77969  23.78418
 Alpha virt. eigenvalues --   23.84040  23.85163  23.86401  23.86978  23.98303
 Alpha virt. eigenvalues --   23.98638  24.05211  24.05223  24.11545  24.11702
 Alpha virt. eigenvalues --   24.13637  24.14713  35.25175  49.77211  49.83494
 Alpha virt. eigenvalues --   49.86143  49.86355  49.92639  49.92773  49.93846
 Alpha virt. eigenvalues --   49.98235
  Beta  occ. eigenvalues --  -19.17427 -19.16607 -19.16383 -19.16351 -19.13700
  Beta  occ. eigenvalues --  -19.13643 -19.11930 -19.09905 -14.47518 -10.27406
  Beta  occ. eigenvalues --  -10.26185 -10.25285 -10.25013 -10.23571 -10.23451
  Beta  occ. eigenvalues --  -10.20811 -10.20792 -10.20548 -10.20250 -10.19864
  Beta  occ. eigenvalues --  -10.19220 -10.19109 -10.18719 -10.18508 -10.18377
  Beta  occ. eigenvalues --  -10.18368 -10.18244 -10.18180 -10.17918 -10.17839
  Beta  occ. eigenvalues --   -1.21185  -1.08705  -1.08470  -1.05245  -1.05157
  Beta  occ. eigenvalues --   -1.05062  -1.03852  -1.02926  -0.87248  -0.87083
  Beta  occ. eigenvalues --   -0.81515  -0.81110  -0.76733  -0.76540  -0.76406
  Beta  occ. eigenvalues --   -0.75073  -0.72322  -0.69184  -0.69116  -0.67519
  Beta  occ. eigenvalues --   -0.66920  -0.66242  -0.63382  -0.62326  -0.59296
  Beta  occ. eigenvalues --   -0.59045  -0.57553  -0.56265  -0.55871  -0.55530
  Beta  occ. eigenvalues --   -0.52937  -0.51764  -0.51678  -0.51196  -0.49729
  Beta  occ. eigenvalues --   -0.49514  -0.49183  -0.48169  -0.47680  -0.47512
  Beta  occ. eigenvalues --   -0.46489  -0.46416  -0.45913  -0.45158  -0.44454
  Beta  occ. eigenvalues --   -0.44284  -0.43749  -0.43205  -0.42866  -0.42247
  Beta  occ. eigenvalues --   -0.41883  -0.41571  -0.41290  -0.40163  -0.39599
  Beta  occ. eigenvalues --   -0.38953  -0.38284  -0.38112  -0.37872  -0.37860
  Beta  occ. eigenvalues --   -0.37184  -0.37026  -0.36621  -0.36267  -0.34474
  Beta  occ. eigenvalues --   -0.34360  -0.33388  -0.29789  -0.29211  -0.28642
  Beta  occ. eigenvalues --   -0.28576  -0.28140  -0.26265  -0.25747  -0.25446
  Beta  occ. eigenvalues --   -0.25399  -0.22405  -0.22114
  Beta virt. eigenvalues --   -0.14269  -0.08367  -0.06713  -0.05515  -0.01617
  Beta virt. eigenvalues --   -0.01440   0.00441   0.02888   0.03623   0.03692
  Beta virt. eigenvalues --    0.05699   0.06265   0.06568   0.06939   0.07070
  Beta virt. eigenvalues --    0.07773   0.08151   0.08936   0.10080   0.10351
  Beta virt. eigenvalues --    0.11297   0.11792   0.12132   0.12296   0.12401
  Beta virt. eigenvalues --    0.13957   0.14210   0.14862   0.15607   0.15972
  Beta virt. eigenvalues --    0.16077   0.16522   0.16712   0.17303   0.18367
  Beta virt. eigenvalues --    0.19994   0.21022   0.21701   0.23786   0.24194
  Beta virt. eigenvalues --    0.24558   0.25534   0.26113   0.26903   0.27219
  Beta virt. eigenvalues --    0.28467   0.28724   0.30003   0.30383   0.30502
  Beta virt. eigenvalues --    0.30882   0.31237   0.32105   0.32179   0.32916
  Beta virt. eigenvalues --    0.34164   0.34739   0.35360   0.35448   0.35842
[...]
 9,-0.00160994,0.00162580,0.00006586,0.00001807,-0.00123625,-0.00008707
 ,0.00094082,0.00032840,0.00004337,-0.00107781,-0.00005608,-0.00003902,
 0.00007469,-0.00000830,-0.00000137,0.00030597,0.00127850,0.00011550,0.
 00010932,-0.00007838,-0.00000913,0.00117529,-0.00076998,0.00003269,-0.
 00005829,0.00010501,0.00000534,-0.00134598,0.00102316,-0.00000040,0.00
 003304,-0.00023120,-0.00000586,-0.00071352,-0.00027553,0.00010834,0.00
 023754,0.00000605,-0.00029276,0.00000328,-0.00000423,0.00005778,-0.000
 05724,-0.00002848,0.00002000,0.00001518,0.00003662,0.00001392,0.002261
 68,0.00077207,-0.00038365,-0.00091177,-0.00078347,-0.00025062,-0.15728
 731,0.16321270,0.00014926,-0.00005237,0.00014059,0.00000374,0.00000583
 ,0.00001400,-0.00017408,-0.00002517,-0.00010599,-0.00001113,-0.0000084
 4,-0.00000033,0.00013509,0.00038756,0.00006809,-0.00011785,-0.00007434
 ,-0.00005420,-0.00009546,-0.00001490,-0.00003110,0.00003829,-0.0000279
 2,0.00005786,0.00002619,0.00003029,-0.00002607,-0.00003725,-0.00003163
 ,0.00001483,0.00000099,0.00000596,-0.00000347,-0.00003068,0.00001966,-
 0.00004714,0.00000296,0.00000542,-0.00000074,0.00006191,0.00002282,0.0
 0000927,-0.00000789,-0.00000108,-0.00000227,-0.00007432,-0.00002441,-0
 .00001820,0.00000599,-0.00000332,0.00001018,-0.00000850,-0.00001947,0.
 00000629,0.00000263,0.00001416,0.00000474,0.00000107,-0.00000180,0.000
 00018,0.00000069,-0.00000171,0.00000021,-0.00000151,0.00000070,-0.0000
 0192,-0.00024675,0.00086562,0.00027023,-0.00002483,0.00000068,0.000101
 20,0.00055587,-0.00137427,0.00189809,0.00001326,0.00002624,0.00000130,
 0.00091698,0.00228786,-0.00111187,0.00019380,-0.00386461,-0.00880233,0
 .00035928,-0.00031172,-0.00029760,-0.00000839,0.00026061,-0.00004559,-
 0.00019697,-0.00006461,-0.00000302,0.00021814,0.00001033,0.00004137,-0
 .00001470,-0.00000028,-0.00000621,-0.00005246,-0.00026081,-0.00001289,
 -0.00001790,0.00001574,0.00000539,-0.00023214,0.00015153,-0.00000856,0
 .00001096,-0.00002085,0.00000968,0.00026626,-0.00020178,-0.00000820,-0
 .00000524,0.00004523,0.00000639,0.00013696,0.00005551,-0.00003059,-0.0
 0004664,-0.00000528,0.00007072,-0.00000152,0.00000324,-0.00001499,0.00
 000986,0.00000490,-0.00000488,-0.00000234,-0.00000728,-0.00000312,0.00
 028025,0.00010041,-0.00098717,-0.00034537,-0.00019256,0.00016972,0.035
 23004,-0.03251987,0.08649064,-0.00041366,0.00003598,-0.00035489,-0.000
 08043,0.00000222,-0.00001952,0.00058264,0.00018692,0.00015895,0.000075
 57,0.00008730,0.00000366,-0.00036471,-0.00120085,0.00062793,0.00020097
 ,0.00026794,-0.00038905,0.00029296,0.00008151,0.00006466,-0.00011645,0
 .00002600,-0.00016187,-0.00005482,-0.00010982,0.00007333,0.00012979,0.
 00008078,-0.00007215,-0.00002834,0.00001533,0.00002883,0.00009251,-0.0
 0005432,0.00014228,-0.00002144,0.00000741,0.00000930,-0.00018921,-0.00
 005917,-0.00001087,0.00001317,0.00001451,0.00001821,0.00023435,0.00005
 756,0.00003465,-0.00002572,0.00002557,-0.00001381,0.00003141,0.0000376
 3,-0.00004562,-0.00001223,-0.00000723,0.00000081,0.00000456,-0.0000011
 7,0.00000002,-0.00000018,0.00000541,-0.00000358,-0.00000049,-0.0000036
 3,0.00000379,0.00027903,-0.00250587,0.00004679,0.00008484,-0.00001650,
 -0.00004869,-0.00129982,0.00542129,-0.00018817,0.00006125,-0.00010296,
 -0.00009988,-0.00612904,-0.00970354,0.00119686,-0.01141923,0.02747565,
 -0.00488762,-0.00097088,0.00105386,0.00009862,-0.00001436,-0.00076566,
 -0.00005274,0.00058968,0.00018683,0.00001970,-0.00066401,-0.00002442,-
 0.00003148,0.00004906,-0.00000241,0.00000475,0.00019160,0.00079162,0.0
 0007021,0.00006907,-0.00005238,0.00000166,0.00073761,-0.00049633,0.000
 02290,-0.00003972,0.00006955,0.00000425,-0.00084931,0.00065416,-0.0000
 0337,0.00002126,-0.00014905,-0.00000072,-0.00044180,-0.00015561,0.0000
 6185,0.00015172,-0.00000426,-0.00017350,-0.00000008,-0.00000337,0.0000
 3057,-0.00003363,-0.00002021,0.00001279,0.00000891,0.00002709,0.000008
 06,0.00101121,0.00052931,-0.00049346,-0.00050894,-0.00001547,0.0000923
 7,-0.21500939,0.15982800,-0.08060122,0.33412890,0.00040902,0.00002643,
 0.00029638,0.00005167,-0.00007487,-0.00002608,-0.00050014,-0.00020182,
 -0.00015756,-0.00006857,-0.00007536,0.00001574,0.00048845,0.00119042,-
 0.00076849,-0.00011015,-0.00034012,0.00056178,-0.00027747,-0.00009876,
 -0.00003710,0.00012476,-0.00001651,0.00012378,0.00004973,0.00009870,-0
 .00008108,-0.00011862,-0.00010626,0.00008527,0.00001091,0.00000392,-0.
 00000008,-0.00007847,0.00008801,-0.00018116,0.00002130,-0.00000265,-0.
 00000442,0.00023109,0.00007825,0.00002714,-0.00001467,-0.00000550,-0.0
 0001742,-0.00028049,-0.00008498,-0.00004317,0.00003497,-0.00001552,0.0
 0002119,-0.00006246,-0.00010054,0.00007453,0.00001930,0.00004833,0.000
 01154,-0.00000105,-0.00000379,-0.00000427,-0.00000174,-0.00001063,0.00
 000581,-0.00000060,0.00000257,-0.00000772,-0.00028079,0.00201115,-0.00
 005550,-0.00007338,0.00002727,0.00003339,0.00118516,-0.00433117,0.0000
 8728,-0.00006077,0.00009888,0.00007630,0.00366134,0.00883864,-0.000730
 35,0.01433533,-0.01815344,0.00368299,0.00079042,-0.00084339,-0.0000643
 6,0.00001010,0.00062447,0.00004697,-0.00047723,-0.00016594,-0.00001972
 ,0.00054823,0.00002406,0.00002459,-0.00003879,0.00000481,-0.00000301,-
 0.00016886,-0.00065811,-0.00005948,-0.00005919,0.00004195,0.00000055,-
 0.00060936,0.00040597,-0.00001752,0.00003141,-0.00005613,-0.00000425,0
 .00070128,-0.00053477,0.00000229,-0.00001877,0.00012131,0.00000082,0.0
 0037897,0.00014048,-0.00005345,-0.00012732,-0.00000036,0.00014981,-0.0
 0000129,0.00000145,-0.00002868,0.00003034,0.00001572,-0.00001007,-0.00
 000774,-0.00002019,-0.00000767,-0.00146787,-0.00073391,-0.00010827,0.0
 0036882,-0.00227596,0.00067628,0.15961197,-0.15633202,0.07013171,-0.25
 713977,0.23158275,0.00029020,0.00010226,0.00010519,0.00015538,-0.00001
 451,0.00004507,-0.00038597,-0.00010390,-0.00008692,-0.00003915,-0.0000
 8388,0.00001734,0.00059523,0.00096452,-0.00084237,-0.00002505,-0.00034
 368,0.00070259,-0.00020175,-0.00010162,-0.00001018,0.00010810,0.000030
 65,0.00005578,0.00002150,0.00009320,-0.00005962,-0.00009759,-0.0000781
 7,0.00008954,0.00003497,-0.00000442,0.00001233,-0.00005709,0.00006796,
 -0.00014310,0.00002357,-0.00001997,-0.00000469,0.00018104,0.00005695,0
 .00000988,0.00000063,-0.00000642,-0.00001936,-0.00022222,-0.00005803,-
 0.00001804,0.00003204,-0.00001874,0.00000421,-0.00005572,-0.00007373,0
 .00008212,0.00001700,0.00001944,0.00000073,-0.00000499,0.00000049,-0.0
 0000439,-0.00000315,-0.00000949,0.00000670,0.00000304,0.00000295,-0.00
 000479,-0.00030963,0.00138651,-0.00013307,-0.00004600,0.00002991,-0.00
 001825,0.00101436,-0.00229962,-0.00064810,0.00002628,0.00000746,0.0000
 5469,-0.00037607,0.00494270,-0.00031582,0.00320487,-0.00629886,0.00709
 661,0.00055601,-0.00054562,0.00007378,-0.00001659,0.00042795,0.0000588
 0,-0.00032674,-0.00010596,-0.00000100,0.00037499,0.00002167,0.00001364
 ,-0.00002687,0.00000424,-0.00000793,-0.00011417,-0.00044069,-0.0000443
 7,-0.00003861,0.00003039,-0.00001522,-0.00042239,0.00028656,-0.0000187
 2,0.00002007,-0.00003802,-0.00001152,0.00048144,-0.00037176,0.00001444
 ,-0.00001425,0.00008555,-0.00000909,0.00024993,0.00008349,-0.00001708,
 -0.00008589,0.00001025,0.00007291,0.00000243,-0.00000230,-0.00000973,0
 .00002050,0.00001343,-0.00000554,-0.00000650,-0.00001584,-0.00000380,-
 0.00133158,-0.00043287,-0.00008557,0.00034087,0.00122861,0.00034930,-0
 .04863681,0.04551006,-0.08090866,0.02429275,-0.04584945,0.26037535,-0.
 00041130,-0.00004157,-0.00024608,-0.00011637,0.00001294,-0.00002596,0.
 00047880,0.00013534,0.00017865,0.00005160,0.00006352,-0.00001571,-0.00
 061979,-0.00103143,0.00064228,0.00012130,0.00033294,-0.00047728,0.0002
 5527,0.00010053,0.00003644,-0.00011880,0.00000472,-0.00012132,-0.00004
 341,-0.00010399,0.00007192,0.00012209,0.00008566,-0.00008434,-0.000032
 61,0.00000756,0.00000750,0.00008051,-0.00006744,0.00015571,-0.00002208
 ,0.00000676,0.00000655,-0.00020514,-0.00006270,-0.00001808,0.00001050,
 0.00001215,0.00002073,0.00025462,0.00006553,0.00003400,-0.00003134,0.0
 0002381,-0.00001270,0.00004881,0.00006473,-0.00006225,-0.00001595,-0.0
 0002176,-0.00000381,0.00000406,0.00000014,0.00000205,0.00000091,0.0000
 0812,-0.00000515,-0.00000072,-0.00000309,0.00000560,0.00033555,-0.0015
 7693,0.00006851,0.00005232,-0.00002684,-0.00001852,-0.00105642,0.00272
 227,0.00002873,-0.00000625,-0.00002549,-0.00006455,-0.00055516,-0.0056
 4552,0.00063134,-0.00500697,0.00909640,-0.00206797,-0.00062980,0.00061
 948,0.00002280,0.00001164,-0.00048516,-0.00004050,0.00036772,0.0001185
 1,0.00001031,-0.00042234,-0.00002229,-0.00001951,0.00003040,-0.0000030
 9,0.00000411,0.00012780,0.00050097,0.00004639,0.00004454,-0.00003324,0
 .00000352,0.00047299,-0.00032085,0.00001547,-0.00002314,0.00004337,0.0
 0000528,-0.00054134,0.00041772,-0.00000433,0.00001526,-0.00009597,0.00
 000157,-0.00028652,-0.00009683,0.00003662,0.00010091,-0.00000620,-0.00
 010558,-0.00000107,-0.00000068,0.00001735,-0.00002242,-0.00001398,0.00
 000730,0.00000601,0.00001811,0.00000529,0.00107206,0.00044908,0.000144
 23,-0.00024242,-0.00069959,-0.00042585,0.01593781,-0.00582962,0.010679
 57,-0.07712860,0.04752140,0.08194879,0.51356869,0.00026853,0.00003400,
 0.00015999,0.00006866,-0.00000531,0.00001834,-0.00034029,-0.00009732,-
 0.00010431,-0.00003678,-0.00004978,0.00001122,0.00045333,0.00074625,-0
 .00047892,-0.00008499,-0.00024768,0.00036700,-0.00017928,-0.00006980,-
 0.00002404,0.00008367,0.00000052,0.00007584,0.00002946,0.00007180,-0.0
 0004964,-0.00008159,-0.00006380,0.00006107,0.00001912,-0.00000340,-0.0
 0000220,-0.00005269,0.00005096,-0.00011195,0.00001558,-0.00000682,-0.0
 0000407,0.00014672,0.00004683,0.00001266,-0.00000593,-0.00000599,-0.00
 001360,-0.00017938,-0.00004853,-0.00002366,0.00002334,-0.00001442,0.00
 000968,-0.00003806,-0.00005301,0.00004858,0.00001289,0.00001968,0.0000
 0363,-0.00000285,-0.00000065,-0.00000210,-0.00000106,-0.00000637,0.000
 00408,0.00000059,0.00000222,-0.00000438,-0.00025946,0.00121686,-0.0000
 4663,-0.00003963,0.00001896,0.00001552,0.00080584,-0.00211644,0.000002
 97,0.00000320,0.00001941,0.00005049,0.00056342,0.00433926,-0.00048054,
 0.00346554,-0.00727151,0.00142563,0.00048484,-0.00047597,-0.00002325,-
 0.00000839,0.00037285,0.00003034,-0.00028217,-0.00008978,-0.00000761,0
 .00032458,0.00001709,0.00001569,-0.00002314,0.00000226,-0.00000360,-0.
 00010094,-0.00038657,-0.00003620,-0.00003492,0.00002565,-0.00000233,-0
 .00036466,0.00024823,-0.00001178,0.00001780,-0.00003355,-0.00000397,0.
 00041868,-0.00032219,0.00000340,-0.00001229,0.00007353,-0.00000134,0.0
 0022267,0.00007484,-0.00002860,-0.00007852,0.00000464,0.00008200,0.000
 00060,0.00000052,-0.00001333,0.00001751,0.00001096,-0.00000552,-0.0000
 0459,-0.00001402,-0.00000424,-0.00081513,-0.00028120,-0.00004608,0.000
 20742,0.00042729,0.00021820,-0.00443889,0.01592520,-0.00613893,0.04729
 547,-0.04176524,-0.07095719,-0.40944826,0.34257937,-0.00003785,0.00001
 096,-0.00003043,0.00000741,0.00000523,0.00000523,0.00000399,-0.0000065
 6,0.00003689,-0.00000256,-0.00001648,-0.00000183,-0.00002906,0.0000621
 5,-0.00011955,0.00002555,-0.00001089,0.00011629,0.00000580,0.00000048,
 0.00000443,-0.00000118,0.00000964,-0.00001706,-0.00000531,0.00000006,0
 .00000235,0.00000546,-0.00000054,0.00000214,-0.00000189,0.00000045,0.0
 0000507,0.00000541,0.00000189,0.00000039,0.00000131,-0.00000618,0.0000
 0035,-0.00000582,0.00000009,-0.00000461,0.00000413,0.00000279,0.000001
 19,0.00000947,0.00000099,0.00000587,-0.00000007,0.00000247,-0.00000294
 ,-0.00000190,-0.00000358,0.00000947,0.00000012,-0.00000154,-0.00000168
 ,-0.00000044,0.00000037,-0.00000090,-0.00000104,-0.00000064,0.00000063
 ,0.00000107,0.00000023,0.00000054,-0.00000224,0.00019395,-0.00001586,-
 0.00000736,0.00000089,-0.00000325,0.00012610,-0.00053360,-0.00007232,-
 0.00000825,0.00001157,0.00000391,0.00056879,0.00093274,-0.00013038,0.0
 0188316,-0.00280266,0.00135771,0.00007567,-0.00009175,0.00000358,0.000
 00218,0.00005939,0.00000939,-0.00004784,-0.00001791,0.00000205,0.00005
 223,0.00000163,0.00000353,-0.00000370,0.00000077,-0.00000250,-0.000012
 44,-0.00006037,-0.00000508,-0.00000400,0.00000413,-0.00000499,-0.00005
 568,0.00003497,-0.00000419,0.00000313,-0.00000497,-0.00000221,0.000063
 89,-0.00004792,0.00000392,-0.00000116,0.00001056,-0.00000256,0.0000296
 9,0.00001340,0.00000090,-0.00000786,0.00000048,0.00000557,0.00000037,-
 0.00000087,-0.00000086,0.00000288,0.00000137,-0.00000071,-0.00000127,-
 0.00000100,-0.00000011,-0.00019355,-0.00009502,0.00006449,0.00004752,0
 .00008302,-0.00000571,0.00393523,-0.00038583,-0.01413169,0.07344110,-0
 .06452926,0.03584043,-0.00433821,-0.00703347,0.11115656,0.00053787,0.0
 0006317,0.00030047,0.00017922,-0.00001018,0.00004672,-0.00061004,-0.00
 016552,-0.00024560,-0.00006344,-0.00007975,0.00002214,0.00081780,0.001
 35315,-0.00083073,-0.00014027,-0.00044558,0.00065179,-0.00032751,-0.00
 013597,-0.00004451,0.00015802,-0.00000303,0.00015404,0.00005447,0.0001
 3658,-0.00009514,-0.00015983,-0.00011383,0.00011281,0.00004693,-0.0000
 0964,-0.00000717,-0.00010224,0.00009244,-0.00020890,0.00002908,-0.0000
 0785,-0.00000804,0.00027371,0.00008438,0.00002537,-0.00001291,-0.00001
 484,-0.00002752,-0.00033892,-0.00008870,-0.00004509,0.00004239,-0.0000
 3025,0.00001697,-0.00006812,-0.00009291,0.00008596,0.00002191,0.000033
 56,0.00000593,-0.00000498,-0.00000078,-0.00000340,-0.00000152,-0.00001
 130,0.00000717,0.00000098,0.00000381,-0.00000783,-0.00047495,0.0020406
 4,-0.00006001,-0.00006565,0.00003780,0.00002495,0.00137785,-0.00336549
 ,0.00013956,0.00001946,0.00002667,0.00006421,0.00026769,0.00707127,-0.
 00087741,0.00546926,-0.01047612,0.00161110,0.00081856,-0.00078449,-0.0
 0005118,-0.00002179,0.00062616,0.00005018,-0.00047498,-0.00015266,-0.0
 0001016,0.00054461,0.00002999,0.00002963,-0.00003866,0.00000445,-0.000
 00772,-0.00016329,-0.00064350,-0.00005879,-0.00005531,0.00004307,-0.00
 000817,-0.00060890,0.00041128,-0.00002133,0.00002899,-0.00005505,-0.00
 000720,0.00069440,-0.00053563,0.00000732,-0.00001972,0.00012332,-0.000
 00352,0.00036635,0.00012457,-0.00004306,-0.00012834,0.00000866,0.00013
 095,0.00000159,0.00000035,-0.00002131,0.00002880,0.00001805,-0.0000092
 2,-0.00000793,-0.00002315,-0.00000658,-0.00134008,-0.00072251,-0.00040
 928,0.00032776,0.00116858,0.00055421,-0.03111806,0.01296567,0.03305507
 ,-0.02322558,0.03142958,-0.06115116,-0.44603222,0.36196447,-0.07553096
 ,0.49349757,-0.00030443,-0.00007603,-0.00016126,-0.00009063,0.00002693
 ,0.00000153,0.00038489,0.00010818,0.00011517,0.00003529,0.00006638,-0.
 00001543,-0.00054162,-0.00092695,0.00057388,0.00007618,0.00030894,-0.0
 0049496,0.00020251,0.00009051,0.00001953,-0.00009934,-0.00001219,-0.00
 007672,-0.00002919,-0.00008590,0.00005780,0.00009593,0.00007503,-0.000
 07714,-0.00002290,0.00000367,-0.00000283,0.00006100,-0.00006022,0.0001
 3204,-0.00001969,0.00001242,0.00000469,-0.00017310,-0.00005384,-0.0000
 1352,0.00000531,0.00000791,0.00001745,0.00021301,0.00005547,0.00002435
 ,-0.00002874,0.00001857,-0.00000879,0.00004777,0.00006285,-0.00006367,
 -0.00001553,-0.00001949,-0.00000287,0.00000411,0.00000010,0.00000265,0
 .00000153,0.00000783,-0.00000509,-0.00000140,-0.00000281,0.00000486,0.
 00033753,-0.00140585,0.00003298,0.00004382,-0.00002253,-0.00001755,-0.
 00094742,0.00231320,-0.00016012,-0.00001216,-0.00001639,-0.00004492,-0
 .00028942,-0.00485404,0.00052883,-0.00319573,0.00738043,-0.00061409,-0
 .00056017,0.00053322,0.00004393,0.00001337,-0.00042872,-0.00003263,0.0
 0032328,0.00010223,0.00000630,-0.00037210,-0.00002015,-0.00002198,0.00
 002646,-0.00000265,0.00000657,0.00011462,0.00044159,0.00004090,0.00003
 935,-0.00002954,0.00000457,0.00041852,-0.00028539,0.00001455,-0.000020
 01,0.00003835,0.00000494,-0.00047953,0.00037013,-0.00000500,0.00001423
 ,-0.00008492,0.00000263,-0.00025328,-0.00008356,0.00003081,0.00008989,
 -0.00000663,-0.00009096,-0.00000108,-0.00000035,0.00001430,-0.00001980
 ,-0.00001290,0.00000613,0.00000530,0.00001646,0.00000477,0.00083096,0.
 00056960,0.00032877,-0.00011282,-0.00067901,-0.00046049,0.01453830,-0.
 02201527,-0.02920263,0.02832907,-0.01846762,0.07286757,0.36323073,-0.3
 1289980,0.07420435,-0.40189291,0.34994271,-0.00029687,-0.00009491,-0.0
 0012781,-0.00016505,0.00000659,-0.00003139,0.00043773,0.00014286,0.000
 08875,0.00004829,0.00010097,-0.00001519,-0.00058405,-0.00116337,0.0008
 7877,0.00005272,0.00036532,-0.00077309,0.00022509,0.00010456,0.0000190
 6,-0.00011644,-0.00002587,-0.00006149,-0.00002514,-0.00010246,0.000065
 14,0.00010241,0.00008778,-0.00009235,-0.00003106,0.00000137,-0.0000169
 5,0.00006288,-0.00007195,0.00015259,-0.00002507,0.00002229,0.00000481,
 -0.00019078,-0.00006288,-0.00000954,0.00000013,0.00000465,0.00001812,0
 .00023241,0.00006363,0.00001985,-0.00003247,0.00001748,-0.00000611,0.0
 0005726,0.00007898,-0.00008700,-0.00001708,-0.00002169,-0.00000117,0.0
 0000468,-0.00000016,0.00000460,0.00000342,0.00001003,-0.00000670,-0.00
 000302,-0.00000327,0.00000474,0.00035603,-0.00190946,0.00007097,0.0000
 6477,-0.00002943,-0.00001339,-0.00128680,0.00359406,0.00007505,0.00000
 017,-0.00004200,-0.00005891,-0.00138101,-0.00714383,0.00086873,-0.0080
 6819,0.01385866,-0.00429413,-0.00076177,0.00077019,0.00002845,0.000009
 81,-0.00058698,-0.00005459,0.00045028,0.00014921,0.00000333,-0.0005115
 6,-0.00002522,-0.00002936,0.00003658,-0.00000439,0.00001076,0.00014784
 ,0.00060387,0.00005507,0.00005042,-0.00004101,0.00001540,0.00056813,-0
 .00038050,0.00002420,-0.00002827,0.00005166,0.00000963,-0.00065021,0.0
 0049912,-0.00001325,0.00001721,-0.00011371,0.00000771,-0.00033517,-0.0
 0011943,0.00003145,0.00011260,-0.00000758,-0.00011099,-0.00000173,0.00
 000123,0.00001773,-0.00002713,-0.00001638,0.00000849,0.00000843,0.0000
 1970,0.00000530,0.00149049,0.00074374,0.00033419,-0.00030051,-0.001195
 98,-0.00060606,0.00719550,-0.01039180,0.01727783,-0.01291947,0.0367334
 1,-0.22163452,-0.08668090,0.08304713,-0.13408149,0.10270442,-0.1175242
 2,0.34202479\\0.00000033,-0.00000109,0.00000013,-0.00000053,-0.0000013
 4,0.00000068,-0.00000034,0.00000018,0.00000114,0.00000028,-0.00000066,
 0.00000114,-0.00000077,0.00000336,-0.00000272,0.00000141,-0.00000016,0
 .00000135,-0.00000077,-0.00000244,0.00000067,-0.00000024,-0.00000321,0
 .00000150,0.00000133,-0.00000163,0.00000171,-0.00000093,-0.00000382,0.
 00000112,-0.00000100,-0.00000332,0.00000032,-0.00000026,-0.00000317,0.
 00000257,0.00000114,-0.00000064,0.00000192,0.00000012,-0.00000372,0.00
 000227,-0.00000012,-0.00000485,0.00000268,0.00000008,-0.00000430,0.000
 00297,-0.00000007,-0.00000475,0.00000248,0.00000143,-0.00000243,0.0000
 0246,0.00000202,-0.00000286,0.00000436,0.00000235,-0.00000246,0.000004
 07,0.00000257,-0.00000241,0.00000425,0.00000154,-0.00000352,0.00000396
 ,0.00000041,-0.00000109,-0.00000170,0.00000073,0.00000018,-0.00000036,
 -0.00000194,0.00000174,-0.00000164,-0.00000185,0.00000233,-0.00000223,
 0.00000005,0.00000231,-0.00000200,-0.00000214,0.00000093,-0.00000277,-
 0.00000062,0.00000279,-0.00000068,-0.00000002,0.00000196,-0.00000003,0
 .00000093,0.00000215,-0.00000131,0.00000188,0.00000291,0.00000017,0.00
 000178,0.00000135,0.00000061,-0.00000034,0.00000312,-0.00000139,-0.000
 00016,0.00000202,-0.00000233,0.00000103,0.00000280,-0.00000053,0.00000
 069,0.00000339,0.00000094,0.00000193,0.00000291,-0.00000050,0.00000185
 ,0.00000319,0.00000016,0.00000031,0.00000450,-0.00000236,-0.00000041,0
 .00000406,-0.00000216,-0.00000057,0.00000291,-0.00000238,-0.00000039,0
 .00000408,-0.00000295,0.00000035,0.00000322,-0.00000174,-0.00000187,-0
 .00000050,-0.00000261,-0.00000032,-0.00000337,0.00000026,-0.00000383,0
 .00000065,-0.00000282,-0.00000123,-0.00000007,-0.00000346,-0.00000340,
 0.00000007,-0.00000371,-0.00000243,-0.00000131,-0.00000148\\\@


 I SUPPOSE A BABY LLAMA HAS A MMAMA AND A PPOPA.
     -- RICHARD AMOUR
 Job cpu time:       0 days  2 hours 32 minutes 50.4 seconds.
 Elapsed time:       0 days  2 hours 33 minutes 12.9 seconds.
 File lengths (MBytes):  RWF=   3776 Int=      0 D2E=      0 Chk=     51 Scr=      1
 Normal termination of Gaussian 16 at Wed Nov 20 19:04:22 2024.
