 Entering Gaussian System, Link 0=g16
 Initial command:
 /sw/cluster/pub/apps//g16/l1.exe "/data/mmaximo/25495/Gau-1757387.inp" -scrdir="/data/mmaximo/25495/"
 Entering Link 1 = /sw/cluster/pub/apps//g16/l1.exe PID=   1757388.
  
 Copyright (c) 1988,1990,1992,1993,1995,1998,2003,2009,2016,
            Gaussian, Inc.  All Rights Reserved.
  
 This is part of the Gaussian(R) 16 program.  It is based on
 the Gaussian(R) 09 system (copyright 2009, Gaussian, Inc.),
 the Gaussian(R) 03 system (copyright 2003, Gaussian, Inc.),
 the Gaussian(R) 98 system (copyright 1998, Gaussian, Inc.),
 the Gaussian(R) 94 system (copyright 1995, Gaussian, Inc.),
 the Gaussian 92(TM) system (copyright 1992, Gaussian, Inc.),
 the Gaussian 90(TM) system (copyright 1990, Gaussian, Inc.),
 the Gaussian 88(TM) system (copyright 1988, Gaussian, Inc.),
 the Gaussian 86(TM) system (copyright 1986, Carnegie Mellon
 University), and the Gaussian 82(TM) system (copyright 1983,
 Carnegie Mellon University). Gaussian is a federally registered
 trademark of Gaussian, Inc.
  
 This software contains proprietary and confidential information,
 including trade secrets, belonging to Gaussian, Inc.
  
 This software is provided under written license and may be
 used, copied, transmitted, or stored only in accord with that
 written license.
  
 The following legend is applicable only to US Government
 contracts under FAR:
  
                    RESTRICTED RIGHTS LEGEND
  
 Use, reproduction and disclosure by the US Government is
 subject to restrictions as set forth in subparagraphs (a)
 and (c) of the Commercial Computer Software - Restricted
 Rights clause in FAR 52.227-19.
  
 Gaussian, Inc.
 340 Quinnipiac St., Bldg. 40, Wallingford CT 06492
  
  
 ---------------------------------------------------------------
 Warning -- This program may not be used in any manner that
 competes with the business of Gaussian, Inc. or will provide
 assistance to any competitor of Gaussian, Inc.  The licensee
 of this program is prohibited from giving any competitor of
 Gaussian, Inc. access to this program.  By using this program,
 the user acknowledges that Gaussian, Inc. is engaged in the
 business of creating and licensing software in the field of
 computational chemistry and represents and warrants to the
 licensee that it is not a competitor of Gaussian, Inc. and that
 it will not use this program in any manner prohibited above.
 ---------------------------------------------------------------
  

 Cite this work as:
 Gaussian 16, Revision A.03,
 M. J. Frisch, G. W. Trucks, H. B. Schlegel, G. E. Scuseria, 
 M. A. Robb, J. R. Cheeseman, G. Scalmani, V. Barone, 
 G. A. Petersson, H. Nakatsuji, X. Li, M. Caricato, A. V. Marenich, 
 J. Bloino, B. G. Janesko, R. Gomperts, B. Mennucci, H. P. Hratchian, 
 J. V. Ortiz, A. F. Izmaylov, J. L. Sonnenberg, D. Williams-Young, 
 F. Ding, F. Lipparini, F. Egidi, J. Goings, B. Peng, A. Petrone, 
 T. Henderson, D. Ranasinghe, V. G. Zakrzewski, J. Gao, N. Rega, 
 G. Zheng, W. Liang, M. Hada, M. Ehara, K. Toyota, R. Fukuda, 
 J. Hasegawa, M. Ishida, T. Nakajima, Y. Honda, O. Kitao, H. Nakai, 
 T. Vreven, K. Throssell, J. A. Montgomery, Jr., J. E. Peralta, 
 F. Ogliaro, M. J. Bearpark, J. J. Heyd, E. N. Brothers, K. N. Kudin, 
 V. N. Staroverov, T. A. Keith, R. Kobayashi, J. Normand, 
 K. Raghavachari, A. P. Rendell, J. C. Burant, S. S. Iyengar, 
 J. Tomasi, M. Cossi, J. M. Millam, M. Klene, C. Adamo, R. Cammi, 
 J. W. Ochterski, R. L. Martin, K. Morokuma, O. Farkas, 
 J. B. Foresman, and D. J. Fox, Gaussian, Inc., Wallingford CT, 2016.
 
 ******************************************
 Gaussian 16:  ES64L-G16RevA.03 25-Dec-2016
                11-Nov-2024 
 ******************************************
 %chk=CURCUMIN-OPT-FREQ-Reag-B3LYP-6-311G-D-363.chk
 ----------------------------------------------------------------------
 # opt=(calcfc) freq=noraman b3lyp/6-311g(d) scrf=(smd,solvent=generic,
 read) temperature=363.15 SCF=(MaxCycle=500)
 ----------------------------------------------------------------------
 1/10=4,18=20,19=15,26=3,38=1,40=2,112=363150/1,3;
 2/9=110,12=2,17=6,18=5,40=1/2;
 3/5=4,6=6,7=1,11=2,25=1,30=1,70=32203,71=2,72=-2,74=-5,140=1/1,2,3;
 4//1;
 5/5=2,7=500,38=5/2;
 8/6=4,10=90,11=11/1;
 11/6=1,8=1,9=11,15=111,16=1/1,2,10;
 10/6=1,13=1/2;
 6/7=2,8=2,9=2,10=2,28=1/1;
 7/10=1,18=20,25=1/1,2,3,16;
 1/10=4,18=20,19=15,26=3/3(2);
 2/9=110/2;
 99//99;
 2/9=110/2;
 3/5=4,6=6,7=1,11=2,25=1,30=1,70=32205,71=1,72=-2,74=-5/1,2,3;
 4/5=5,16=3,69=1/1;
 5/5=2,7=500,38=5/2;
 7//1,2,3,16;
 1/18=20,19=15,26=3/3(-5);
 2/9=110/2;
 6/7=2,8=2,9=2,10=2,19=2,28=1/1;
 99/9=1/99;
 ---
 XXX
 ---
 Symbolic Z-matrix:
 Charge =  0 Multiplicity = 2
 C                    -2.75164   0.25606  -0.31256 
 H                    -2.34134   0.67513  -1.22823 
 C                    -1.99828   0.29842   0.80551 
 H                    -2.36468  -0.09134   1.75099 
 C                    -0.64395   0.8619    0.89769 
 O                    -0.06041   0.88736   1.97146 
 C                    -4.09393  -0.29383  -0.45735 
 C                    -4.73016  -0.20751  -1.70536 
 C                    -4.79089  -0.92173   0.59389 
 C                    -6.01094  -0.71145  -1.89517 
 H                    -4.2179    0.26762  -2.53569 
 C                    -6.06701  -1.42918   0.41989 
 H                    -4.35005  -1.01921   1.57953 
 C                    -6.69403  -1.31893  -0.84156 
 H                    -6.49382  -0.62467  -2.86491 
 O                    -7.95473  -1.80672  -0.96221 
 H                    -8.27358  -1.66812  -1.86524 
 O                    -6.72311  -1.97209   1.49262 
 C                    -6.94453  -3.38999   1.43455 
 H                    -5.99345  -3.92558   1.34812 
 H                    -7.42535  -3.65879   2.37468 
 H                    -7.59748  -3.6599    0.60258 
 C                     2.69831  -0.00374  -0.18498 
 H                     1.79247  -0.57805  -0.36315 
 C                     2.59408   1.33235  -0.0305 
 H                     3.46827   1.94796   0.16107 
 C                     1.34582   2.09857  -0.08687 
 O                     1.36892   3.31277   0.08208 
 C                     3.91252  -0.8088   -0.13937 
 C                     3.81516  -2.19482  -0.3384 
 C                     5.19313  -0.26582   0.08483 
 C                     4.94238  -3.00637  -0.30506 
 H                     2.84295  -2.6433   -0.5157 
 C                     6.32496  -1.06167   0.12327 
 H                     5.33034   0.79686   0.24858 
 C                     6.20215  -2.45606  -0.06848 
 H                     4.84811  -4.0789   -0.45268 
 O                     7.3329   -3.20354   0.00246 
 H                     7.11712  -4.13604  -0.13948 
 O                     7.53527  -0.48905   0.41232 
 C                     8.48497  -0.46287  -0.66454 
 H                     8.07863   0.07982  -1.52439 
 H                     9.35778   0.06692  -0.28389 
 H                     8.77537  -1.47051  -0.96749 
 C                     0.01859   1.4061   -0.37251 
 H                     0.1303    0.59051  -1.09246 
 H                    -0.64062   2.14511  -0.83242 
 O                    -1.3567    4.80617  -0.82251 
 O                    -0.2857    5.93241   0.72862 
 N                    -0.81926   4.98889   0.23143 
 
 Add virtual bond connecting atoms O48        and H47        Dist= 5.21D+00.
 Add virtual bond connecting atoms N50        and O28        Dist= 5.22D+00.

 GradGradGradGradGradGradGradGradGradGradGradGradGradGradGradGradGradGrad
 Berny optimization.
 Initialization pass.
                           ----------------------------
                           !    Initial Parameters    !
                           ! (Angstroms and Degrees)  !
 --------------------------                            --------------------------
 ! Name  Definition              Value          Derivative Info.                !
 --------------------------------------------------------------------------------
 ! R1    R(1,2)                  1.0874         calculate D2E/DX2 analytically  !
 ! R2    R(1,3)                  1.3489         calculate D2E/DX2 analytically  !
 ! R3    R(1,7)                  1.4578         calculate D2E/DX2 analytically  !
 ! R4    R(3,4)                  1.0863         calculate D2E/DX2 analytically  !
 ! R5    R(3,5)                  1.4698         calculate D2E/DX2 analytically  !
 ! R6    R(5,6)                  1.2224         calculate D2E/DX2 analytically  !
 ! R7    R(5,45)                 1.5325         calculate D2E/DX2 analytically  !
 ! R8    R(7,8)                  1.4035         calculate D2E/DX2 analytically  !
 ! R9    R(7,9)                  1.4089         calculate D2E/DX2 analytically  !
 ! R10   R(8,10)                 1.3894         calculate D2E/DX2 analytically  !
 ! R11   R(8,11)                 1.0852         calculate D2E/DX2 analytically  !
 ! R12   R(9,12)                 1.3843         calculate D2E/DX2 analytically  !
 ! R13   R(9,13)                 1.0841         calculate D2E/DX2 analytically  !
 ! R14   R(10,14)                1.3949         calculate D2E/DX2 analytically  !
 ! R15   R(10,15)                1.0868         calculate D2E/DX2 analytically  !
 ! R16   R(12,14)                1.413          calculate D2E/DX2 analytically  !
 ! R17   R(12,18)                1.3697         calculate D2E/DX2 analytically  !
 ! R18   R(14,16)                1.3572         calculate D2E/DX2 analytically  !
 ! R19   R(16,17)                0.9676         calculate D2E/DX2 analytically  !
 ! R20   R(18,19)                1.4363         calculate D2E/DX2 analytically  !
 ! R21   R(19,20)                1.0949         calculate D2E/DX2 analytically  !
 ! R22   R(19,21)                1.0896         calculate D2E/DX2 analytically  !
 ! R23   R(19,22)                1.0915         calculate D2E/DX2 analytically  !
 ! R24   R(23,24)                1.0873         calculate D2E/DX2 analytically  !
 ! R25   R(23,25)                1.349          calculate D2E/DX2 analytically  !
 ! R26   R(23,29)                1.4576         calculate D2E/DX2 analytically  !
 ! R27   R(25,26)                1.0862         calculate D2E/DX2 analytically  !
 ! R28   R(25,27)                1.4657         calculate D2E/DX2 analytically  !
 ! R29   R(27,28)                1.2261         calculate D2E/DX2 analytically  !
 ! R30   R(27,45)                1.524          calculate D2E/DX2 analytically  !
 ! R31   R(28,50)                2.7604         calculate D2E/DX2 analytically  !
 ! R32   R(29,30)                1.4036         calculate D2E/DX2 analytically  !
 ! R33   R(29,31)                1.4089         calculate D2E/DX2 analytically  !
 ! R34   R(30,32)                1.3894         calculate D2E/DX2 analytically  !
 ! R35   R(30,33)                1.0853         calculate D2E/DX2 analytically  !
 ! R36   R(31,34)                1.3842         calculate D2E/DX2 analytically  !
 ! R37   R(31,35)                1.0839         calculate D2E/DX2 analytically  !
 ! R38   R(32,36)                1.3949         calculate D2E/DX2 analytically  !
 ! R39   R(32,37)                1.0867         calculate D2E/DX2 analytically  !
 ! R40   R(34,36)                1.4129         calculate D2E/DX2 analytically  !
 ! R41   R(34,40)                1.3698         calculate D2E/DX2 analytically  !
 ! R42   R(36,38)                1.3573         calculate D2E/DX2 analytically  !
 ! R43   R(38,39)                0.9676         calculate D2E/DX2 analytically  !
 ! R44   R(40,41)                1.436          calculate D2E/DX2 analytically  !
 ! R45   R(41,42)                1.095          calculate D2E/DX2 analytically  !
 ! R46   R(41,43)                1.0897         calculate D2E/DX2 analytically  !
 ! R47   R(41,44)                1.0915         calculate D2E/DX2 analytically  !
 ! R48   R(45,46)                1.0936         calculate D2E/DX2 analytically  !
 ! R49   R(45,47)                1.0919         calculate D2E/DX2 analytically  !
 ! R50   R(47,48)                2.7558         calculate D2E/DX2 analytically  !
 ! R51   R(48,50)                1.1971         calculate D2E/DX2 analytically  !
 ! R52   R(49,50)                1.1925         calculate D2E/DX2 analytically  !
 ! A1    A(2,1,3)              118.3696         calculate D2E/DX2 analytically  !
 ! A2    A(2,1,7)              114.1532         calculate D2E/DX2 analytically  !
 ! A3    A(3,1,7)              127.4769         calculate D2E/DX2 analytically  !
 ! A4    A(1,3,4)              121.4522         calculate D2E/DX2 analytically  !
 ! A5    A(1,3,5)              125.3572         calculate D2E/DX2 analytically  !
 ! A6    A(4,3,5)              113.189          calculate D2E/DX2 analytically  !
 ! A7    A(3,5,6)              120.1968         calculate D2E/DX2 analytically  !
 ! A8    A(3,5,45)             118.8509         calculate D2E/DX2 analytically  !
 ! A9    A(6,5,45)             120.9516         calculate D2E/DX2 analytically  !
 ! A10   A(1,7,8)              118.8507         calculate D2E/DX2 analytically  !
 ! A11   A(1,7,9)              123.332          calculate D2E/DX2 analytically  !
 ! A12   A(8,7,9)              117.8157         calculate D2E/DX2 analytically  !
 ! A13   A(7,8,10)             121.1351         calculate D2E/DX2 analytically  !
 ! A14   A(7,8,11)             119.5598         calculate D2E/DX2 analytically  !
 ! A15   A(10,8,11)            119.3033         calculate D2E/DX2 analytically  !
 ! A16   A(7,9,12)             121.7085         calculate D2E/DX2 analytically  !
 ! A17   A(7,9,13)             121.1486         calculate D2E/DX2 analytically  !
 ! A18   A(12,9,13)            117.1405         calculate D2E/DX2 analytically  !
 ! A19   A(8,10,14)            120.4111         calculate D2E/DX2 analytically  !
 ! A20   A(8,10,15)            120.1672         calculate D2E/DX2 analytically  !
 ! A21   A(14,10,15)           119.4179         calculate D2E/DX2 analytically  !
 ! A22   A(9,12,14)            119.5172         calculate D2E/DX2 analytically  !
 ! A23   A(9,12,18)            119.2387         calculate D2E/DX2 analytically  !
 ! A24   A(14,12,18)           121.1695         calculate D2E/DX2 analytically  !
 ! A25   A(10,14,12)           119.4062         calculate D2E/DX2 analytically  !
 ! A26   A(10,14,16)           122.9754         calculate D2E/DX2 analytically  !
 ! A27   A(12,14,16)           117.6154         calculate D2E/DX2 analytically  !
 ! A28   A(14,16,17)           109.7296         calculate D2E/DX2 analytically  !
 ! A29   A(12,18,19)           115.6901         calculate D2E/DX2 analytically  !
 ! A30   A(18,19,20)           110.6207         calculate D2E/DX2 analytically  !
 ! A31   A(18,19,21)           106.0627         calculate D2E/DX2 analytically  !
 ! A32   A(18,19,22)           111.541          calculate D2E/DX2 analytically  !
 ! A33   A(20,19,21)           109.3129         calculate D2E/DX2 analytically  !
 ! A34   A(20,19,22)           109.7848         calculate D2E/DX2 analytically  !
 ! A35   A(21,19,22)           109.4313         calculate D2E/DX2 analytically  !
 ! A36   A(24,23,25)           118.5254         calculate D2E/DX2 analytically  !
 ! A37   A(24,23,29)           114.043          calculate D2E/DX2 analytically  !
 ! A38   A(25,23,29)           127.4314         calculate D2E/DX2 analytically  !
 ! A39   A(23,25,26)           121.2873         calculate D2E/DX2 analytically  !
 ! A40   A(23,25,27)           125.3891         calculate D2E/DX2 analytically  !
 ! A41   A(26,25,27)           113.322          calculate D2E/DX2 analytically  !
 ! A42   A(25,27,28)           119.757          calculate D2E/DX2 analytically  !
 ! A43   A(25,27,45)           120.7535         calculate D2E/DX2 analytically  !
 ! A44   A(28,27,45)           119.4842         calculate D2E/DX2 analytically  !
 ! A45   A(27,28,50)           126.4286         calculate D2E/DX2 analytically  !
 ! A46   A(23,29,30)           118.8937         calculate D2E/DX2 analytically  !
 ! A47   A(23,29,31)           123.3187         calculate D2E/DX2 analytically  !
 ! A48   A(30,29,31)           117.7855         calculate D2E/DX2 analytically  !
 ! A49   A(29,30,32)           121.1388         calculate D2E/DX2 analytically  !
 ! A50   A(29,30,33)           119.5629         calculate D2E/DX2 analytically  !
 ! A51   A(32,30,33)           119.2973         calculate D2E/DX2 analytically  !
 ! A52   A(29,31,34)           121.7404         calculate D2E/DX2 analytically  !
 ! A53   A(29,31,35)           121.1259         calculate D2E/DX2 analytically  !
 ! A54   A(34,31,35)           117.1286         calculate D2E/DX2 analytically  !
 ! A55   A(30,32,36)           120.4205         calculate D2E/DX2 analytically  !
 ! A56   A(30,32,37)           120.1883         calculate D2E/DX2 analytically  !
 ! A57   A(36,32,37)           119.3879         calculate D2E/DX2 analytically  !
 ! A58   A(31,34,36)           119.5121         calculate D2E/DX2 analytically  !
 ! A59   A(31,34,40)           119.2097         calculate D2E/DX2 analytically  !
 ! A60   A(36,34,40)           121.1993         calculate D2E/DX2 analytically  !
 ! A61   A(32,36,34)           119.3974         calculate D2E/DX2 analytically  !
 ! A62   A(32,36,38)           122.9538         calculate D2E/DX2 analytically  !
 ! A63   A(34,36,38)           117.645          calculate D2E/DX2 analytically  !
 ! A64   A(36,38,39)           109.711          calculate D2E/DX2 analytically  !
 ! A65   A(34,40,41)           115.7039         calculate D2E/DX2 analytically  !
 ! A66   A(40,41,42)           110.6388         calculate D2E/DX2 analytically  !
 ! A67   A(40,41,43)           106.0587         calculate D2E/DX2 analytically  !
 ! A68   A(40,41,44)           111.5456         calculate D2E/DX2 analytically  !
 ! A69   A(42,41,43)           109.3045         calculate D2E/DX2 analytically  !
 ! A70   A(42,41,44)           109.774          calculate D2E/DX2 analytically  !
 ! A71   A(43,41,44)           109.4317         calculate D2E/DX2 analytically  !
 ! A72   A(5,45,27)            112.489          calculate D2E/DX2 analytically  !
 ! A73   A(5,45,46)            108.9643         calculate D2E/DX2 analytically  !
 ! A74   A(5,45,47)            109.1752         calculate D2E/DX2 analytically  !
 ! A75   A(27,45,46)           111.918          calculate D2E/DX2 analytically  !
 ! A76   A(27,45,47)           107.2896         calculate D2E/DX2 analytically  !
 ! A77   A(46,45,47)           106.8058         calculate D2E/DX2 analytically  !
 ! A78   A(45,47,48)           143.9917         calculate D2E/DX2 analytically  !
 ! A79   A(47,48,50)            91.9423         calculate D2E/DX2 analytically  !
 ! A80   A(28,50,48)           102.4495         calculate D2E/DX2 analytically  !
 ! A81   A(28,50,49)            98.5286         calculate D2E/DX2 analytically  !
 ! A82   A(48,50,49)           133.5277         calculate D2E/DX2 analytically  !
 ! D1    D(2,1,3,4)            179.0277         calculate D2E/DX2 analytically  !
 ! D2    D(2,1,3,5)             -0.4599         calculate D2E/DX2 analytically  !
 ! D3    D(7,1,3,4)             -0.733          calculate D2E/DX2 analytically  !
 ! D4    D(7,1,3,5)            179.7794         calculate D2E/DX2 analytically  !
 ! D5    D(2,1,7,8)             -1.6017         calculate D2E/DX2 analytically  !
 ! D6    D(2,1,7,9)            177.9243         calculate D2E/DX2 analytically  !
 ! D7    D(3,1,7,8)            178.1676         calculate D2E/DX2 analytically  !
 ! D8    D(3,1,7,9)             -2.3064         calculate D2E/DX2 analytically  !
 ! D9    D(1,3,5,6)            177.798          calculate D2E/DX2 analytically  !
 ! D10   D(1,3,5,45)            -2.5058         calculate D2E/DX2 analytically  !
 ! D11   D(4,3,5,6)             -1.7265         calculate D2E/DX2 analytically  !
 ! D12   D(4,3,5,45)           177.9698         calculate D2E/DX2 analytically  !
 ! D13   D(3,5,45,27)          173.3671         calculate D2E/DX2 analytically  !
 ! D14   D(3,5,45,46)          -61.921          calculate D2E/DX2 analytically  !
 ! D15   D(3,5,45,47)           54.3859         calculate D2E/DX2 analytically  !
 ! D16   D(6,5,45,27)           -6.939          calculate D2E/DX2 analytically  !
 ! D17   D(6,5,45,46)          117.7729         calculate D2E/DX2 analytically  !
 ! D18   D(6,5,45,47)         -125.9202         calculate D2E/DX2 analytically  !
 ! D19   D(1,7,8,10)          -179.7635         calculate D2E/DX2 analytically  !
 ! D20   D(1,7,8,11)            -0.2558         calculate D2E/DX2 analytically  !
 ! D21   D(9,7,8,10)             0.6843         calculate D2E/DX2 analytically  !
 ! D22   D(9,7,8,11)          -179.8081         calculate D2E/DX2 analytically  !
 ! D23   D(1,7,9,12)           179.817          calculate D2E/DX2 analytically  !
 ! D24   D(1,7,9,13)             0.3845         calculate D2E/DX2 analytically  !
 ! D25   D(8,7,9,12)            -0.6524         calculate D2E/DX2 analytically  !
 ! D26   D(8,7,9,13)           179.9151         calculate D2E/DX2 analytically  !
 ! D27   D(7,8,10,14)           -0.0743         calculate D2E/DX2 analytically  !
 ! D28   D(7,8,10,15)          179.2069         calculate D2E/DX2 analytically  !
 ! D29   D(11,8,10,14)        -179.5832         calculate D2E/DX2 analytically  !
 ! D30   D(11,8,10,15)          -0.3021         calculate D2E/DX2 analytically  !
 ! D31   D(7,9,12,14)            0.0104         calculate D2E/DX2 analytically  !
 ! D32   D(7,9,12,18)         -176.8873         calculate D2E/DX2 analytically  !
 ! D33   D(13,9,12,14)         179.4646         calculate D2E/DX2 analytically  !
 ! D34   D(13,9,12,18)           2.5669         calculate D2E/DX2 analytically  !
 ! D35   D(8,10,14,12)          -0.5855         calculate D2E/DX2 analytically  !
 ! D36   D(8,10,14,16)         178.7685         calculate D2E/DX2 analytically  !
 ! D37   D(15,10,14,12)       -179.8719         calculate D2E/DX2 analytically  !
 ! D38   D(15,10,14,16)         -0.518          calculate D2E/DX2 analytically  !
 ! D39   D(9,12,14,10)           0.6151         calculate D2E/DX2 analytically  !
 ! D40   D(9,12,14,16)        -178.7732         calculate D2E/DX2 analytically  !
 ! D41   D(18,12,14,10)        177.4513         calculate D2E/DX2 analytically  !
 ! D42   D(18,12,14,16)         -1.937          calculate D2E/DX2 analytically  !
 ! D43   D(9,12,18,19)        -112.2189         calculate D2E/DX2 analytically  !
 ! D44   D(14,12,18,19)         70.9363         calculate D2E/DX2 analytically  !
 ! D45   D(10,14,16,17)          0.3145         calculate D2E/DX2 analytically  !
 ! D46   D(12,14,16,17)        179.6793         calculate D2E/DX2 analytically  !
 ! D47   D(12,18,19,20)         58.8178         calculate D2E/DX2 analytically  !
 ! D48   D(12,18,19,21)        177.2466         calculate D2E/DX2 analytically  !
 ! D49   D(12,18,19,22)        -63.6857         calculate D2E/DX2 analytically  !
 ! D50   D(24,23,25,26)        179.272          calculate D2E/DX2 analytically  !
 ! D51   D(24,23,25,27)         -0.246          calculate D2E/DX2 analytically  !
 ! D52   D(29,23,25,26)         -0.5669         calculate D2E/DX2 analytically  !
 ! D53   D(29,23,25,27)        179.9152         calculate D2E/DX2 analytically  !
 ! D54   D(24,23,29,30)          0.7998         calculate D2E/DX2 analytically  !
 ! D55   D(24,23,29,31)       -179.7458         calculate D2E/DX2 analytically  !
 ! D56   D(25,23,29,30)       -179.3552         calculate D2E/DX2 analytically  !
 ! D57   D(25,23,29,31)          0.0991         calculate D2E/DX2 analytically  !
 ! D58   D(23,25,27,28)        179.2472         calculate D2E/DX2 analytically  !
 ! D59   D(23,25,27,45)         -1.6            calculate D2E/DX2 analytically  !
 ! D60   D(26,25,27,28)         -0.3042         calculate D2E/DX2 analytically  !
 ! D61   D(26,25,27,45)        178.8486         calculate D2E/DX2 analytically  !
 ! D62   D(25,27,28,50)       -174.8557         calculate D2E/DX2 analytically  !
 ! D63   D(45,27,28,50)          5.9806         calculate D2E/DX2 analytically  !
 ! D64   D(25,27,45,5)          86.757          calculate D2E/DX2 analytically  !
 ! D65   D(25,27,45,46)        -36.3159         calculate D2E/DX2 analytically  !
 ! D66   D(25,27,45,47)       -153.1653         calculate D2E/DX2 analytically  !
 ! D67   D(28,27,45,5)         -94.0879         calculate D2E/DX2 analytically  !
 ! D68   D(28,27,45,46)        142.8393         calculate D2E/DX2 analytically  !
 ! D69   D(28,27,45,47)         25.9899         calculate D2E/DX2 analytically  !
 ! D70   D(27,28,50,48)        -58.6347         calculate D2E/DX2 analytically  !
 ! D71   D(27,28,50,49)        163.096          calculate D2E/DX2 analytically  !
 ! D72   D(23,29,30,32)        179.9832         calculate D2E/DX2 analytically  !
 ! D73   D(23,29,30,33)         -0.3846         calculate D2E/DX2 analytically  !
 ! D74   D(31,29,30,32)          0.4985         calculate D2E/DX2 analytically  !
 ! D75   D(31,29,30,33)       -179.8693         calculate D2E/DX2 analytically  !
 ! D76   D(23,29,31,34)        179.9197         calculate D2E/DX2 analytically  !
 ! D77   D(23,29,31,35)          0.7704         calculate D2E/DX2 analytically  !
 ! D78   D(30,29,31,34)         -0.6203         calculate D2E/DX2 analytically  !
 ! D79   D(30,29,31,35)       -179.7696         calculate D2E/DX2 analytically  !
 ! D80   D(29,30,32,36)          0.1405         calculate D2E/DX2 analytically  !
 ! D81   D(29,30,32,37)        179.4727         calculate D2E/DX2 analytically  !
 ! D82   D(33,30,32,36)       -179.4927         calculate D2E/DX2 analytically  !
 ! D83   D(33,30,32,37)         -0.1604         calculate D2E/DX2 analytically  !
 ! D84   D(29,31,34,36)          0.1018         calculate D2E/DX2 analytically  !
 ! D85   D(29,31,34,40)       -176.7072         calculate D2E/DX2 analytically  !
 ! D86   D(35,31,34,36)        179.2835         calculate D2E/DX2 analytically  !
 ! D87   D(35,31,34,40)          2.4746         calculate D2E/DX2 analytically  !
 ! D88   D(30,32,36,34)         -0.6715         calculate D2E/DX2 analytically  !
 ! D89   D(30,32,36,38)        178.5964         calculate D2E/DX2 analytically  !
 ! D90   D(37,32,36,34)        179.9909         calculate D2E/DX2 analytically  !
 ! D91   D(37,32,36,38)         -0.7411         calculate D2E/DX2 analytically  !
 ! D92   D(31,34,36,32)          0.5503         calculate D2E/DX2 analytically  !
 ! D93   D(31,34,36,38)       -178.7563         calculate D2E/DX2 analytically  !
 ! D94   D(40,34,36,32)        177.294          calculate D2E/DX2 analytically  !
 ! D95   D(40,34,36,38)         -2.0126         calculate D2E/DX2 analytically  !
 ! D96   D(31,34,40,41)       -112.2504         calculate D2E/DX2 analytically  !
 ! D97   D(36,34,40,41)         70.9963         calculate D2E/DX2 analytically  !
 ! D98   D(32,36,38,39)          0.3675         calculate D2E/DX2 analytically  !
 ! D99   D(34,36,38,39)        179.6475         calculate D2E/DX2 analytically  !
 ! D100  D(34,40,41,42)         58.6036         calculate D2E/DX2 analytically  !
 ! D101  D(34,40,41,43)        177.0297         calculate D2E/DX2 analytically  !
 ! D102  D(34,40,41,44)        -63.902          calculate D2E/DX2 analytically  !
 ! D103  D(5,45,47,48)          86.0647         calculate D2E/DX2 analytically  !
 ! D104  D(27,45,47,48)        -36.1018         calculate D2E/DX2 analytically  !
 ! D105  D(46,45,47,48)       -156.2606         calculate D2E/DX2 analytically  !
 ! D106  D(45,47,48,50)        -15.5683         calculate D2E/DX2 analytically  !
 ! D107  D(47,48,50,28)         34.9596         calculate D2E/DX2 analytically  !
 ! D108  D(47,48,50,49)        149.7421         calculate D2E/DX2 analytically  !
 --------------------------------------------------------------------------------
 Trust Radius=3.00D-01 FncErr=1.00D-07 GrdErr=1.00D-06 EigMax=2.50D+02 EigMin=1.00D-04
 Number of steps in this run=    252 maximum allowed number of steps=    300.
 GradGradGradGradGradGradGradGradGradGradGradGradGradGradGradGradGradGrad

                          Input orientation:                          
 ---------------------------------------------------------------------
 Center     Atomic      Atomic             Coordinates (Angstroms)
 Number     Number       Type             X           Y           Z
 ---------------------------------------------------------------------
      1          6           0       -2.751635    0.256058   -0.312564
      2          1           0       -2.341337    0.675132   -1.228229
      3          6           0       -1.998279    0.298418    0.805510
      4          1           0       -2.364682   -0.091341    1.750987
      5          6           0       -0.643946    0.861900    0.897689
      6          8           0       -0.060407    0.887355    1.971457
      7          6           0       -4.093930   -0.293825   -0.457346
      8          6           0       -4.730160   -0.207514   -1.705364
      9          6           0       -4.790893   -0.921728    0.593892
     10          6           0       -6.010944   -0.711446   -1.895166
     11          1           0       -4.217903    0.267623   -2.535693
     12          6           0       -6.067014   -1.429181    0.419890
     13          1           0       -4.350054   -1.019209    1.579525
     14          6           0       -6.694027   -1.318931   -0.841558
     15          1           0       -6.493820   -0.624671   -2.864908
     16          8           0       -7.954729   -1.806719   -0.962212
     17          1           0       -8.273583   -1.668120   -1.865243
     18          8           0       -6.723111   -1.972090    1.492617
     19          6           0       -6.944534   -3.389985    1.434552
     20          1           0       -5.993450   -3.925579    1.348123
     21          1           0       -7.425351   -3.658790    2.374681
     22          1           0       -7.597478   -3.659899    0.602582
     23          6           0        2.698306   -0.003742   -0.184978
     24          1           0        1.792465   -0.578045   -0.363154
     25          6           0        2.594082    1.332352   -0.030504
     26          1           0        3.468268    1.947962    0.161071
     27          6           0        1.345820    2.098566   -0.086866
     28          8           0        1.368921    3.312774    0.082083
     29          6           0        3.912516   -0.808800   -0.139369
     30          6           0        3.815157   -2.194816   -0.338400
     31          6           0        5.193132   -0.265822    0.084827
     32          6           0        4.942378   -3.006369   -0.305057
     33          1           0        2.842945   -2.643303   -0.515701
     34          6           0        6.324963   -1.061673    0.123272
     35          1           0        5.330341    0.796862    0.248582
     36          6           0        6.202153   -2.456064   -0.068483
     37          1           0        4.848112   -4.078902   -0.452677
     38          8           0        7.332900   -3.203542    0.002458
     39          1           0        7.117122   -4.136044   -0.139478
     40          8           0        7.535273   -0.489053    0.412317
     41          6           0        8.484971   -0.462874   -0.664542
     42          1           0        8.078633    0.079824   -1.524393
     43          1           0        9.357780    0.066918   -0.283886
     44          1           0        8.775369   -1.470507   -0.967492
     45          6           0        0.018587    1.406103   -0.372506
     46          1           0        0.130300    0.590509   -1.092464
     47          1           0       -0.640617    2.145105   -0.832419
     48          8           0       -1.356703    4.806173   -0.822513
     49          8           0       -0.285703    5.932410    0.728617
     50          7           0       -0.819257    4.988892    0.231428
 ---------------------------------------------------------------------
                    Distance matrix (angstroms):
                    1          2          3          4          5
     1  C    0.000000
     2  H    1.087387   0.000000
     3  C    1.348862   2.096592   0.000000
     4  H    2.128065   3.076321   1.086319   0.000000
     5  C    2.504817   2.726820   1.469771   2.144229   0.000000
     6  O    3.585805   3.935184   2.337012   2.513192   1.222352
     7  C    1.457769   2.145861   2.517401   2.812123   3.882552
     8  C    2.463605   2.590984   3.744814   4.189910   4.961520
     9  C    2.523374   3.445346   3.054870   2.813345   4.524466
    10  C    3.750172   3.979123   4.941149   5.193668   6.251410
    11  H    2.663152   2.323150   4.011398   4.683899   4.991437
    12  C    3.790548   4.585313   4.437106   4.155586   5.906523
    13  H    2.785902   3.845675   2.804654   2.198190   4.211735
    14  C    4.278186   4.803302   5.232466   5.193409   6.662168
    15  H    4.614552   4.648798   5.876559   6.216165   7.112528
    16  O    5.634650   6.143331   6.560163   6.446130   8.001769
    17  H    6.050222   6.410005   7.097861   7.104820   8.499774
    18  O    4.898565   5.797476   5.286905   4.753933   6.733624
    19  C    5.824641   6.693654   6.202052   5.652984   7.619984
    20  H    5.545569   6.414208   5.839347   5.294491   7.193055
    21  H    6.662653   7.590194   6.897456   6.223026   8.282850
    22  H    6.297174   7.054883   6.860064   6.437049   8.299721
    23  C    5.457621   5.191074   4.809395   5.421207   3.618308
    24  H    4.620296   4.405352   4.062475   4.689173   3.098268
    25  C    5.460280   5.121020   4.780975   5.458017   3.401131
    26  H    6.463286   6.107517   5.746254   6.380431   4.316531
    27  C    4.498323   4.113879   3.901265   4.684146   2.541232
    28  O    5.145701   4.737097   4.576868   5.320999   3.274695
    29  C    6.750913   6.519076   6.087382   6.594802   4.962668
    30  C    7.009294   6.850607   6.428124   6.854236   5.545722
    31  C    7.971800   7.705695   7.249424   7.741259   6.000332
    32  C    8.357112   8.213294   7.767091   8.131287   6.900516
    33  H    6.304513   6.196490   5.816938   6.226537   5.142230
    34  C    9.182102   8.941353   8.461185   8.893870   7.270870
    35  H    8.119464   7.813478   7.366633   7.890469   6.009798
    36  C    9.358713   9.172820   8.694718   9.071552   7.668862
    37  H    8.750295   8.653930   8.222958   8.531188   7.509841
    38  O   10.666111  10.495216   9.998976  10.333743   8.997740
    39  H   10.803374  10.667485  10.180766  10.480367   9.289205
    40  O   10.339300  10.079392   9.574097   9.997966   8.304233
    41  C   11.265082  10.900539  10.613159  11.121501   9.355892
    42  H   10.899279  10.441163  10.345066  10.946243   9.086336
    43  H   12.110926  11.752917  11.410541  11.898818  10.102606
    44  H   11.673979  11.324880  11.060928  11.549587   9.881423
    45  C    3.000054   2.614540   2.585041   3.525838   1.532482
    46  H    3.004272   2.476809   2.866788   3.843835   2.152631
    47  H    2.880129   2.282528   2.817146   3.827281   2.154043
    48  O    4.786380   4.266100   4.835487   5.623572   4.361698
    49  O    6.275815   5.974433   5.889032   6.453911   5.085961
    50  N    5.140985   4.801651   4.870340   5.523239   4.184101
                    6          7          8          9         10
     6  O    0.000000
     7  C    4.854233   0.000000
     8  C    6.043537   1.403491   0.000000
     9  C    5.248615   1.408943   2.408395   0.000000
    10  C    7.274327   2.432422   1.389381   2.779956   0.000000
    11  H    6.163055   2.156414   1.085177   3.396642   2.140992
    12  C    6.622162   2.439598   2.792195   1.384294   2.424412
    13  H    4.710591   2.177298   3.404971   1.084119   3.863515
    14  C    7.535626   2.821164   2.416233   2.416652   1.394894
    15  H    8.189350   3.415448   2.151525   3.866717   1.086784
    16  O    8.842215   4.177261   3.675266   3.635179   2.418331
    17  H    9.418438   4.619563   3.835985   4.328230   2.456757
    18  O    7.266178   3.678522   4.160849   2.375802   3.684220
    19  C    8.122506   4.614264   4.989053   3.381889   4.374149
    20  H    7.665108   4.478564   4.974303   3.322368   4.566167
    21  H    8.664434   5.517403   5.985159   4.195603   5.377637
    22  H    8.908354   4.972801   5.046493   3.921043   4.177225
    23  C    3.613138   6.803881   7.585196   7.585344   8.903742
    24  H    3.321286   5.894005   6.669592   6.661431   7.953493
    25  C    3.354427   6.896097   7.669476   7.746522   9.038835
    26  H    4.105354   7.911693   8.680085   8.754210  10.057635
    27  C    2.771498   5.954131   6.697393   6.873489   8.080105
    28  O    3.390482   6.568202   7.265410   7.492414   8.635176
    29  C    4.807977   8.029289   8.803961   8.734973  10.078063
    30  C    5.463992   8.135206   8.879212   8.749515  10.058636
    31  C    5.699900   9.302917  10.083646  10.018489  11.386407
    32  C    6.735834   9.435886  10.166240   9.994519  11.303556
    33  H    5.203936   7.324185   8.043649   7.903828   9.166589
    34  C    6.927297  10.463271  11.237849  11.126694  12.504853
    35  H    5.660093   9.513402  10.297590  10.271912  11.640249
    36  C    7.386438  10.527859  11.280551  11.119352  12.471576
    37  H    7.391461   9.710146  10.406736  10.196738  11.460350
    38  O    8.676023  11.800437  12.546324  12.350823  13.706557
    39  H    9.011521  11.855436  12.579485  12.355990  13.680513
    40  O    7.875263  11.663310  12.450088  12.335094  13.743141
    41  C    9.044064  12.581743  13.258514  13.343267  14.550181
    42  H    8.894776  12.224954  12.813294  13.081091  14.116648
    43  H    9.719153  13.457664  14.162131  14.210308  15.472548
    44  H    9.605617  12.933046  13.584510  13.666841  14.834817
    45  C    2.401979   4.450814   5.189496   5.429901   6.569456
    46  H    3.084169   4.362286   4.963523   5.417453   6.328846
    47  H    3.127347   4.244341   4.798042   5.353935   6.174927
    48  O    4.984354   5.799633   6.107102   6.827057   7.297716
    49  O    5.200768   7.394262   7.960913   8.203298   9.154422
    50  N    4.519531   6.253398   6.785938   7.130267   7.998117
                   11         12         13         14         15
    11  H    0.000000
    12  C    3.877348   0.000000
    13  H    4.313748   2.112056   0.000000
    14  C    3.393882   1.412994   3.383147   0.000000
    15  H    2.466651   3.408709   4.950190   2.148494   0.000000
    16  O    4.554405   2.369854   4.480433   1.357153   2.674275
    17  H    4.543693   3.185572   5.261330   1.914383   2.292525
    18  O    5.245919   1.369656   2.558698   2.424012   4.566852
    19  C    6.047765   2.375780   3.517517   3.087506   5.131809
    20  H    5.984943   2.664401   3.346832   3.475647   5.375499
    21  H    7.058060   3.261509   4.130026   4.044004   6.125922
    22  H    6.057700   2.711420   4.298072   2.895150   4.738582
    23  C    7.309819   8.901044   7.336486   9.506668   9.594934
    24  H    6.446674   7.944117   6.457489   8.532194   8.655834
    25  C    7.335718   9.101841   7.506201   9.693094   9.718732
    26  H    8.317049  10.118976   8.481879  10.721478  10.724653
    27  C    6.348553   8.225078   6.703757   8.768579   8.751771
    28  O    6.880283   8.825723   7.329058   9.344353   9.274208
    29  C    8.544283  10.014423   8.442093  10.641995  10.758917
    30  C    8.684570   9.940750   8.469425  10.557618  10.729567
    31  C    9.783622  11.325041   9.688865  11.969619  12.058796
    32  C    9.980256  11.145393   9.687608  11.770353  11.958760
    33  H    7.899964   9.040840   7.665956   9.634001   9.837115
    34  C   10.953956  12.400973  10.773972  13.057227  13.169715
    35  H    9.959982  11.613971   9.938791  12.257667  12.309564
    36  C   11.049125  12.321747  10.776342  12.969278  13.128660
    37  H   10.267612  11.265983   9.904435  11.873906  12.099173
    38  O   12.325269  13.523324  11.989573  14.178110  14.354461
    39  H   12.394229  13.470762  12.006905  14.113004  14.318361
    40  O   12.140859  13.634739  11.954264  14.308525  14.407430
    41  C   12.860709  14.624295  13.041595  15.204149  15.140408
    42  H   12.339481  14.358157  12.857466  14.854436  14.650928
    43  H   13.762634  15.513152  13.876480  16.121169  16.075235
    44  H   13.202480  14.907142  13.377881  15.470651  15.409859
    45  C    4.891151   6.760271   5.364475   7.259821   7.262751
    46  H    4.592824   6.691268   5.459330   7.090864   6.963992
    47  H    4.384411   6.617370   5.439695   6.974482   6.786947
    48  O    5.632041   7.912663   6.976031   8.124302   7.749543
    49  O    7.629399   9.365463   8.097407   9.803775   9.718511
    50  N    6.441905   8.292535   7.097969   8.686360   8.561545
                   16         17         18         19         20
    16  O    0.000000
    17  H    0.967648   0.000000
    18  O    2.751439   3.711009   0.000000
    19  C    3.044947   3.952194   1.436254   0.000000
    20  H    3.697814   4.541018   2.090312   1.094939   0.000000
    21  H    3.852955   4.760170   2.028826   1.089625   1.781948
    22  H    2.451629   3.242601   2.098900   1.091496   1.788665
    23  C   10.832450  11.223894   9.769945  10.347651   9.658045
    24  H    9.842576  10.235715   8.826227   9.352749   8.646093
    25  C   11.045328  11.422576  10.002466  10.743931  10.163275
    26  H   12.076599  12.452030  11.000183  11.770381  11.199629
    27  C   10.125102  10.482531   9.174566  10.058274   9.602833
    28  O   10.687853  11.026299   9.767312  10.764278  10.401977
    29  C   11.937521  12.337669  10.822808  11.270106  10.490715
    30  C   11.792793  12.196159  10.698473  10.970084  10.101914
    31  C   13.279191  13.679241  12.119821  12.605756  11.837625
    32  C   12.969440  13.374854  11.848418  12.019654  11.098211
    33  H   10.839235  11.240527   9.797617  10.007785   9.121401
    34  C   14.340257  14.745830  13.151281  13.535880  12.706121
    35  H   13.591826  13.986105  12.429820  13.023393  12.318226
    36  C   14.199919  14.608085  13.028189  13.265244  12.365233
    37  H   13.012885  13.415890  11.921243  11.962556  10.991172
    38  O   15.381590  15.792661  14.188322  14.350288  13.413566
    39  H   15.272961  15.682561  14.103137  14.169133  13.196376
    40  O   15.606593  16.015536  14.375951  14.802877  13.989703
    41  C   16.497220  16.844686  15.434274  15.844362  15.022178
    42  H   16.153755  16.448904  15.244813  15.700015  14.910336
    43  H   17.426807  17.786962  16.306703  16.753168  15.945650
    44  H   16.733477  17.073716  15.700529  16.017789  15.149504
    45  C    8.616481   8.968790   7.767970   8.645980   8.217785
    46  H    8.433941   8.736352   7.760077   8.501966   7.990734
    47  H    8.314445   8.594741   7.704143   8.689980   8.382171
    48  O    9.342580   9.531368   8.950029  10.173259  10.121985
    49  O   11.025742  11.327065  10.222771  11.478041  11.407985
    50  N    9.925727  10.211700   9.214193  10.448546  10.367597
                   21         22         23         24         25
    21  H    0.000000
    22  H    1.780439   0.000000
    23  C   11.063438  10.954036   0.000000
    24  H   10.097270   9.929829   1.087253   0.000000
    25  C   11.449255  11.366233   1.349026   2.098300   0.000000
    26  H   12.450168  12.413451   2.126438   3.076335   1.086222
    27  C   10.776818  10.659167   2.501708   2.727650   1.465748
    28  O   11.454166  11.370374   3.582997   3.939048   2.331473
    29  C   11.957848  11.881045   1.457568   2.144282   2.516873
    30  C   11.655602  11.544702   2.464082   2.589564   3.745229
    31  C   13.265812  13.243396   2.523021   3.444228   3.053281
    32  C   12.671518  12.589635   3.750473   3.977698   4.941090
    33  H   10.715569  10.549240   2.664128   2.322083   4.012877
    34  C   14.173390  14.170917   3.790366   4.584108   4.435592
    35  H   13.677749  13.679055   2.785058   3.844627   2.802098
    36  C   13.896923  13.868286   4.278364   4.801993   5.231798
    37  H   12.601918  12.497274   4.615220   4.647687   5.877121
    38  O   14.954620  14.949401   5.635008   6.141932   6.559864
    39  H   14.765916  14.740991   6.050118   6.407914   7.097402
    40  O   15.418118  15.462555   4.897809   5.795612   5.284787
    41  C   16.510273  16.446025   5.824627   6.700279   6.190914
    42  H   16.418086  16.255768   5.545172   6.426288   5.820724
    43  H   17.396045  17.382628   6.660583   7.593171   6.885720
    44  H   16.685983  16.593031   6.300351   7.065597   6.851443
    45  C    9.413415   9.198892   3.033764   2.661498   2.599150
    46  H    9.336246   8.980963   2.787709   2.158751   2.783579
    47  H    9.487007   9.173615   4.023075   3.681799   3.430293
    48  O   10.895235  10.613790   6.323356   6.254444   5.320095
    49  O   12.069599  12.061937   6.706479   6.920749   5.479960
    50  N   11.091277  10.994709   6.121522   6.177816   5.008970
                   26         27         28         29         30
    26  H    0.000000
    27  C    2.142181   0.000000
    28  O    2.505236   1.226123   0.000000
    29  C    2.808444   3.878590   4.848328   0.000000
    30  C    4.187172   4.959236   6.041062   1.403614   0.000000
    31  C    2.807456   4.519029   5.237456   1.408924   2.408102
    32  C    5.189959   6.248456   7.269872   2.432566   1.389373
    33  H    4.682816   4.991052   6.164815   2.156620   1.085252
    34  C    4.149703   5.901113   6.610585   2.439841   2.792182
    35  H    2.190891   4.205159   4.695784   2.176898   3.404478
    36  C    5.188667   6.658000   7.527436   2.821514   2.416372
    37  H    6.213191   7.110624   8.187039   3.415709   2.151705
    38  O    6.441935   7.997841   8.833898   4.177790   3.675354
    39  H    7.100676   8.495944   9.411471   4.619529   3.835480
    40  O    4.747915   6.727130   7.251678   3.678446   4.160825
    41  C    5.626818   7.606718   8.090188   4.615497   4.991308
    42  H    5.252256   7.174439   7.619250   4.479339   4.975720
    43  H    6.198602   8.267884   8.630839   5.517125   5.986575
    44  H    6.412870   8.289269   8.879012   4.977046   5.052137
    45  C    3.532508   1.524022   2.380220   4.485848   5.232755
    46  H    3.815240   2.182419   3.213171   4.143865   4.680258
    47  H    4.231882   2.122250   2.497600   5.471462   6.239623
    48  O    5.693606   3.895631   3.236906   7.730412   8.717588
    49  O    5.503656   4.245614   3.165167   7.988889   9.165554
    50  N    5.256907   3.625307   2.760398   7.492690   8.567856
                   31         32         33         34         35
    31  C    0.000000
    32  C    2.779476   0.000000
    33  H    3.396532   2.140983   0.000000
    34  C    1.384160   2.424221   3.877408   0.000000
    35  H    1.083946   3.862848   4.313468   2.111665   0.000000
    36  C    2.416358   1.394932   3.394015   1.412862   3.382619
    37  H    3.866203   1.086740   2.466903   3.408295   4.949483
    38  O    3.635325   2.418272   4.554344   2.370261   4.480408
    39  H    4.327894   2.456236   4.542952   3.185641   5.260869
    40  O    2.375438   3.684374   5.245946   1.369778   2.557755
    41  C    3.381802   4.375907   6.050527   2.375888   3.517445
    42  H    3.321924   4.565902   5.987095   2.663301   3.348237
    43  H    4.194158   5.379713   7.059895   3.261514   4.127542
    44  H    3.923145   4.182046   6.064093   2.713190   4.299769
    45  C    5.457142   6.611972   4.939149   6.790147   5.382532
    46  H    5.267977   6.059178   4.260122   6.525455   5.374143
    47  H    6.378600   7.614829   5.929955   7.727618   6.216000
    48  O    8.333591  10.048980   8.557212   9.712575   7.870094
    49  O    8.297601  10.406877   9.213014   9.642849   7.625237
    50  N    7.986384   9.869572   8.498254   9.362741   7.442511
                   36         37         38         39         40
    36  C    0.000000
    37  H    2.148170   0.000000
    38  O    1.357330   2.673495   0.000000
    39  H    1.914299   2.291237   0.967608   0.000000
    40  O    2.424358   4.566844   2.752706   3.712125   0.000000
    41  C    3.088584   5.132961   3.046870   3.954603   1.436049
    42  H    3.474418   5.373997   3.697010   4.540489   2.090384
    43  H    4.045963   6.128084   3.857206   4.765112   2.028629
    44  H    2.898444   4.742584   2.454573   3.246610   2.098800
    45  C    7.296934   7.308626   8.653820   9.008823   7.791542
    46  H    6.870047   6.668619   8.214081   8.489062   7.633050
    47  H    8.281175   8.307142   9.637532  10.005774   8.679478
    48  O   10.509279  10.843480  11.846743  12.338375  10.422642
    49  O   10.634573  11.312731  11.917887  12.527137  10.124372
    50  N   10.238043  10.715034  11.559674  12.099097   9.991935
                   41         42         43         44         45
    41  C    0.000000
    42  H    1.094977   0.000000
    43  H    1.089667   1.781921   0.000000
    44  H    1.091528   1.788604   1.780504   0.000000
    45  C    8.675138   8.249255   9.435136   9.236348   0.000000
    46  H    8.431682   7.976425   9.277625   8.888229   1.093624
    47  H    9.492423   8.987187  10.226812  10.087204   1.091876
    48  O   11.164513  10.576227  11.728205  11.919589   3.695187
    49  O   10.943732  10.454230  11.332516  11.822986   4.668246
    50  N   10.820960  10.312822  11.316513  11.628331   3.728686
                   46         47         48         49         50
    46  H    0.000000
    47  H    1.754624   0.000000
    48  O    4.478379   2.755750   0.000000
    49  O    5.659090   4.111749   2.195781   0.000000
    50  N    4.690429   3.041514   1.197091   1.192520   0.000000
 Stoichiometry    C21H20NO8(2)
 Framework group  C1[X(C21H20NO8)]
 Deg. of freedom   144
 Full point group                 C1      NOp   1
 Largest Abelian subgroup         C1      NOp   1
 Largest concise Abelian subgroup C1      NOp   1
                         Standard orientation:                         
 ---------------------------------------------------------------------
 Center     Atomic      Atomic             Coordinates (Angstroms)
 Number     Number       Type             X           Y           Z
 ---------------------------------------------------------------------
      1          6           0       -2.751635    0.256058   -0.312564
      2          1           0       -2.341337    0.675132   -1.228229
      3          6           0       -1.998279    0.298418    0.805510
      4          1           0       -2.364682   -0.091341    1.750987
      5          6           0       -0.643946    0.861900    0.897689
      6          8           0       -0.060407    0.887355    1.971457
      7          6           0       -4.093930   -0.293825   -0.457346
      8          6           0       -4.730160   -0.207514   -1.705364
      9          6           0       -4.790893   -0.921728    0.593892
     10          6           0       -6.010944   -0.711446   -1.895166
     11          1           0       -4.217903    0.267623   -2.535693
     12          6           0       -6.067014   -1.429181    0.419890
     13          1           0       -4.350054   -1.019209    1.579525
     14          6           0       -6.694027   -1.318931   -0.841558
     15          1           0       -6.493820   -0.624671   -2.864908
     16          8           0       -7.954729   -1.806719   -0.962212
     17          1           0       -8.273583   -1.668120   -1.865243
     18          8           0       -6.723111   -1.972090    1.492617
     19          6           0       -6.944534   -3.389985    1.434552
     20          1           0       -5.993450   -3.925579    1.348123
     21          1           0       -7.425351   -3.658790    2.374681
     22          1           0       -7.597478   -3.659899    0.602582
     23          6           0        2.698306   -0.003742   -0.184978
     24          1           0        1.792465   -0.578045   -0.363154
     25          6           0        2.594082    1.332352   -0.030504
     26          1           0        3.468268    1.947962    0.161071
     27          6           0        1.345820    2.098566   -0.086866
     28          8           0        1.368921    3.312774    0.082083
     29          6           0        3.912516   -0.808800   -0.139369
     30          6           0        3.815157   -2.194816   -0.338400
     31          6           0        5.193132   -0.265822    0.084827
     32          6           0        4.942378   -3.006369   -0.305057
     33          1           0        2.842945   -2.643303   -0.515701
     34          6           0        6.324963   -1.061673    0.123272
     35          1           0        5.330341    0.796862    0.248582
     36          6           0        6.202153   -2.456064   -0.068483
     37          1           0        4.848112   -4.078902   -0.452677
     38          8           0        7.332900   -3.203542    0.002458
     39          1           0        7.117122   -4.136044   -0.139478
     40          8           0        7.535273   -0.489053    0.412317
     41          6           0        8.484971   -0.462874   -0.664542
     42          1           0        8.078633    0.079824   -1.524393
     43          1           0        9.357780    0.066918   -0.283886
     44          1           0        8.775369   -1.470507   -0.967492
     45          6           0        0.018587    1.406103   -0.372506
     46          1           0        0.130300    0.590509   -1.092464
     47          1           0       -0.640617    2.145105   -0.832419
     48          8           0       -1.356703    4.806173   -0.822513
     49          8           0       -0.285703    5.932410    0.728617
     50          7           0       -0.819257    4.988892    0.231428
 ---------------------------------------------------------------------
 Rotational constants (GHZ):           0.1839381           0.0485142           0.0403748
 Standard basis: 6-311G(d) (5D, 7F)
 There are   630 symmetry adapted cartesian basis functions of A   symmetry.
 There are   600 symmetry adapted basis functions of A   symmetry.
   600 basis functions,  1060 primitive gaussians,   630 cartesian basis functions
   109 alpha electrons      108 beta electrons
       nuclear repulsion energy      2550.8499212606 Hartrees.
 NAtoms=   50 NActive=   50 NUniq=   50 SFac= 1.00D+00 NAtFMM=   60 NAOKFM=F Big=F
 Integral buffers will be    131072 words long.
 Raffenetti 2 integral format.
 Two-electron integral symmetry is turned on.
 Force inversion solution in PCM.
 Using the following non-standard input for PCM:
 Eps=7
 EpsInf=1.85341
 HbondAcidity=0
 HbondBasicity=0.48
 SurfaceTensionAtInterface=60.62
 CarbonAromaticity=0
 ElectronegativeHalogenicity=0
 --- end of non-standard input.
 Force inversion solution in PCM.
 ------------------------------------------------------------------------------
 Polarizable Continuum Model (PCM)
 =================================
 Model                : PCM.
 Atomic radii         : SMD-Coulomb.
 Polarization charges : Total charges.
 Charge compensation  : None.
 Solution method      : Matrix inversion.
 Cavity type          : VdW (van der Waals Surface) (Alpha=1.000).
 Cavity algorithm     : GePol (No added spheres)
                        Default sphere list used, NSphG=   50.
                        Lebedev-Laikov grids with approx.  5.0 points / Ang**2.
                        Smoothing algorithm: York/Karplus (Gamma=1.0000).
                        Polarization charges: spherical gaussians, with
                                              point-specific exponents (IZeta= 3).
                        Self-potential: point-specific (ISelfS= 7).
                        Self-field    : sphere-specific E.n sum rule (ISelfD= 2).
 1st derivatives      : Analytical E(r).r(x)/FMM algorithm (CHGder, D1EAlg=3).
                        Cavity 1st derivative terms included.
 2nd derivatives      : Analytical E(r).r(xy)/FMM algorithm (CHGder, D2EAlg=3).
                        Cavity 2nd derivative terms included.
 Solvent              : Generic,
                        Eps                           =   7.000000
                        Eps(infinity)                 =   1.853410
                        RSolv                         =   0.000000 Ang.
                        Molar volume                  =   0.000000 cm**3/mol
                        Thermal expansion coefficient =   0.000000 K**-1
                        Absolute temperature          = 298.150000 K
                        Numeral density               =   0.000000 Ang**-3
                        Hydrogen bond acidity         =   0.000000
                        Hydrogen bond basicity        =   0.480000
                        Surface tension at interface  =  60.620000 (cal/mol)*Ang**-2
                        Carbon aromaticity            =   0.000000
                        Electronegative halogenicity  =   0.000000
 ------------------------------------------------------------------------------
 ------------------------------------------------------------------------------
 Atomic radii for non-electrostatic terms: SMD-CDS.
 ------------------------------------------------------------------------------
 Nuclear repulsion after PCM non-electrostatic terms =     2550.8469744720 Hartrees.
 One-electron integrals computed using PRISM.
 NBasis=   600 RedAO= T EigKep=  1.75D-04  NBF=   600
 NBsUse=   600 1.00D-06 EigRej= -1.00D+00 NBFU=   600
 ExpMin= 1.03D-01 ExpMax= 8.59D+03 ExpMxC= 1.30D+03 IAcc=3 IRadAn=         5 AccDes= 0.00D+00
 Harris functional with IExCor=  402 and IRadAn=       5 diagonalized for initial guess.
 HarFok:  IExCor=  402 AccDes= 0.00D+00 IRadAn=         5 IDoV= 1 UseB2=F ITyADJ=14
 ICtDFT=  3500011 ScaDFX=  1.000000  1.000000  1.000000  1.000000
 FoFCou: FMM=F IPFlag=           0 FMFlag=      100000 FMFlg1=           0
         NFxFlg=           0 DoJE=T BraDBF=F KetDBF=T FulRan=T
         wScrn=  0.000000 ICntrl=       500 IOpCl=  0 I1Cent=   200000004 NGrid=           0
         NMat0=    1 NMatS0=      1 NMatT0=    0 NMatD0=    1 NMtDS0=    0 NMtDT0=    0
 Petite list used in FoFCou.
 Initial guess <Sx>= 0.0000 <Sy>= 0.0000 <Sz>= 0.5000 <S**2>= 0.7500 S= 0.5000
 Requested convergence on RMS density matrix=1.00D-08 within 500 cycles.
 Requested convergence on MAX density matrix=1.00D-06.
 Requested convergence on             energy=1.00D-06.
 No special actions if energy rises.
 Inv3:  Mode=1 IEnd=    57605772.
 Iteration    1 A*A^-1 deviation from unit magnitude is 3.33D-15 for   3630.
 Iteration    1 A*A^-1 deviation from orthogonality  is 2.07D-15 for   1739     28.
 Iteration    1 A^-1*A deviation from unit magnitude is 3.33D-15 for   3630.
 Iteration    1 A^-1*A deviation from orthogonality  is 6.47D-15 for   1864   1803.
 Error on total polarization charges =  0.03509
 SCF Done:  E(UB3LYP) =  -1469.00757209     A.U. after   19 cycles
            NFock= 19  Conv=0.87D-08     -V/T= 2.0034
 <Sx>= 0.0000 <Sy>= 0.0000 <Sz>= 0.5000 <S**2>= 0.7533 S= 0.5017
 <L.S>=  0.00000000000    
 SMD-CDS (non-electrostatic) energy       (kcal/mol) =      -1.85
 (included in total energy above)
 Annihilation of the first spin contaminant:
 S**2 before annihilation     0.7533,   after     0.7500
 DoSCS=F DFT=T ScalE2(SS,OS)=  1.000000  1.000000
 Range of M.O.s used for correlation:     1   600
 NBasis=   600 NAE=   109 NBE=   108 NFC=     0 NFV=     0
 NROrb=    600 NOA=   109 NOB=   108 NVA=   491 NVB=   492

 **** Warning!!: The largest alpha MO coefficient is  0.16617296D+02


 **** Warning!!: The largest beta MO coefficient is  0.16877145D+02


 **** Warning!!: The smallest beta delta epsilon is  0.91963614D-01

 Symmetrizing basis deriv contribution to polar:
 IMax=3 JMax=2 DiffMx= 0.00D+00
 G2DrvN: will do    26 centers at a time, making    2 passes.
 Calling FoFCou, ICntrl=  3107 FMM=F I1Cent=   0 AccDes= 0.00D+00.
 Calling FoFCou, ICntrl=  3107 FMM=F I1Cent=   0 AccDes= 0.00D+00.
 NEqPCM:  Using equilibrium solvation (IEInf=0, Eps=   7.0000, EpsInf=   1.8534)
 G2PCM: DoFxE=T DoFxN=T DoGrad=T DoDP/DQ/DG/TGxP=FFFF NFrqRd=   0 IEInf=0 SqF1=F DoCFld=F IF1Alg=4.
 End of G2Drv F.D. properties file   721 does not exist.
 End of G2Drv F.D. properties file   722 does not exist.
 End of G2Drv F.D. properties file   788 does not exist.
          IDoAtm=11111111111111111111111111111111111111111111111111
 NEqPCM:  Using equilibrium solvation (IEInf=0, Eps=   7.0000, EpsInf=   1.8534)
          Differentiating once with respect to nuclear coordinates.
 CalDSu exits because no D1Ps are significant.
          There are   153 degrees of freedom in the 1st order CPHF.  IDoFFX=6 NUNeed=     0.
    150 vectors produced by pass  0 Test12= 1.07D-13 1.00D-09 XBig12= 3.28D-01 1.69D-01.
 AX will form    50 AO Fock derivatives at one time.
    150 vectors produced by pass  1 Test12= 1.07D-13 1.00D-09 XBig12= 2.67D-02 3.58D-02.
    149 vectors produced by pass  2 Test12= 1.07D-13 1.00D-09 XBig12= 3.15D-04 4.66D-03.
    147 vectors produced by pass  3 Test12= 1.07D-13 1.00D-09 XBig12= 3.64D-06 6.32D-04.
    147 vectors produced by pass  4 Test12= 1.07D-13 1.00D-09 XBig12= 2.73D-08 2.68D-05.
    138 vectors produced by pass  5 Test12= 1.07D-13 1.00D-09 XBig12= 1.54D-10 2.73D-06.
     77 vectors produced by pass  6 Test12= 1.07D-13 1.00D-09 XBig12= 6.51D-13 1.06D-07.
     13 vectors produced by pass  7 Test12= 1.07D-13 1.00D-09 XBig12= 4.83D-15 6.06D-09.
     12 vectors produced by pass  8 Test12= 1.07D-13 1.00D-09 XBig12= 6.78D-15 5.21D-09.
      4 vectors produced by pass  9 Test12= 1.07D-13 1.00D-09 XBig12= 1.72D-15 2.02D-09.
      1 vectors produced by pass 10 Test12= 1.07D-13 1.00D-09 XBig12= 8.09D-16 1.49D-09.
 InvSVY:  IOpt=1 It=  1 EMax= 1.22D-15
 Solved reduced A of dimension   988 with   153 vectors.
 End of Minotr F.D. properties file   721 does not exist.
 End of Minotr F.D. properties file   722 does not exist.
 End of Minotr F.D. properties file   788 does not exist.

 **********************************************************************

            Population analysis using the SCF density.

 **********************************************************************

 Orbital symmetries:
 Alpha Orbitals:
       Occupied  (A) (A) (A) (A) (A) (A) (A) (A) (A) (A) (A) (A)
                 (A) (A) (A) (A) (A) (A) (A) (A) (A) (A) (A) (A)
                 (A) (A) (A) (A) (A) (A) (A) (A) (A) (A) (A) (A)
                 (A) (A) (A) (A) (A) (A) (A) (A) (A) (A) (A) (A)
                 (A) (A) (A) (A) (A) (A) (A) (A) (A) (A) (A) (A)
                 (A) (A) (A) (A) (A) (A) (A) (A) (A) (A) (A) (A)
                 (A) (A) (A) (A) (A) (A) (A) (A) (A) (A) (A) (A)
                 (A) (A) (A) (A) (A) (A) (A) (A) (A) (A) (A) (A)
                 (A) (A) (A) (A) (A) (A) (A) (A) (A) (A) (A) (A)
                 (A)
       Virtual   (A) (A) (A) (A) (A) (A) (A) (A) (A) (A) (A) (A)
                 (A) (A) (A) (A) (A) (A) (A) (A) (A) (A) (A) (A)
                 (A) (A) (A) (A) (A) (A) (A) (A) (A) (A) (A) (A)
                 (A) (A) (A) (A) (A) (A) (A) (A) (A) (A) (A) (A)
                 (A) (A) (A) (A) (A) (A) (A) (A) (A) (A) (A) (A)
                 (A) (A) (A) (A) (A) (A) (A) (A) (A) (A) (A) (A)
                 (A) (A) (A) (A) (A) (A) (A) (A) (A) (A) (A) (A)
                 (A) (A) (A) (A) (A) (A) (A) (A) (A) (A) (A) (A)
                 (A) (A) (A) (A) (A) (A) (A) (A) (A) (A) (A) (A)
                 (A) (A) (A) (A) (A) (A) (A) (A) (A) (A) (A) (A)
                 (A) (A) (A) (A) (A) (A) (A) (A) (A) (A) (A) (A)
                 (A) (A) (A) (A) (A) (A) (A) (A) (A) (A) (A) (A)
                 (A) (A) (A) (A) (A) (A) (A) (A) (A) (A) (A) (A)
                 (A) (A) (A) (A) (A) (A) (A) (A) (A) (A) (A) (A)
                 (A) (A) (A) (A) (A) (A) (A) (A) (A) (A) (A) (A)
                 (A) (A) (A) (A) (A) (A) (A) (A) (A) (A) (A) (A)
                 (A) (A) (A) (A) (A) (A) (A) (A) (A) (A) (A) (A)
                 (A) (A) (A) (A) (A) (A) (A) (A) (A) (A) (A) (A)
                 (A) (A) (A) (A) (A) (A) (A) (A) (A) (A) (A) (A)
                 (A) (A) (A) (A) (A) (A) (A) (A) (A) (A) (A) (A)
                 (A) (A) (A) (A) (A) (A) (A) (A) (A) (A) (A) (A)
                 (A) (A) (A) (A) (A) (A) (A) (A) (A) (A) (A) (A)
                 (A) (A) (A) (A) (A) (A) (A) (A) (A) (A) (A) (A)
                 (A) (A) (A) (A) (A) (A) (A) (A) (A) (A) (A) (A)
                 (A) (A) (A) (A) (A) (A) (A) (A) (A) (A) (A) (A)
                 (A) (A) (A) (A) (A) (A) (A) (A) (A) (A) (A) (A)
                 (A) (A) (A) (A) (A) (A) (A) (A) (A) (A) (A) (A)
                 (A) (A) (A) (A) (A) (A) (A) (A) (A) (A) (A) (A)
                 (A) (A) (A) (A) (A) (A) (A) (A) (A) (A) (A) (A)
                 (A) (A) (A) (A) (A) (A) (A) (A) (A) (A) (A) (A)
                 (A) (A) (A) (A) (A) (A) (A) (A) (A) (A) (A) (A)
                 (A) (A) (A) (A) (A) (A) (A) (A) (A) (A) (A) (A)
                 (A) (A) (A) (A) (A) (A) (A) (A) (A) (A) (A) (A)
                 (A) (A) (A) (A) (A) (A) (A) (A) (A) (A) (A) (A)
                 (A) (A) (A) (A) (A) (A) (A) (A) (A) (A) (A) (A)
                 (A) (A) (A) (A) (A) (A) (A) (A) (A) (A) (A) (A)
                 (A) (A) (A) (A) (A) (A) (A) (A) (A) (A) (A) (A)
                 (A) (A) (A) (A) (A) (A) (A) (A) (A) (A) (A) (A)
                 (A) (A) (A) (A) (A) (A) (A) (A) (A) (A) (A) (A)
                 (A) (A) (A) (A) (A) (A) (A) (A) (A) (A) (A) (A)
                 (A) (A) (A) (A) (A) (A) (A) (A) (A) (A) (A)
 Beta  Orbitals:
       Occupied  (A) (A) (A) (A) (A) (A) (A) (A) (A) (A) (A) (A)
                 (A) (A) (A) (A) (A) (A) (A) (A) (A) (A) (A) (A)
                 (A) (A) (A) (A) (A) (A) (A) (A) (A) (A) (A) (A)
                 (A) (A) (A) (A) (A) (A) (A) (A) (A) (A) (A) (A)
                 (A) (A) (A) (A) (A) (A) (A) (A) (A) (A) (A) (A)
                 (A) (A) (A) (A) (A) (A) (A) (A) (A) (A) (A) (A)
                 (A) (A) (A) (A) (A) (A) (A) (A) (A) (A) (A) (A)
                 (A) (A) (A) (A) (A) (A) (A) (A) (A) (A) (A) (A)
                 (A) (A) (A) (A) (A) (A) (A) (A) (A) (A) (A) (A)
       Virtual   (A) (A) (A) (A) (A) (A) (A) (A) (A) (A) (A) (A)
                 (A) (A) (A) (A) (A) (A) (A) (A) (A) (A) (A) (A)
                 (A) (A) (A) (A) (A) (A) (A) (A) (A) (A) (A) (A)
                 (A) (A) (A) (A) (A) (A) (A) (A) (A) (A) (A) (A)
                 (A) (A) (A) (A) (A) (A) (A) (A) (A) (A) (A) (A)
                 (A) (A) (A) (A) (A) (A) (A) (A) (A) (A) (A) (A)
                 (A) (A) (A) (A) (A) (A) (A) (A) (A) (A) (A) (A)
                 (A) (A) (A) (A) (A) (A) (A) (A) (A) (A) (A) (A)
                 (A) (A) (A) (A) (A) (A) (A) (A) (A) (A) (A) (A)
                 (A) (A) (A) (A) (A) (A) (A) (A) (A) (A) (A) (A)
                 (A) (A) (A) (A) (A) (A) (A) (A) (A) (A) (A) (A)
                 (A) (A) (A) (A) (A) (A) (A) (A) (A) (A) (A) (A)
                 (A) (A) (A) (A) (A) (A) (A) (A) (A) (A) (A) (A)
                 (A) (A) (A) (A) (A) (A) (A) (A) (A) (A) (A) (A)
                 (A) (A) (A) (A) (A) (A) (A) (A) (A) (A) (A) (A)
                 (A) (A) (A) (A) (A) (A) (A) (A) (A) (A) (A) (A)
                 (A) (A) (A) (A) (A) (A) (A) (A) (A) (A) (A) (A)
                 (A) (A) (A) (A) (A) (A) (A) (A) (A) (A) (A) (A)
                 (A) (A) (A) (A) (A) (A) (A) (A) (A) (A) (A) (A)
                 (A) (A) (A) (A) (A) (A) (A) (A) (A) (A) (A) (A)
                 (A) (A) (A) (A) (A) (A) (A) (A) (A) (A) (A) (A)
                 (A) (A) (A) (A) (A) (A) (A) (A) (A) (A) (A) (A)
                 (A) (A) (A) (A) (A) (A) (A) (A) (A) (A) (A) (A)
                 (A) (A) (A) (A) (A) (A) (A) (A) (A) (A) (A) (A)
                 (A) (A) (A) (A) (A) (A) (A) (A) (A) (A) (A) (A)
                 (A) (A) (A) (A) (A) (A) (A) (A) (A) (A) (A) (A)
                 (A) (A) (A) (A) (A) (A) (A) (A) (A) (A) (A) (A)
                 (A) (A) (A) (A) (A) (A) (A) (A) (A) (A) (A) (A)
                 (A) (A) (A) (A) (A) (A) (A) (A) (A) (A) (A) (A)
                 (A) (A) (A) (A) (A) (A) (A) (A) (A) (A) (A) (A)
                 (A) (A) (A) (A) (A) (A) (A) (A) (A) (A) (A) (A)
                 (A) (A) (A) (A) (A) (A) (A) (A) (A) (A) (A) (A)
                 (A) (A) (A) (A) (A) (A) (A) (A) (A) (A) (A) (A)
                 (A) (A) (A) (A) (A) (A) (A) (A) (A) (A) (A) (A)
                 (A) (A) (A) (A) (A) (A) (A) (A) (A) (A) (A) (A)
                 (A) (A) (A) (A) (A) (A) (A) (A) (A) (A) (A) (A)
                 (A) (A) (A) (A) (A) (A) (A) (A) (A) (A) (A) (A)
                 (A) (A) (A) (A) (A) (A) (A) (A) (A) (A) (A) (A)
                 (A) (A) (A) (A) (A) (A) (A) (A) (A) (A) (A) (A)
                 (A) (A) (A) (A) (A) (A) (A) (A) (A) (A) (A) (A)
                 (A) (A) (A) (A) (A) (A) (A) (A) (A) (A) (A) (A)
 The electronic state is 2-A.
 Alpha  occ. eigenvalues --  -19.21560 -19.21454 -19.16235 -19.16144 -19.13559
 Alpha  occ. eigenvalues --  -19.13457 -19.10063 -19.10021 -14.54228 -10.25879
 Alpha  occ. eigenvalues --  -10.25481 -10.24848 -10.24742 -10.23323 -10.23205
 Alpha  occ. eigenvalues --  -10.20746 -10.20661 -10.19579 -10.19429 -10.18933
 Alpha  occ. eigenvalues --  -10.18804 -10.18381 -10.18275 -10.18146 -10.18048
 Alpha  occ. eigenvalues --  -10.18045 -10.17918 -10.17468 -10.17308 -10.17074
 Alpha  occ. eigenvalues --   -1.27531  -1.12690  -1.08319  -1.08222  -1.05060
 Alpha  occ. eigenvalues --   -1.04960  -1.04064  -1.03201  -0.86944  -0.86822
 Alpha  occ. eigenvalues --   -0.81201  -0.80645  -0.76762  -0.76298  -0.76192
 Alpha  occ. eigenvalues --   -0.74603  -0.72553  -0.69035  -0.68938  -0.66561
 Alpha  occ. eigenvalues --   -0.66389  -0.65914  -0.62756  -0.61935  -0.58796
 Alpha  occ. eigenvalues --   -0.58653  -0.56716  -0.56338  -0.56152  -0.55920
 Alpha  occ. eigenvalues --   -0.55589  -0.55075  -0.52326  -0.51401  -0.51203
 Alpha  occ. eigenvalues --   -0.50440  -0.49415  -0.47820  -0.47479  -0.47340
 Alpha  occ. eigenvalues --   -0.46697  -0.46334  -0.46236  -0.44377  -0.44160
 Alpha  occ. eigenvalues --   -0.43973  -0.43654  -0.43416  -0.42658  -0.41902
 Alpha  occ. eigenvalues --   -0.41646  -0.41383  -0.41126  -0.40628  -0.38806
 Alpha  occ. eigenvalues --   -0.37913  -0.37824  -0.37721  -0.37493  -0.37173
 Alpha  occ. eigenvalues --   -0.37010  -0.36659  -0.36620  -0.36462  -0.36011
 Alpha  occ. eigenvalues --   -0.35609  -0.34292  -0.34188  -0.29382  -0.29082
 Alpha  occ. eigenvalues --   -0.28490  -0.28375  -0.27557  -0.25726  -0.25366
 Alpha  occ. eigenvalues --   -0.25256  -0.24723  -0.22148  -0.21985
 Alpha virt. eigenvalues --   -0.07350  -0.07222  -0.07140  -0.01437  -0.01333
 Alpha virt. eigenvalues --    0.01019   0.01197   0.03727   0.03795   0.05452
 Alpha virt. eigenvalues --    0.06317   0.06738   0.06920   0.07248   0.07470
 Alpha virt. eigenvalues --    0.07895   0.08270   0.08915   0.10147   0.11055
 Alpha virt. eigenvalues --    0.11747   0.12196   0.12346   0.12854   0.13478
 Alpha virt. eigenvalues --    0.14294   0.14574   0.15356   0.16129   0.16253
 Alpha virt. eigenvalues --    0.16659   0.16872   0.17523   0.19752   0.20482
 Alpha virt. eigenvalues --    0.21781   0.21991   0.23254   0.24449   0.25186
 Alpha virt. eigenvalues --    0.25504   0.25732   0.26520   0.27102   0.27655
 Alpha virt. eigenvalues --    0.28490   0.29783   0.30198   0.30747   0.30891
 Alpha virt. eigenvalues --    0.31215   0.32209   0.32413   0.33008   0.34755
 Alpha virt. eigenvalues --    0.35456   0.35683   0.35796   0.36173   0.36495
 Alpha virt. eigenvalues --    0.37170   0.37365   0.37559   0.38064   0.38482
 Alpha virt. eigenvalues --    0.39133   0.39407   0.40036   0.40380   0.40478
 Alpha virt. eigenvalues --    0.41017   0.41503   0.42446   0.42702   0.43021
 Alpha virt. eigenvalues --    0.43173   0.43447   0.43819   0.44338   0.44776
 Alpha virt. eigenvalues --    0.45264   0.45627   0.46052   0.46608   0.46719
 Alpha virt. eigenvalues --    0.47680   0.48211   0.49039   0.49220   0.49564
 Alpha virt. eigenvalues --    0.50169   0.50948   0.51552   0.52047   0.52151
 Alpha virt. eigenvalues --    0.52593   0.53038   0.53777   0.54567   0.54844
 Alpha virt. eigenvalues --    0.55592   0.56230   0.56511   0.57004   0.57157
 Alpha virt. eigenvalues --    0.57746   0.57973   0.58282   0.58571   0.58694
 Alpha virt. eigenvalues --    0.59285   0.59673   0.60133   0.60580   0.61202
 Alpha virt. eigenvalues --    0.61817   0.62144   0.62866   0.63172   0.63326
 Alpha virt. eigenvalues --    0.63465   0.64323   0.64631   0.64859   0.65147
 Alpha virt. eigenvalues --    0.66062   0.66494   0.67342   0.67987   0.69093
 Alpha virt. eigenvalues --    0.69204   0.70501   0.70692   0.71577   0.72515
 Alpha virt. eigenvalues --    0.73420   0.74930   0.75023   0.75494   0.75838
 Alpha virt. eigenvalues --    0.76844   0.77892   0.78289   0.78959   0.79102
 Alpha virt. eigenvalues --    0.79660   0.79914   0.80036   0.80473   0.80660
 Alpha virt. eigenvalues --    0.80918   0.81632   0.82547   0.83073   0.83814
 Alpha virt. eigenvalues --    0.84173   0.85013   0.85063   0.86082   0.87371
 Alpha virt. eigenvalues --    0.88646   0.88733   0.89429   0.90113   0.90755
 Alpha virt. eigenvalues --    0.91471   0.92627   0.93889   0.94231   0.94533
 Alpha virt. eigenvalues --    0.95586   0.95668   0.96857   0.97388   0.98112
 Alpha virt. eigenvalues --    0.98659   0.99541   1.00503   1.01153   1.02842
 Alpha virt. eigenvalues --    1.04127   1.04637   1.05537   1.05874   1.07443
 Alpha virt. eigenvalues --    1.09168   1.09721   1.11122   1.11580   1.13337
 Alpha virt. eigenvalues --    1.14027   1.14433   1.14954   1.15112   1.15306
 Alpha virt. eigenvalues --    1.16255   1.17645   1.19484   1.19947   1.20176
 Alpha virt. eigenvalues --    1.21995   1.23150   1.23267   1.23854   1.23892
 Alpha virt. eigenvalues --    1.26473   1.27015   1.28569   1.28841   1.32215
 Alpha virt. eigenvalues --    1.33823   1.36088   1.37444   1.37810   1.38214
 Alpha virt. eigenvalues --    1.39434   1.42097   1.44195   1.44615   1.46099
 Alpha virt. eigenvalues --    1.46606   1.46950   1.47328   1.49874   1.49956
 Alpha virt. eigenvalues --    1.50683   1.51117   1.52236   1.52414   1.52826
 Alpha virt. eigenvalues --    1.53165   1.53921   1.54674   1.55382   1.55717
 Alpha virt. eigenvalues --    1.56061   1.57314   1.58531   1.58760   1.60583
 Alpha virt. eigenvalues --    1.62343   1.62730   1.63219   1.64204   1.66512
 Alpha virt. eigenvalues --    1.67840   1.68116   1.68619   1.69063   1.69246
 Alpha virt. eigenvalues --    1.69776   1.70464   1.71118   1.72615   1.73237
 Alpha virt. eigenvalues --    1.74690   1.75513   1.76119   1.76671   1.77223
 Alpha virt. eigenvalues --    1.77582   1.78651   1.78944   1.79861   1.80020
 Alpha virt. eigenvalues --    1.82077   1.82765   1.83606   1.83945   1.84417
 Alpha virt. eigenvalues --    1.86469   1.87322   1.88519   1.90713   1.90839
 Alpha virt. eigenvalues --    1.92198   1.95209   1.95941   1.96389   1.97501
 Alpha virt. eigenvalues --    2.00309   2.02188   2.02578   2.02666   2.04760
 Alpha virt. eigenvalues --    2.08857   2.09665   2.10165   2.12222   2.12688
 Alpha virt. eigenvalues --    2.14168   2.15422   2.16583   2.16911   2.17241
 Alpha virt. eigenvalues --    2.22909   2.24214   2.25029   2.27671   2.28388
 Alpha virt. eigenvalues --    2.29016   2.30483   2.31051   2.31171   2.31517
 Alpha virt. eigenvalues --    2.31657   2.32286   2.33606   2.34145   2.36648
 Alpha virt. eigenvalues --    2.37795   2.38886   2.38981   2.40434   2.40896
 Alpha virt. eigenvalues --    2.44458   2.45381   2.48966   2.50867   2.50991
 Alpha virt. eigenvalues --    2.51362   2.52820   2.53305   2.56672   2.58424
 Alpha virt. eigenvalues --    2.63448   2.63534   2.64085   2.65116   2.65808
 Alpha virt. eigenvalues --    2.65997   2.69007   2.69657   2.72682   2.73413
 Alpha virt. eigenvalues --    2.73537   2.74046   2.74665   2.75788   2.76003
 Alpha virt. eigenvalues --    2.76473   2.77691   2.81109   2.81303   2.81683
 Alpha virt. eigenvalues --    2.82783   2.84291   2.86194   2.86976   2.89801
 Alpha virt. eigenvalues --    2.90932   2.91343   2.92723   2.93754   2.94560
 Alpha virt. eigenvalues --    2.94767   2.95281   2.96067   2.96571   2.98572
 Alpha virt. eigenvalues --    2.98942   2.99728   3.01013   3.01496   3.03378
 Alpha virt. eigenvalues --    3.03527   3.04570   3.08555   3.08653   3.10340
 Alpha virt. eigenvalues --    3.12641   3.13817   3.14539   3.14557   3.14686
 Alpha virt. eigenvalues --    3.15040   3.16225   3.16607   3.17615   3.18670
 Alpha virt. eigenvalues --    3.18882   3.19546   3.20190   3.22854   3.25326
 Alpha virt. eigenvalues --    3.25364   3.26429   3.29422   3.29737   3.29809
 Alpha virt. eigenvalues --    3.29974   3.31347   3.31543   3.32552   3.33279
 Alpha virt. eigenvalues --    3.33411   3.34903   3.35107   3.36367   3.38712
 Alpha virt. eigenvalues --    3.40124   3.42934   3.44583   3.45640   3.46242
 Alpha virt. eigenvalues --    3.47459   3.47872   3.48302   3.50067   3.52155
 Alpha virt. eigenvalues --    3.54919   3.58335   3.61441   3.64744   3.65441
 Alpha virt. eigenvalues --    3.69934   3.70529   3.71440   3.71608   3.87110
 Alpha virt. eigenvalues --    3.87230   3.88111   3.89740   3.90037   3.91290
 Alpha virt. eigenvalues --    3.94389   3.94744   4.00886   4.06702   4.07343
 Alpha virt. eigenvalues --    4.07459   4.14836   4.34590   4.44974   4.53749
 Alpha virt. eigenvalues --    4.77570   4.78304   4.78795   4.78893   4.80094
 Alpha virt. eigenvalues --    4.81029   4.81095   4.84976   4.91061   4.92590
 Alpha virt. eigenvalues --    4.96665   4.96727   5.06640   5.09705   5.10984
 Alpha virt. eigenvalues --    5.11061   5.16310   5.16408   5.37919   5.50062
 Alpha virt. eigenvalues --    5.50219   5.59905   5.62586   5.68137   5.68235
 Alpha virt. eigenvalues --    5.94420  23.22546  23.24496  23.42210  23.42303
 Alpha virt. eigenvalues --   23.53868  23.56431  23.71685  23.78711  23.78833
 Alpha virt. eigenvalues --   23.81496  23.85326  23.86168  23.86994  23.98928
 Alpha virt. eigenvalues --   23.99042  24.05242  24.05365  24.11830  24.11946
 Alpha virt. eigenvalues --   24.15673  24.15794  35.27510  49.73699  49.84589
 Alpha virt. eigenvalues --   49.86477  49.86540  49.92865  49.92958  49.97031
 Alpha virt. eigenvalues --   49.98969
  Beta  occ. eigenvalues --  -19.20659 -19.20569 -19.16235 -19.16144 -19.13559
  Beta  occ. eigenvalues --  -19.13457 -19.10063 -19.09978 -14.53085 -10.25879
  Beta  occ. eigenvalues --  -10.25483 -10.24848 -10.24742 -10.23323 -10.23205
  Beta  occ. eigenvalues --  -10.20746 -10.20661 -10.19579 -10.19430 -10.18933
  Beta  occ. eigenvalues --  -10.18804 -10.18381 -10.18275 -10.18146 -10.18048
  Beta  occ. eigenvalues --  -10.18045 -10.17918 -10.17467 -10.17308 -10.17071
  Beta  occ. eigenvalues --   -1.25695  -1.10629  -1.08319  -1.08222  -1.05060
  Beta  occ. eigenvalues --   -1.04960  -1.04042  -1.03151  -0.86944  -0.86822
  Beta  occ. eigenvalues --   -0.81199  -0.80643  -0.76759  -0.76297  -0.76192
  Beta  occ. eigenvalues --   -0.74600  -0.72551  -0.69035  -0.68938  -0.66539
  Beta  occ. eigenvalues --   -0.65916  -0.63148  -0.62750  -0.61930  -0.58795
  Beta  occ. eigenvalues --   -0.58644  -0.56339  -0.55907  -0.55099  -0.54509
  Beta  occ. eigenvalues --   -0.53903  -0.52520  -0.51904  -0.51381  -0.51201
  Beta  occ. eigenvalues --   -0.50437  -0.49403  -0.47813  -0.47472  -0.47328
  Beta  occ. eigenvalues --   -0.46690  -0.46334  -0.46235  -0.44371  -0.44160
  Beta  occ. eigenvalues --   -0.43967  -0.43639  -0.43413  -0.42658  -0.41898
  Beta  occ. eigenvalues --   -0.41628  -0.41378  -0.41116  -0.40601  -0.38798
  Beta  occ. eigenvalues --   -0.37911  -0.37812  -0.37709  -0.37486  -0.37086
[...]
 0002342,-0.00000642,0.00000140,-0.00000242,-0.00000170,0.00001025,0.00
 000277,0.00000654,0.00002108,-0.00000161,0.00000955,0.00000845,0.00001
 234,-0.00000419,0.00000866,-0.00000259,0.00000053,-0.00000205,0.000001
 52,0.00000463,-0.00000173,0.00000082,-0.00000237,0.00000095,0.00000203
 ,0.00002558,0.00000185,0.00000009,-0.00000593,-0.00000120,0.00000993,-
 0.00000034,0.00000071,-0.00000229,0.00000116,0.00000037,-0.00000076,0.
 00000066,-0.00000060,-0.00000097,0.11064733,-0.17092923,0.07781003,0.0
 1330123,-0.01564191,0.01019938,-0.11573681,0.18467760,-0.00004458,-0.0
 0030299,0.00042992,-0.00004786,-0.00025124,0.00023941,0.00087949,-0.00
 176981,0.00029633,-0.00013206,-0.00031300,-0.00009618,-0.01986008,0.01
 921145,-0.01300791,0.00452362,-0.00051535,-0.00492302,0.00018562,0.000
 15725,0.00012809,-0.00005253,-0.00000529,-0.00001544,-0.00008456,-0.00
 007073,0.00001689,0.00002226,0.00000073,-0.00002727,-0.00001005,0.0000
 0333,-0.00000111,0.00002355,0.00002572,0.00002440,0.00000263,0.0000000
 3,-0.00001808,-0.00001654,0.00000460,0.00000449,-0.00000441,-0.0000043
 1,-0.00000059,0.00000493,-0.00000418,-0.00000575,-0.00000134,0.0000008
 5,0.00000085,-0.00000671,-0.00001012,-0.00000362,0.00000116,0.00000987
 ,0.00000115,0.00000085,-0.00000094,0.00000042,0.00000016,-0.00000063,-
 0.00000008,-0.00000135,-0.00000137,-0.00000083,0.00034494,-0.00075474,
 -0.00013258,0.00014470,0.00027509,-0.00004051,-0.00056903,-0.00039868,
 0.00035344,-0.00015081,0.00010798,0.00018923,-0.00262411,0.00571624,-0
 .00226050,0.00115581,-0.00067531,0.00027062,-0.00000079,0.00024641,0.0
 0003424,0.00000019,-0.00004621,-0.00000980,0.00008725,-0.00004651,-0.0
 0000180,-0.00004317,-0.00000457,-0.00000496,0.00000161,0.00000523,0.00
 000140,0.00002037,0.00005291,-0.00000131,0.00000280,-0.00000455,0.0000
 1027,0.00003883,-0.00001860,0.00000040,-0.00000071,0.00000117,0.000001
 99,-0.00004193,0.00003252,-0.00000192,0.00000021,-0.00000736,0.0000018
 7,-0.00000203,-0.00000707,-0.00000037,0.00000395,-0.00000099,0.0000006
 7,-0.00000036,0.00000062,-0.00000042,-0.00000096,-0.00000093,-0.000000
 41,0.00000104,0.00000102,-0.00000015,-0.07092532,0.07831900,-0.0900234
 1,0.01327568,-0.01496357,0.01076155,0.07389858,-0.08393433,0.09802246,
 0.00007034,-0.00000985,-0.00000558,-0.00002934,0.00006080,0.00005317,0
 .00004639,-0.00003950,-0.00010172,0.00000571,0.00001907,0.00001340,-0.
 00003401,0.00012000,-0.00010986,0.00008565,0.00001231,0.00013560,-0.00
 000224,-0.00001076,0.00001030,0.00002425,-0.00001196,-0.00000358,0.000
 00556,-0.00000382,-0.00002513,-0.00000091,-0.00002607,0.00002434,-0.00
 000722,0.00001846,0.00002196,0.00001696,0.00002760,-0.00007369,0.00000
 029,0.00001194,0.00000251,0.00006625,0.00003347,0.00002064,-0.00000336
 ,0.00000730,-0.00000085,-0.00007340,-0.00003922,-0.00001236,0.00001006
 ,0.00001263,0.00000805,-0.00004130,-0.00006165,0.00005280,0.00000862,0
 .00005152,-0.00000074,0.00000449,-0.00000722,-0.00000249,-0.00000319,-
 0.00000556,0.00000480,-0.00000085,-0.00000231,-0.00000390,-0.00008031,
 -0.00017693,-0.00001868,0.00001573,0.00002349,-0.00000109,0.00017202,0
 .00053696,0.00017749,0.00003712,-0.00004379,-0.00001169,-0.00102125,-0
 .00077721,-0.00027649,0.00006938,0.00112168,-0.00029084,-0.00003940,0.
 00010127,0.00000217,-0.00002322,-0.00005308,-0.00000757,0.00003988,0.0
 0000640,0.00000809,-0.00004685,0.00000462,-0.00000258,0.00000661,0.000
 00285,-0.00000089,0.00001361,0.00005864,0.00001037,0.00000949,-0.00000
 455,-0.00000271,0.00005760,-0.00004637,0.00000158,-0.00000560,0.000008
 42,-0.00000110,-0.00007425,0.00006380,-0.00000084,0.00000101,-0.000014
 28,-0.00000239,-0.00003344,-0.00000371,0.00000802,0.00001669,-0.000001
 31,-0.00001872,-0.00000051,-0.00000263,0.00000177,-0.00000057,-0.00000
 234,0.00000181,-0.00000026,0.00000493,0.00000109,-0.00014385,0.0002013
 0,-0.00033701,0.00014314,-0.00002538,0.00005086,0.00035714,0.00029190,
 0.00034082,0.15347981,0.00018004,0.00001314,0.00013222,0.00001407,0.00
 003036,0.00006353,-0.00022188,-0.00012789,-0.00003660,-0.00005933,-0.0
 0002068,0.00001567,0.00050161,0.00032199,-0.00077258,-0.00011876,-0.00
 009550,0.00036959,-0.00008458,-0.00003731,-0.00000198,0.00003322,-0.00
 000685,0.00005642,0.00001407,0.00001334,-0.00004777,-0.00004509,-0.000
 03093,0.00003469,0.00000645,0.00000442,0.00000475,-0.00000994,0.000023
 26,-0.00009626,0.00001049,0.00001039,-0.00000268,0.00010692,0.00003845
 ,0.00002290,-0.00000951,-0.00000296,-0.00000685,-0.00013431,-0.0000473
 5,-0.00002662,0.00001534,0.00000024,0.00001544,-0.00004332,-0.00005198
 ,0.00004736,0.00001232,0.00004136,-0.00000011,0.00000147,-0.00000488,-
 0.00000137,-0.00000161,-0.00000499,0.00000476,-0.00000121,-0.00000128,
 -0.00000524,-0.00001396,0.00041871,0.00004530,-0.00002095,0.00004450,0
 .00000074,0.00022115,-0.00084391,-0.00016723,0.00005510,0.00003573,0.0
 0000384,-0.00019845,0.00142295,0.00018293,0.00165451,-0.00116825,0.000
 46966,0.00015418,-0.00017716,0.00000008,0.00002341,0.00012334,0.000020
 03,-0.00008890,-0.00005701,-0.00001882,0.00012470,0.00000467,0.0000157
 0,-0.00000944,0.00000568,-0.00000163,-0.00005938,-0.00016059,-0.000030
 25,-0.00001920,0.00001128,-0.00000224,-0.00014898,0.00010797,-0.000009
 04,0.00000896,-0.00001611,0.00000003,0.00018742,-0.00014624,0.00000770
 ,-0.00000552,0.00003134,0.00000157,0.00011682,0.00004137,-0.00000367,-
 0.00004208,-0.00000315,0.00004178,0.00000005,0.00000046,-0.00000911,0.
 00000987,0.00000421,-0.00000172,-0.00000164,-0.00000520,-0.00000335,-0
 .00040548,-0.00018419,-0.00015195,0.00011294,-0.00023937,0.00009826,0.
 00006985,-0.00019190,0.00064505,0.07564248,0.09273117,0.00011421,0.000
 00836,-0.00007164,-0.00003418,0.00009150,0.00008459,0.00001878,-0.0000
 4515,-0.00009579,0.00000272,0.00000546,0.00002974,0.00020175,0.0001283
 4,-0.00059643,0.00010393,0.00009579,0.00052444,-0.00000937,-0.00002525
 ,0.00003638,0.00004062,-0.00000043,-0.00002225,-0.00000086,-0.00000265
 ,-0.00003728,-0.00000769,-0.00003501,0.00004120,-0.00000639,0.00002169
 ,0.00003500,0.00002364,0.00003848,-0.00010701,0.00000469,0.00000991,0.
 00000498,0.00009538,0.00004564,0.00002539,-0.00000104,0.00000829,-0.00
 000325,-0.00011046,-0.00005262,-0.00001319,0.00001752,0.00001454,0.000
 00841,-0.00006399,-0.00008613,0.00008641,0.00001157,0.00006781,-0.0000
 0246,0.00000598,-0.00000950,-0.00000483,-0.00000520,-0.00000823,0.0000
 0732,0.00000019,-0.00000313,-0.00000474,-0.00013627,-0.00033038,-0.000
 06906,0.00002692,0.00005782,-0.00003249,0.00030080,0.00111698,-0.00019
 719,0.00008124,-0.00006889,-0.00001932,-0.00158560,-0.00180061,-0.0005
 7081,0.00009174,0.00230082,0.00281819,-0.00009856,0.00019066,0.0000752
 3,-0.00003806,-0.00010730,0.00000223,0.00007872,0.00000925,0.00001933,
 -0.00008864,0.00000850,-0.00001058,0.00001223,0.00000685,-0.00000312,0
 .00002087,0.00010772,0.00001406,0.00001438,-0.00000838,-0.00001214,0.0
 0010128,-0.00007705,0.00000237,-0.00000939,0.00001517,-0.00000600,-0.0
 0012982,0.00010925,0.00000550,0.00000070,-0.00002392,-0.00000922,-0.00
 005797,-0.00000873,0.00002242,0.00003033,0.00000186,-0.00004146,-0.000
 00086,-0.00000587,0.00000602,-0.00000101,-0.00000343,0.00000348,-0.000
 00050,0.00000743,0.00000172,-0.00076456,0.00038125,-0.00019298,0.00031
 780,-0.00008774,0.00015423,0.00034123,0.00087460,0.00046333,0.27973451
 ,0.10228126,0.55271048,0.00007912,0.00001011,-0.00002082,-0.00000653,0
 .00003364,0.00004557,-0.00007626,-0.00003088,0.00000907,-0.00002380,-0
 .00001688,0.00002301,0.00024255,0.00013543,-0.00065521,0.00000711,0.00
 002869,0.00041833,-0.00002839,-0.00002319,0.00001971,0.00002494,0.0000
 0261,-0.00000544,-0.00000115,0.00000558,-0.00002777,-0.00001181,-0.000
 02163,0.00003003,-0.00000131,0.00001039,0.00001898,0.00000474,0.000020
 69,-0.00006737,0.00000588,0.00000041,0.00000270,0.00006200,0.00002576,
 0.00001358,-0.00000064,0.00000340,-0.00000221,-0.00007217,-0.00003090,
 -0.00000922,0.00001059,0.00000595,0.00000591,-0.00003646,-0.00004548,0
 .00004961,0.00000732,0.00003424,-0.00000115,0.00000246,-0.00000481,-0.
 00000286,-0.00000358,-0.00000480,0.00000487,0.00000049,-0.00000081,-0.
 00000272,-0.00002288,0.00002814,0.00000800,0.00000240,0.00003840,-0.00
 001070,0.00011863,0.00001855,-0.00007947,0.00004541,-0.00000174,-0.000
 00917,-0.00104026,0.00035379,-0.00013384,0.00175764,0.00112784,0.00108
 610,0.00002081,-0.00000800,0.00001312,0.00000051,0.00001142,0.00000811
 ,-0.00000674,-0.00002646,0.00000025,0.00001853,0.00000509,0.00000554,0
 .00000059,0.00000573,-0.00000348,-0.00001721,-0.00002630,-0.00000451,-
 0.00000229,0.00000178,-0.00000686,-0.00002210,0.00001263,-0.00000481,0
 .00000052,-0.00000085,-0.00000279,0.00002732,-0.00001672,0.00000456,-0
 .00000156,0.00000338,-0.00000243,0.00002423,0.00001659,0.00000741,-0.0
 0000379,-0.00000137,-0.00000103,0.00000009,-0.00000336,-0.00000123,0.0
 0000467,-0.00000005,0.00000121,-0.00000141,0.00000246,-0.00000032,-0.0
 0037714,0.00003617,-0.00005274,0.00009365,-0.00013482,0.00007352,0.000
 11324,0.00065152,0.00021481,-0.03628784,-0.03500395,-0.05587656,0.1616
 8815,0.00022771,0.00001439,0.00003886,-0.00001346,0.00007811,0.0001004
 9,-0.00021764,-0.00011657,0.00000334,-0.00006960,-0.00002693,0.0000390
 1,0.00038111,0.00031613,-0.00112719,-0.00005438,-0.00003488,0.00060898
 ,-0.00008563,-0.00004895,0.00002572,0.00005821,-0.00000125,0.00002130,
 0.00000729,0.00001676,-0.00006745,-0.00004410,-0.00005082,0.00006354,0
 .00000126,0.00001888,0.00003310,0.00000560,0.00004407,-0.00015666,0.00
 001498,0.00000883,0.00000247,0.00015677,0.00006313,0.00003399,-0.00000
 627,0.00000368,-0.00000748,-0.00019002,-0.00007429,-0.00003067,0.00002
 666,0.00000922,0.00001867,-0.00008221,-0.00010089,0.00010352,0.0000190
 9,0.00007801,-0.00000206,0.00000486,-0.00001043,-0.00000510,-0.0000058
 4,-0.00001021,0.00001001,-0.00000021,-0.00000247,-0.00000756,0.0000454
 1,0.00050653,0.00013244,-0.00001752,0.00005940,0.00000085,0.00004004,-
 0.00122303,-0.00010054,0.00007162,0.00005564,-0.00001869,0.00003078,0.
 00191261,-0.00001004,0.00097523,-0.00203954,-0.00028425,0.00019158,-0.
 00023530,-0.00003439,0.00003740,0.00016354,0.00002316,-0.00012093,-0.0
 0008818,-0.00001864,0.00016587,0.00000715,0.00003160,-0.00001073,0.000
 01116,-0.00000935,-0.00008628,-0.00021943,-0.00004035,-0.00002441,0.00
 001591,-0.00001168,-0.00020199,0.00014481,-0.00001718,0.00001174,-0.00
 002034,-0.00000217,0.00025200,-0.00019294,0.00001594,-0.00000859,0.000
 04140,-0.00000233,0.00015977,0.00006343,0.00000527,-0.00005328,-0.0000
 0383,0.00004628,0.00000018,-0.00000281,-0.00001079,0.00001574,0.000005
 29,-0.00000096,-0.00000323,-0.00000447,-0.00000444,-0.00023929,-0.0001
 8477,-0.00004965,-0.00000541,-0.00027951,0.00006443,0.00009751,0.00080
 152,0.00037135,-0.04193628,0.00019183,-0.09486870,0.25397599,0.4619423
 7,0.00002598,-0.00000376,-0.00008489,-0.00002121,0.00005532,0.00004437
 ,0.00005402,-0.00000824,0.00000867,-0.00000081,-0.00000085,0.00001775,
 -0.00005730,-0.00004095,-0.00041424,0.00010072,0.00011361,0.00034397,0
 .00001242,-0.00000428,0.00002518,0.00001775,0.00000099,-0.00002926,-0.
 00000646,-0.00000073,-0.00001481,0.00000607,-0.00001368,0.00001994,-0.
 00000444,0.00001268,0.00002315,0.00001453,0.00001735,-0.00004422,0.000
 00215,-0.00000003,0.00000402,0.00003413,0.00001809,0.00000977,0.000002
 29,0.00000536,-0.00000014,-0.00003669,-0.00001962,-0.00000216,0.000007
 73,0.00000748,0.00000206,-0.00002974,-0.00003899,0.00004383,0.00000471
 ,0.00002971,-0.00000151,0.00000288,-0.00000474,-0.00000306,-0.00000351
 ,-0.00000412,0.00000382,0.00000081,-0.00000115,-0.00000157,0.00000840,
 -0.00015988,-0.00001135,0.00000844,0.00002441,-0.00001735,-0.00007022,
 0.00043543,-0.00010894,0.00003723,-0.00001151,-0.00001373,-0.00023062,
 -0.00122120,-0.00027347,-0.00044173,0.00108089,0.00103548,-0.00005939,
 0.00007023,0.00002630,-0.00000737,-0.00004793,0.00000232,0.00003455,0.
 00000141,0.00001160,-0.00003966,0.00000130,-0.00000225,0.00000458,0.00
 000343,-0.00000361,0.00000869,0.00004733,0.00000725,0.00000553,-0.0000
 0226,-0.00000935,0.00004374,-0.00003259,-0.00000082,-0.00000307,0.0000
 0625,-0.00000380,-0.00005540,0.00004572,0.00000387,0.00000065,-0.00000
 963,-0.00000526,-0.00002716,-0.00000438,0.00001238,0.00001476,0.000002
 10,-0.00002248,0.00000023,-0.00000353,0.00000417,-0.00000017,-0.000001
 36,0.00000175,-0.00000063,0.00000362,0.00000112,-0.00013790,0.00006861
 ,-0.00006594,0.00008434,-0.00002944,0.00005206,-0.00002304,0.00043845,
 0.00019405,-0.05367808,-0.08142308,-0.05512669,0.16236733,0.22402782,0
 .19945003,-0.00013320,0.00000312,0.00006057,0.00003166,-0.00007607,-0.
 00008510,-0.00004405,0.00005188,0.00014473,-0.00000902,-0.00001557,-0.
 00003460,-0.00015659,-0.00023698,0.00063358,-0.00016449,-0.00009212,-0
 .00056642,0.00001482,0.00002915,-0.00004117,-0.00004706,0.00000851,0.0
 0001939,-0.00000163,0.00000588,0.00004755,0.00000432,0.00004553,-0.000
 04928,0.00001190,-0.00003019,-0.00004212,-0.00002609,-0.00004827,0.000
 13016,-0.00000273,-0.00001395,-0.00000630,-0.00011683,-0.00005627,-0.0
 0003395,0.00000344,-0.00001205,0.00000190,0.00012970,0.00006669,0.0000
 1953,-0.00001886,-0.00002049,-0.00001321,0.00007569,0.00010859,-0.0000
 9910,-0.00001538,-0.00008879,0.00000157,-0.00000748,0.00001279,0.00000
 528,0.00000663,0.00001007,-0.00000903,0.00000066,0.00000351,0.00000664
 ,0.00012830,0.00061321,0.00008491,-0.00003118,-0.00006438,0.00001659,-
 0.00020405,-0.00178618,-0.00014688,-0.00009021,0.00009269,0.00001689,0
 .00247534,0.00327910,0.00081119,-0.00576915,-0.00229290,-0.00150328,0.
 00019045,-0.00030175,-0.00003927,0.00004755,0.00018325,0.00001551,-0.0
 0014060,-0.00002831,-0.00002484,0.00015984,-0.00000568,0.00001632,-0.0
 0001725,-0.00000677,0.00000187,-0.00004704,-0.00019675,-0.00003477,-0.
 00002421,0.00001372,0.00000848,-0.00018618,0.00014047,-0.00000800,0.00
 001466,-0.00002437,0.00000451,0.00023550,-0.00019356,0.00000360,-0.000
 00423,0.00004168,0.00000743,0.00011052,0.00002375,-0.00002075,-0.00004
 998,-0.00000039,0.00005815,0.00000073,0.00000713,-0.00000778,0.0000041
 0,0.00000646,-0.00000505,0.00000016,-0.00001246,-0.00000337,0.00081976
 ,-0.00063185,0.00044902,-0.00042469,0.00009302,-0.00021425,-0.00011244
 ,-0.00106275,-0.00055458,-0.11681056,-0.04252998,-0.22276672,-0.126318
 26,-0.21349706,-0.10797004,0.24650759,-0.00046478,-0.00003899,-0.00023
 276,-0.00001457,-0.00008523,-0.00015968,0.00056313,0.00026487,-0.00000
 070,0.00016115,0.00006117,-0.00005960,-0.00095124,-0.00062403,0.002044
 68,0.00024694,0.00020988,-0.00094045,0.00020608,0.00010006,-0.00001785
 ,-0.00009593,0.00000758,-0.00010049,-0.00002562,-0.00003753,0.00012736
 ,0.00010721,0.00008785,-0.00010643,-0.00001220,-0.00001994,-0.00003448
 ,0.00001233,-0.00006926,0.00027388,-0.00002951,-0.00001987,0.00000227,
 -0.00028834,-0.00010812,-0.00005935,0.00001817,0.00000172,0.00001626,0
 .00035726,0.00013077,0.00006357,-0.00004512,-0.00000708,-0.00003716,0.
 00013065,0.00015604,-0.00015622,-0.00003292,-0.00012067,0.00000236,-0.
 00000595,0.00001496,0.00000646,0.00000751,0.00001581,-0.00001573,0.000
 00142,0.00000351,0.00001345,-0.00002710,-0.00136289,-0.00024203,0.0000
 4933,-0.00009607,-0.00000686,-0.00043597,0.00320145,0.00034778,-0.0001
 0922,-0.00013500,0.00001649,0.00073348,-0.00685405,-0.00058324,-0.0016
 7552,0.00282004,-0.00028364,-0.00051454,0.00060930,0.00005161,-0.00008
 236,-0.00042157,-0.00005843,0.00031138,0.00018952,0.00005367,-0.000416
 88,-0.00001654,-0.00006502,0.00002992,-0.00001854,0.00001269,0.0001941
 3,0.00053771,0.00009850,0.00006068,-0.00003740,0.00001419,0.00049616,-
 0.00035643,0.00003660,-0.00002973,0.00005271,0.00000166,-0.00062169,0.
 00048149,-0.00003027,0.00001895,-0.00010276,-0.00000203,-0.00037422,-0
 .00013869,0.00000455,0.00013189,0.00000949,-0.00012577,-0.00000064,0.0
 0000100,0.00002674,-0.00003323,-0.00001370,0.00000466,0.00000627,0.000
 01501,0.00001036,0.00046646,0.00066763,-0.00003069,0.00008078,0.000601
 35,-0.00004000,-0.00024834,-0.00168260,-0.00107506,-0.03513804,-0.0920
 4645,-0.01034610,-0.22120338,-0.46160195,-0.14342966,0.25848573,0.5557
 7447,-0.00017118,-0.00000149,0.00012989,0.00004707,-0.00014268,-0.0001
 3709,-0.00002581,0.00008725,0.00006487,0.00001772,0.00000430,-0.000051
 36,-0.00017747,-0.00014340,0.00129009,-0.00019085,-0.00022278,-0.00099
 303,0.00001133,0.00003497,-0.00006322,-0.00006202,0.00000063,0.0000397
 1,0.00000672,0.00000007,0.00006140,0.00001018,0.00005355,-0.00006675,0
 .00000923,-0.00003355,-0.00005889,-0.00003598,-0.00005924,0.00016732,-
 0.00000959,-0.00001030,-0.00000811,-0.00014727,-0.00006981,-0.00003821
 ,0.00000068,-0.00001260,0.00000437,0.00016991,0.00007981,0.00001969,-0
 .00002778,-0.00002150,-0.00001288,0.00010043,0.00013177,-0.00013805,-0
 .00001797,-0.00010189,0.00000408,-0.00000891,0.00001462,0.00000815,0.0
 0000908,0.00001315,-0.00001198,-0.00000097,0.00000431,0.00000693,0.000
 11862,0.00037641,0.00011414,-0.00003187,-0.00009034,0.00006473,-0.0003
 0362,-0.00133838,0.00056118,-0.00012248,0.00006617,0.00002135,0.001959
 24,0.00236821,0.00070736,-0.00014653,-0.00337979,-0.00497388,0.0001240
 1,-0.00020688,-0.00013976,0.00003807,0.00012471,-0.00001682,-0.0000909
 9,0.00000230,-0.00002618,0.00009408,-0.00001149,0.00001340,-0.00001371
 ,-0.00001148,0.00000563,-0.00001290,-0.00011170,-0.00001119,-0.0000133
 1,0.00000789,0.00002078,-0.00010324,0.00007779,0.00000028,0.00000958,-
 0.00001647,0.00001092,0.00013098,-0.00011174,-0.00001166,0.00000054,0.
 00002438,0.00001378,0.00005365,0.00000407,-0.00003240,-0.00003281,-0.0
 0000400,0.00005238,0.00000034,0.00000910,-0.00000848,-0.00000116,0.000
 00332,-0.00000468,0.00000144,-0.00000910,-0.00000192,0.00099655,-0.000
 35334,0.00018029,-0.00042991,0.00016107,-0.00021609,-0.00030349,-0.001
 50085,-0.00086947,-0.22569559,-0.02176110,-0.49993257,-0.10744666,-0.1
 2893384,-0.14508801,0.33171452,0.15500990,0.64934998\\-0.00000019,-0.0
 0000025,0.00000077,-0.00000052,-0.00000058,0.00000155,0.00000007,-0.00
 000139,0.00000145,0.00000095,-0.00000206,0.00000070,-0.00000121,-0.000
 00074,0.00000044,0.00000001,-0.00000175,0.00000242,-0.00000080,-0.0000
 0137,0.00000106,0.,-0.00000038,0.00000209,0.00000095,-0.00000183,0.000
 00071,-0.00000023,-0.00000042,0.00000090,-0.00000091,0.00000023,0.0000
 0165,0.00000032,-0.00000243,0.00000120,0.00000009,-0.00000273,0.000000
 83,-0.00000075,-0.00000217,0.00000128,-0.00000058,-0.00000031,0.000001
 69,0.00000039,-0.00000180,0.00000040,0.00000020,-0.00000166,0.00000205
 ,0.00000078,-0.00000348,0.00000070,0.00000212,-0.00000316,-0.00000063,
 0.00000139,-0.00000284,-0.00000073,0.00000140,-0.00000416,0.00000027,0
 .00000114,-0.00000284,-0.00000029,-0.00000086,0.00000185,-0.00000113,-
 0.00000176,0.00000017,-0.00000023,-0.00000035,0.00000270,0.00000031,-0
 .00000091,0.00000116,0.00000075,-0.00000004,-0.00000271,0.00000122,-0.
 00000057,0.00000251,0.00000242,0.00000008,0.00000138,-0.00000141,0.000
 00106,0.00000126,-0.00000212,-0.00000049,0.00000139,-0.00000120,0.0000
 0071,0.00000151,-0.00000312,0.00000050,0.00000114,-0.00000223,0.000000
 75,0.00000213,-0.00000188,0.00000013,0.00000097,-0.00000050,0.00000084
 ,0.00000125,-0.00000308,0.00000118,0.00000201,-0.00000373,0.00000078,0
 .00000159,-0.00000364,0.00000138,0.00000300,-0.00000423,0.00000041,0.0
 0000207,-0.00000217,-0.00000042,0.00000287,-0.00000237,-0.00000046,0.0
 0000360,-0.00000179,0.00000001,0.00000324,-0.00000195,0.00000018,0.000
 00342,-0.00000302,0.00000067,-0.00000028,0.00000212,0.00000106,-0.0000
 0061,-0.00000017,-0.00000392,0.00000387,0.00000129,-0.00000203,-0.0000
 0113,0.00000269,-0.00000060,0.00000155,0.00000640,-0.00000193,-0.00000
 380,0.00000226\\\@


 THE REAL VOYAGE OF DISCOVERY CONSISTS NOT IN SEEKING NEW LANDSCAPES 
 BUT IN HAVING NEW EYES.
                                                    -- MARCEL PROUST
 Job cpu time:       0 days  2 hours 23 minutes  1.2 seconds.
 Elapsed time:       0 days  2 hours 23 minutes 22.4 seconds.
 File lengths (MBytes):  RWF=   3776 Int=      0 D2E=      0 Chk=     51 Scr=      1
 Normal termination of Gaussian 16 at Mon Nov 11 15:07:26 2024.
