
                                 *****************
                                 * O   R   C   A *
                                 *****************

                                            #,                                       
                                            ###                                      
                                            ####                                     
                                            #####                                    
                                            ######                                   
                                           ########,                                 
                                     ,,################,,,,,                         
                               ,,#################################,,                 
                          ,,##########################################,,             
                       ,#########################################, ''#####,          
                    ,#############################################,,   '####,        
                  ,##################################################,,,,####,       
                ,###########''''           ''''###############################       
              ,#####''   ,,,,##########,,,,          '''####'''          '####       
            ,##' ,,,,###########################,,,                        '##       
           ' ,,###''''                  '''############,,,                           
         ,,##''                                '''############,,,,        ,,,,,,###''
      ,#''                                            '''#######################'''  
     '                                                          ''''####''''         
             ,#######,   #######,   ,#######,      ##                                
            ,#'     '#,  ##    ##  ,#'     '#,    #''#        ######   ,####,        
            ##       ##  ##   ,#'  ##            #'  '#       #        #'  '#        
            ##       ##  #######   ##           ,######,      #####,   #    #        
            '#,     ,#'  ##    ##  '#,     ,#' ,#      #,         ##   #,  ,#        
             '#######'   ##     ##  '#######'  #'      '#     #####' # '####'        



                  #######################################################
                  #                        -***-                        #
                  #          Department of theory and spectroscopy      #
                  #    Directorship and core code : Frank Neese         #
                  #        Max Planck Institute fuer Kohlenforschung    #
                  #                Kaiser Wilhelm Platz 1               #
                  #                 D-45470 Muelheim/Ruhr               #
                  #                      Germany                        #
                  #                                                     #
                  #                  All rights reserved                #
                  #                        -***-                        #
                  #######################################################


                         Program Version 5.0.4 -  RELEASE  -


 With contributions from (in alphabetic order):
   Daniel Aravena         : Magnetic Suceptibility
   Michael Atanasov       : Ab Initio Ligand Field Theory (pilot matlab implementation)
   Alexander A. Auer      : GIAO ZORA, VPT2 properties, NMR spectrum
   Ute Becker             : Parallelization
   Giovanni Bistoni       : ED, misc. LED, open-shell LED, HFLD
   Martin Brehm           : Molecular dynamics
   Dmytro Bykov           : SCF Hessian
   Vijay G. Chilkuri      : MRCI spin determinant printing, contributions to CSF-ICE
   Dipayan Datta          : RHF DLPNO-CCSD density
   Achintya Kumar Dutta   : EOM-CC, STEOM-CC
   Dmitry Ganyushin       : Spin-Orbit,Spin-Spin,Magnetic field MRCI
   Miquel Garcia          : C-PCM and meta-GGA Hessian, CC/C-PCM, Gaussian charge scheme
   Yang Guo               : DLPNO-NEVPT2, F12-NEVPT2, CIM, IAO-localization
   Andreas Hansen         : Spin unrestricted coupled pair/coupled cluster methods
   Benjamin Helmich-Paris : MC-RPA, TRAH-SCF, COSX integrals
   Lee Huntington         : MR-EOM, pCC
   Robert Izsak           : Overlap fitted RIJCOSX, COSX-SCS-MP3, EOM
   Marcus Kettner         : VPT2
   Christian Kollmar      : KDIIS, OOCD, Brueckner-CCSD(T), CCSD density, CASPT2, CASPT2-K
   Simone Kossmann        : Meta GGA functionals, TD-DFT gradient, OOMP2, MP2 Hessian
   Martin Krupicka        : Initial AUTO-CI
   Lucas Lang             : DCDCAS
   Marvin Lechner         : AUTO-CI (C++ implementation), FIC-MRCC
   Dagmar Lenk            : GEPOL surface, SMD
   Dimitrios Liakos       : Extrapolation schemes; Compound Job, initial MDCI parallelization
   Dimitrios Manganas     : Further ROCIS development; embedding schemes
   Dimitrios Pantazis     : SARC Basis sets
   Anastasios Papadopoulos: AUTO-CI, single reference methods and gradients
   Taras Petrenko         : DFT Hessian,TD-DFT gradient, ASA, ECA, R-Raman, ABS, FL, XAS/XES, NRVS
   Peter Pinski           : DLPNO-MP2, DLPNO-MP2 Gradient
   Christoph Reimann      : Effective Core Potentials
   Marius Retegan         : Local ZFS, SOC
   Christoph Riplinger    : Optimizer, TS searches, QM/MM, DLPNO-CCSD(T), (RO)-DLPNO pert. Triples
   Tobias Risthaus        : Range-separated hybrids, TD-DFT gradient, RPA, STAB
   Michael Roemelt        : Original ROCIS implementation
   Masaaki Saitow         : Open-shell DLPNO-CCSD energy and density
   Barbara Sandhoefer     : DKH picture change effects
   Avijit Sen             : IP-ROCIS
   Kantharuban Sivalingam : CASSCF convergence, NEVPT2, FIC-MRCI
   Bernardo de Souza      : ESD, SOC TD-DFT
   Georgi Stoychev        : AutoAux, RI-MP2 NMR, DLPNO-MP2 response
   Willem Van den Heuvel  : Paramagnetic NMR
   Boris Wezisla          : Elementary symmetry handling
   Frank Wennmohs         : Technical directorship


 We gratefully acknowledge several colleagues who have allowed us to
 interface, adapt or use parts of their codes:
   Stefan Grimme, W. Hujo, H. Kruse, P. Pracht,  : VdW corrections, initial TS optimization,
                  C. Bannwarth, S. Ehlert          DFT functionals, gCP, sTDA/sTD-DF
   Ed Valeev, F. Pavosevic, A. Kumar             : LibInt (2-el integral package), F12 methods
   Garnet Chan, S. Sharma, J. Yang, R. Olivares  : DMRG
   Ulf Ekstrom                                   : XCFun DFT Library
   Mihaly Kallay                                 : mrcc  (arbitrary order and MRCC methods)
   Jiri Pittner, Ondrej Demel                    : Mk-CCSD
   Frank Weinhold                                : gennbo (NPA and NBO analysis)
   Christopher J. Cramer and Donald G. Truhlar   : smd solvation model
   Lars Goerigk                                  : TD-DFT with DH, B97 family of functionals
   V. Asgeirsson, H. Jonsson                     : NEB implementation
   FAccTs GmbH                                   : IRC, NEB, NEB-TS, DLPNO-Multilevel, CI-OPT
                                                   MM, QMMM, 2- and 3-layer-ONIOM, Crystal-QMMM,
                                                   LR-CPCM, SF, NACMEs, symmetry and pop. for TD-DFT,
                                                   nearIR, NL-DFT gradient (VV10), updates on ESD,
                                                   ML-optimized integration grids
   S Lehtola, MJT Oliveira, MAL Marques          : LibXC Library
   Liviu Ungur et al                             : ANISO software


 Your calculation uses the libint2 library for the computation of 2-el integrals
 For citations please refer to: http://libint.valeyev.net

 Your ORCA version has been built with support for libXC version: 5.1.0
 For citations please refer to: https://tddft.org/programs/libxc/

 This ORCA versions uses:
   CBLAS   interface :  Fast vector & matrix operations
   LAPACKE interface :  Fast linear algebra routines
   SCALAPACK package :  Parallel linear algebra routines
   Shared memory     :  Shared parallel matrices
   BLAS/LAPACK       :  OpenBLAS 0.3.15  USE64BITINT DYNAMIC_ARCH NO_AFFINITY Zen SINGLE_THREADED
        Core in use  :  Zen
   Copyright (c) 2011-2014, The OpenBLAS Project


Your calculation utilizes the DFT-NL dispersion correction.
Cite in your paper:
Vydrov, O. A.; Van Voorhis, T. J. Chem. Phys. 2010, 133, 244103
Hujo, W.; Grimme, S. J. Chem. Theory Comput. 2011, 7, 3866 
   

================================================================================

----- Orbital basis set information -----
Your calculation utilizes the basis: 6-311+G(d)
   H, Li - Ne  : R. Krishnan, J. S. Binkley, R. Seeger and J. A. Pople, J. Chem. Phys. 72, 650 (1980).
   Na - Ar     : A. D. McLean and G. S. Chandler J. Chem. Phys. 72, 5639, (1980).
   K  - Ca     : J.-P. Blaudeau, M. P. McGrath, L. A. Curtiss and L. Radom, J. Chem. Phys. 107, 5016 (1997).
   Ga - Kr     : L. A. Curtiss, M. P. McGrath, J.-P. Blandeau, N. E. Davis, R. C. Binning and L. Radom, J. Chem. Phys. 103, 6104 (1995).
   Pol./Diff.
   H, Li - Cl  : T. Clark, J. Chandrasekhar and P. v. R. Schleyer, J. Comp. Chem. 4, 294 (1983).
   H - Ne      : M. J. Frisch, J. A. Pople and J. S. Binkley, J. Chem. Phys. 80, 3265 (1984).

----- AuxJ basis set information -----
Your calculation utilizes the auxiliary basis: def2/J
   F. Weigend, Phys. Chem. Chem. Phys. 8, 1057 (2006).

================================================================================
                                        WARNINGS
                       Please study these warnings very carefully!
================================================================================

Using LibXC functional ID 531 : wB97M-V exchange-correlation functional
[ 1]  N. Mardirossian and M. Head-Gordon, J. Chem. Phys. 144, 214110 (2016)
Using LibXC functional ID 531 : wB97M-V exchange-correlation functional
[ 1]  N. Mardirossian and M. Head-Gordon, J. Chem. Phys. 144, 214110 (2016)

WARNING: B97M-V or wB97M-V functional requested.
  ===> : libXC variant has now been activated.
         Any manually given DFX/HFX/RangeSep scaling parameters are IGNORED!

Your calculation utilizes LibXC
 by S Lehtola, C Steigemann, MJT Oliveira & MAL Marques
Please cite in your paper:
 S Lehtola, C Steigemann, MJT Oliveira & MAL Marques, SoftwareX, 7, (2018), 1.
   


WARNING: your system is open-shell and RHF/RKS was chosen
  ===> : WILL SWITCH to UHF/UKS


WARNING: Geometry Optimization
  ===> : Switching off AutoStart
         For restart on a previous wavefunction, please use MOREAD

WARNING: Analytic gradients for DFT-NL dispersion can only be done using the self-consistent method,
  ===>   Switching to SCNL

WARNING: Self-consistent DFT-NL dispersion not compatible with AutoTRAH.
  ===>   Switching AutoTRAH off


INFO   : the flag for use of the SHARK integral package has been found!

================================================================================
                                       INPUT FILE
================================================================================
NAME = CURCUMIN-OPT-FREQ-Prod-1-wB97XM-V-6-311+G-D-298-cont.inp
|  1> # 
|  2> ! Opt NumFreq wb97M-V 6-311+G(d) CPCM RIJDX
|  3> %maxcore 2000
|  4> %cpcm
|  5> epsilon 7 # Dielectric constant
|  6> refrac 1.85341 # Refractive index
|  7> end
|  8> 
|  9> * xyz 0 2
| 10>    C      1.868737    1.485878    1.561272
| 11>    H      1.706137    2.549130    1.716787
| 12>    C      1.166009    0.586986    2.258744
| 13>    H      1.366246   -0.479103    2.188541
| 14>    C      0.094990    0.944882    3.214644
| 15>    O     -0.306896    0.119148    4.015521
| 16>    C      2.923725    1.152832    0.589233
| 17>    C      4.089871    1.916285    0.538370
| 18>    C      2.848711    0.078698   -0.299245
| 19>    C      5.125458    1.603960   -0.331922
| 20>    H      4.191417    2.765281    1.205776
| 21>    C      3.855964   -0.259885   -1.189454
| 22>    H      4.779661   -1.557943    2.828665
| 23>    C      5.019424    0.522285   -1.199862
| 24>    H      6.023379    2.214134   -0.352269
| 25>    O      5.972191    0.179758   -2.099162
| 26>    H      6.724626    0.783385   -2.050489
| 27>    O      3.659502   -1.262871   -2.089441
| 28>    C      4.402952   -2.463166   -1.798447
| 29>    H      4.091552   -2.864773   -0.832298
| 30>    H      4.156597   -3.166343   -2.590421
| 31>    H      5.474185   -2.258855   -1.800602
| 32>    C     -2.513358    0.921818    1.480570
| 33>    H     -2.390689    0.659097    2.528913
| 34>    C     -1.855768    1.984955    0.991183
| 35>    H     -1.974719    2.311800   -0.037784
| 36>    C     -0.935903    2.811676    1.785294
| 37>    O     -0.506030    3.864282    1.337691
| 38>    C     -3.426128    0.045340    0.742773
| 39>    C     -4.097039   -0.964615    1.436282
| 40>    C     -3.650772    0.169657   -0.636424
| 41>    C     -4.968273   -1.826840    0.781814
| 42>    H     -3.933664   -1.082082    2.503131
| 43>    C     -4.513371   -0.683197   -1.296197
| 44>    H     -3.147272    0.927860   -1.227297
| 45>    C     -5.180356   -1.696097   -0.586171
| 46>    H     -5.479937   -2.613242    1.329412
| 47>    O     -6.001231   -2.513446   -1.295026
| 48>    H     -6.406738   -3.170258   -0.714911
| 49>    O     -4.677333   -0.573996   -2.655941
| 50>    C     -5.915744    0.042999   -3.030651
| 51>    H     -5.958515    1.065823   -2.645604
| 52>    H     -5.935869    0.059289   -4.118620
| 53>    H     -6.765275   -0.531348   -2.655576
| 54>    C     -0.503892    2.343695    3.172722
| 55>    H     -1.356976    2.356443    3.855619
| 56>    H      0.232006    3.063031    3.542631
| 57>    O      1.681591   -1.895526   -0.045700
| 58>    O      0.617636   -0.184358   -0.815028
| 59>    N      1.617459   -0.730901   -0.392456
| 60> *
| 61> 
| 62> 
| 63> 
| 64>                          ****END OF INPUT****
================================================================================

                       *****************************
                       * Geometry Optimization Run *
                       *****************************

Geometry optimization settings:
Update method            Update   .... BFGS
Choice of coordinates    CoordSys .... Z-matrix Internals
Initial Hessian          InHess   .... Almoef's Model

Convergence Tolerances:
Energy Change            TolE     ....  5.0000e-06 Eh
Max. Gradient            TolMAXG  ....  3.0000e-04 Eh/bohr
RMS Gradient             TolRMSG  ....  1.0000e-04 Eh/bohr
Max. Displacement        TolMAXD  ....  4.0000e-03 bohr
RMS Displacement         TolRMSD  ....  2.0000e-03 bohr
Strict Convergence                ....  False
------------------------------------------------------------------------------
                        ORCA OPTIMIZATION COORDINATE SETUP
------------------------------------------------------------------------------

The optimization will be done in new redundant internal coordinates
Making redundant internal coordinates   ...  (new redundants) done
Evaluating the initial hessian          ...  (Almloef) done
Evaluating the coordinates              ...  done
Calculating the B-matrix                .... done
Calculating the G-matrix                .... done
Diagonalizing the G-matrix              .... done
Small eigenvalue found = 1.383e-03
Small eigenvalue found = 3.044e-03
Small eigenvalue found = 8.991e-03
Small eigenvalue found = 1.117e-02
Small eigenvalue found = 1.866e-02
Small eigenvalue found = 2.438e-02
The first mode is                       ....  607
The number of degrees of freedom        ....  144

    -----------------------------------------------------------------
                    Redundant Internal Coordinates


    -----------------------------------------------------------------
         Definition                    Initial Value    Approx d2E/dq
    -----------------------------------------------------------------
      1. B(H   1,C   0)                  1.0868         0.364362   
      2. B(C   2,C   0)                  1.3373         0.758333   
      3. B(H   3,C   2)                  1.0870         0.364091   
      4. B(C   4,C   2)                  1.4795         0.449727   
      5. B(O   5,C   4)                  1.2185         1.050717   
      6. B(C   6,C   0)                  1.4727         0.461139   
      7. B(C   7,C   6)                  1.3948         0.613975   
      8. B(C   8,C   6)                  1.3960         0.611201   
      9. B(C   9,C   7)                  1.3883         0.628695   
     10. B(H  10,C   7)                  1.0847         0.367203   
     11. B(C  11,C   8)                  1.3862         0.633480   
     12. B(H  12,H  10)                  4.6551         0.000000   
     13. B(H  12,C   8)                  4.0238         0.000008   
     14. B(H  12,C   0)                  4.3983         0.000002   
     15. B(H  12,H   3)                  3.6366         0.000006   
     16. B(H  12,C  11)                  4.3224         0.000003   
     17. B(H  12,C   6)                  3.9759         0.000009   
     18. B(H  12,C   2)                  4.2408         0.000003   
     19. B(H  12,C   7)                  4.2180         0.000004   
     20. B(H  12,C   9)                  4.4840         0.000001   
     21. B(C  13,H  12)                  4.5402         0.000001   
     22. B(C  13,C  11)                  1.4020         0.597904   
     23. B(C  13,C   9)                  1.3909         0.622750   
     24. B(H  14,C   9)                  1.0858         0.365683   
     25. B(O  15,C  13)                  1.3542         0.638276   
     26. B(H  16,O  15)                  0.9659         0.508875   
     27. B(O  17,C  11)                  1.3618         0.620632   
     28. B(C  18,O  17)                  1.4416         0.463031   
     29. B(H  19,H  12)                  3.9477         0.000002   
     30. B(H  19,C  18)                  1.0917         0.357922   
     31. B(H  20,C  18)                  1.0874         0.363597   
     32. B(H  21,C  18)                  1.0905         0.359380   
     33. B(H  23,C  22)                  1.0877         0.363154   
     34. B(C  24,C  22)                  1.3425         0.744036   
     35. B(H  25,C  24)                  1.0862         0.365212   
     36. B(C  26,C  24)                  1.4698         0.466086   
     37. B(O  27,C  26)                  1.2219         1.037568   
     38. B(C  28,C  22)                  1.4648         0.474638   
     39. B(C  29,C  28)                  1.3968         0.609354   
     40. B(C  30,C  28)                  1.4029         0.595897   
     41. B(C  31,C  29)                  1.3895         0.625863   
     42. B(H  32,C  29)                  1.0857         0.365888   
     43. B(C  33,C  30)                  1.3808         0.646163   
     44. B(H  34,C  30)                  1.0851         0.366596   
     45. B(C  35,C  33)                  1.4053         0.590567   
     46. B(C  35,C  31)                  1.3905         0.623678   
     47. B(H  36,C  31)                  1.0863         0.365001   
     48. B(O  37,C  35)                  1.3581         0.629228   
     49. B(H  38,O  37)                  0.9656         0.509380   
     50. B(O  39,C  33)                  1.3739         0.593605   
     51. B(C  40,O  39)                  1.4334         0.477055   
     52. B(H  41,C  40)                  1.0937         0.355191   
     53. B(H  42,C  40)                  1.0883         0.362386   
     54. B(H  43,C  40)                  1.0919         0.357587   
     55. B(C  44,C  26)                  1.5266         0.378230   
     56. B(C  44,C   4)                  1.5222         0.384433   
     57. B(H  45,C  44)                  1.0928         0.356384   
     58. B(H  46,C  44)                  1.0935         0.355451   
     59. B(O  47,H  12)                  4.2396         0.000003   
     60. B(O  48,H  34)                  3.9473         0.000009   
     61. B(N  49,H  12)                  4.5890         0.000001   
     62. B(N  49,O  48)                  1.2153         0.952261   
     63. B(N  49,O  47)                  1.2168         0.946837   
     64. B(N  49,C   8)                  1.4765         0.407224   
     65. A(C   2,C   0,C   6)          124.6591         0.426755   
     66. A(C   6,C   0,H  12)           63.8686         0.104766   
     67. A(C   2,C   0,H  12)           74.4733         0.106645   
     68. A(H   1,C   0,C   2)          120.2893         0.365954   
     69. A(H   1,C   0,C   6)          115.0165         0.336464   
     70. A(H   1,C   0,H  12)          137.2942         0.101928   
     71. A(H   3,C   2,H  12)           49.8830         0.103734   
     72. A(C   0,C   2,H   3)          121.9221         0.365908   
     73. A(C   0,C   2,H  12)           87.8389         0.109114   
     74. A(H   3,C   2,C   4)          114.3512         0.335023   
     75. A(C   4,C   2,H  12)          130.7214         0.106870   
     76. A(C   0,C   2,C   4)          123.6959         0.424845   
     77. A(C   2,H   3,H  12)          116.9034         0.102393   
     78. A(C   2,C   4,O   5)          119.9659         0.447596   
     79. A(O   5,C   4,C  44)          120.7352         0.435087   
     80. A(C   2,C   4,C  44)          119.2952         0.376979   
     81. A(C   7,C   6,C   8)          116.2885         0.432192   
     82. A(C   7,C   6,H  12)           90.1980         0.112899   
     83. A(C   0,C   6,H  12)           96.7084         0.111399   
     84. A(C   0,C   6,C   8)          123.7523         0.410662   
     85. A(C   8,C   6,H  12)           81.8919         0.112874   
     86. A(C   0,C   6,C   7)          119.9495         0.410991   
     87. A(C   6,C   7,C   9)          121.5599         0.434391   
     88. A(C   6,C   7,H  12)           70.4928         0.108541   
     89. A(H  10,C   7,H  12)          107.1749         0.104045   
     90. A(C   6,C   7,H  10)          118.9648         0.353493   
     91. A(C   9,C   7,H  10)          119.4700         0.354915   
     92. A(C   9,C   7,H  12)           91.8965         0.108646   
     93. A(C  11,C   8,H  12)           92.9328         0.112129   
     94. A(C  11,C   8,N  49)          115.5593         0.401686   
     95. A(H  12,C   8,N  49)          103.0746         0.109755   
     96. A(C   6,C   8,H  12)           78.0200         0.111942   
     97. A(C   6,C   8,C  11)          123.8900         0.434630   
     98. A(C   6,C   8,N  49)          120.4565         0.399162   
     99. A(C  13,C   9,H  14)          119.2335         0.354095   
    100. A(H  12,C   9,C  13)           83.4298         0.104714   
    101. A(C   7,C   9,H  12)           70.0779         0.104748   
    102. A(C   7,C   9,H  14)          120.1445         0.354666   
    103. A(C   7,C   9,C  13)          120.6150         0.435502   
    104. A(H  12,C   9,H  14)          118.2448         0.101048   
    105. A(C   7,H  10,H  12)           59.9622         0.094753   
    106. A(C  13,C  11,O  17)          121.7163         0.428505   
    107. A(C   8,C  11,O  17)          119.9641         0.432976   
    108. A(H  12,C  11,C  13)           89.8340         0.106809   
    109. A(H  12,C  11,O  17)          115.0870         0.106812   
    110. A(C   8,C  11,H  12)           68.3868         0.107043   
    111. A(C   8,C  11,C  13)          118.1312         0.432914   
    112. A(C   6,H  12,H  10)           27.3096         0.089520   
    113. A(C   0,H  12,H  10)           34.2281         0.089366   
    114. A(H  19,H  12,O  47)           38.5115         0.089725   
    115. A(H   3,H  12,C   9)           74.8781         0.089795   
    116. A(C  11,H  12,O  47)           40.3150         0.089965   
    117. A(H   3,H  12,O  47)           38.5913         0.089939   
    118. A(C   9,H  12,N  49)           55.3409         0.089631   
    119. A(C   7,H  12,C   8)           33.3234         0.090306   
    120. A(C  13,H  12,O  47)           58.2309         0.089805   
    121. A(C   6,H  12,C   9)           32.6713         0.090090   
    122. A(C   7,H  12,C   9)           18.0256         0.089891   
    123. A(H   3,H  12,C   8)           44.9340         0.090165   
    124. A(C   2,H  12,H  10)           51.3721         0.089417   
    125. A(C   7,H  12,H  10)           12.8629         0.089425   
    126. A(C   8,H  12,H  10)           44.8150         0.089500   
    127. A(C  13,H  12,H  19)           48.5493         0.089586   
    128. A(C   2,H  12,C   8)           44.0187         0.090282   
    129. A(C   0,H  12,C   8)           34.6047         0.090124   
    130. A(C   6,H  12,C   7)           19.3092         0.090359   
    131. A(C   2,H  12,C   7)           51.0291         0.090091   
    132. A(C   0,H  12,O  47)           51.3986         0.089906   
    133. A(C   0,H  12,C   7)           33.4134         0.089957   
    134. A(C   7,H  12,O  47)           65.0359         0.090052   
    135. A(C   7,H  12,C  11)           38.0890         0.090019   
    136. A(C   2,H  12,C   6)           35.0839         0.090334   
    137. A(H  10,H  12,N  49)           60.0559         0.089301   
    138. A(C   0,H  12,H   3)           28.6888         0.089853   
    139. A(C   6,H  12,N  49)           32.8715         0.089963   
    140. A(C   2,H  12,H   3)           13.2135         0.089973   
    141. A(C  13,H  12,N  49)           48.0108         0.089602   
    142. A(H  10,H  12,H  19)           87.8282         0.089293   
    143. A(C   0,H  12,C   2)           17.6878         0.089939   
    144. A(H  10,H  12,O  47)           75.2410         0.089402   
    145. A(C   9,H  12,O  47)           68.5691         0.089844   
    146. A(C   8,H  12,O  47)           32.2938         0.090237   
    147. A(H  10,H  12,C  13)           43.2669         0.089325   
    148. A(C   6,H  12,O  47)           48.0335         0.090287   
    149. A(C   2,H  12,O  47)           47.6598         0.090033   
    150. A(H  19,H  12,N  49)           44.6514         0.089542   
    151. A(C  11,H  12,H  19)           36.8773         0.089702   
    152. A(C   6,H  12,H  19)           67.7896         0.089936   
    153. A(C   7,H  12,N  49)           50.0395         0.089787   
    154. A(C   8,H  12,N  49)           18.2649         0.089925   
    155. A(C  11,H  12,N  49)           31.3640         0.089722   
    156. A(C   0,H  12,C   6)           19.4230         0.090170   
    157. A(C   2,H  12,H  19)           83.9309         0.089751   
    158. A(H   3,H  12,C   6)           42.3069         0.090212   
    159. A(C   9,H  12,H  19)           65.9965         0.089614   
    160. A(C   8,H  12,H  19)           47.9407         0.089900   
    161. A(C   7,H  12,H  19)           74.9663         0.089765   
    162. A(H   3,H  12,H  19)           76.7829         0.089683   
    163. A(C   0,H  12,H  19)           81.1703         0.089659   
    164. A(H   3,H  12,C   7)           60.4342         0.089991   
    165. A(H   3,H  12,N  49)           34.5328         0.089702   
    166. A(C   0,H  12,N  49)           38.4598         0.089678   
    167. A(C   9,H  12,C  13)           17.7182         0.089682   
    168. A(C  11,H  12,C  13)           17.9861         0.089780   
    169. A(C   7,H  12,C  13)           31.7306         0.089850   
    170. A(C   6,H  12,C  13)           38.0475         0.090040   
    171. A(H   3,H  12,C  13)           75.9637         0.089758   
    172. A(C   6,H  12,C   8)           20.0881         0.090598   
    173. A(C   2,H  12,C  13)           72.1826         0.089834   
    174. A(C   0,H  12,C  13)           57.4652         0.089732   
    175. A(O  47,H  12,N  49)           15.1851         0.089745   
    176. A(H   3,H  12,C  11)           63.0444         0.089909   
    177. A(C   0,H  12,C   9)           50.2030         0.089767   
    178. A(C   2,H  12,C   9)           67.3147         0.089874   
    179. A(H  10,H  12,C  11)           50.9513         0.089390   
    180. A(C   9,H  12,C  11)           31.7327         0.089817   
    181. A(C   8,H  12,C  11)           18.6804         0.090198   
    182. A(C   8,H  12,C   9)           37.0867         0.090047   
    183. A(C   6,H  12,C  11)           34.0962         0.090246   
    184. A(C   2,H  12,C  11)           62.6826         0.090000   
    185. A(C   2,H  12,N  49)           39.4060         0.089772   
    186. A(H   3,H  12,H  10)           62.9039         0.089379   
    187. A(C   0,H  12,C  11)           51.8930         0.089877   
    188. A(C   8,H  12,C  13)           31.7062         0.089999   
    189. A(C   9,H  12,H  10)           27.0186         0.089341   
    190. A(C  11,C  13,O  15)          116.5954         0.430666   
    191. A(C   9,C  13,O  15)          123.8811         0.433829   
    192. A(H  12,C  13,O  15)          120.6974         0.103956   
    193. A(C  11,C  13,H  12)           72.1799         0.103859   
    194. A(C   9,C  13,H  12)           78.8520         0.103996   
    195. A(C   9,C  13,C  11)          119.5054         0.431586   
    196. A(C  13,O  15,H  16)          110.8890         0.370594   
    197. A(C  11,O  17,C  18)          113.9184         0.406783   
    198. A(H  20,C  18,H  21)          110.0148         0.291190   
    199. A(H  19,C  18,H  21)          110.5409         0.290471   
    200. A(O  17,C  18,H  21)          110.4996         0.333891   
    201. A(H  19,C  18,H  20)          110.0032         0.291004   
    202. A(O  17,C  18,H  20)          105.9370         0.334539   
    203. A(O  17,C  18,H  19)          109.7464         0.333666   
    204. A(H  12,H  19,C  18)          130.4853         0.099301   
    205. A(C  24,C  22,C  28)          126.5465         0.427506   
    206. A(H  23,C  22,C  28)          114.2804         0.337899   
    207. A(H  23,C  22,C  24)          119.1695         0.364557   
    208. A(H  25,C  24,C  26)          114.2755         0.337194   
    209. A(C  22,C  24,C  26)          123.7146         0.426116   
    210. A(C  22,C  24,H  25)          122.0062         0.364909   
    211. A(C  24,C  26,O  27)          120.4508         0.449479   
    212. A(O  27,C  26,C  44)          119.8295         0.432834   
    213. A(C  24,C  26,C  44)          119.7166         0.378250   
    214. A(C  29,C  28,C  30)          118.3768         0.429645   
    215. A(C  22,C  28,C  30)          122.8150         0.410916   
    216. A(C  22,C  28,C  29)          118.8068         0.412547   
    217. A(C  31,C  29,H  32)          119.3440         0.354428   
    218. A(C  28,C  29,H  32)          119.5935         0.352827   
    219. A(C  28,C  29,C  31)          121.0621         0.433449   
    220. A(C  33,C  30,H  34)          117.4667         0.356469   
    221. A(C  28,C  30,H  34)          121.5295         0.351612   
    222. A(C  28,C  30,C  33)          120.9997         0.434197   
    223. A(C  35,C  31,H  36)          119.4823         0.354072   
    224. A(C  29,C  31,H  36)          120.4705         0.354282   
    225. A(C  29,C  31,C  35)          120.0439         0.435265   
    226. A(C  35,C  33,O  39)          120.0438         0.424163   
    227. A(C  30,C  33,O  39)          119.8893         0.431058   
    228. A(C  30,C  33,C  35)          120.0158         0.433496   
    229. A(C  33,C  35,O  37)          117.1900         0.428614   
    230. A(C  31,C  35,O  37)          123.3060         0.432833   
    231. A(C  31,C  35,C  33)          119.5011         0.430746   
    232. A(C  35,O  37,H  38)          110.4652         0.369749   
    233. A(C  33,O  39,C  40)          113.3294         0.405728   
    234. A(H  41,C  40,H  43)          109.9101         0.289895   
    235. A(O  39,C  40,H  43)          110.8528         0.335272   
    236. A(H  41,C  40,H  42)          109.7080         0.290502   
    237. A(O  39,C  40,H  42)          106.4842         0.336016   
    238. A(O  39,C  40,H  41)          110.1379         0.334897   
    239. A(H  42,C  40,H  43)          109.6877         0.290809   
    240. A(H  45,C  44,H  46)          107.8344         0.289775   
    241. A(C  26,C  44,H  46)          107.2302         0.324286   
    242. A(C   4,C  44,H  46)          109.2936         0.325154   
    243. A(C  26,C  44,H  45)          110.0862         0.324426   
    244. A(C   4,C  44,H  45)          107.4956         0.325294   
    245. A(C   4,C  44,C  26)          114.7122         0.365911   
    246. A(H  12,O  47,N  49)           98.9461         0.109071   
    247. A(H  12,N  49,O  48)          153.1289         0.104029   
    248. A(H  12,N  49,O  47)           65.8689         0.104010   
    249. A(C   8,N  49,H  12)           58.6606         0.101505   
    250. A(O  47,N  49,O  48)          124.9506         0.493767   
    251. A(C   8,N  49,O  48)          117.4777         0.426230   
    252. A(C   8,N  49,O  47)          117.5710         0.425794   
    253. D(C   4,C   2,C   0,H   1)      3.2864         0.048156   
    254. D(H   3,C   2,C   0,H   1)   -174.5795         0.048156   
    255. D(H  12,C   2,C   0,C   6)     41.5989         0.048156   
    256. D(H   3,C   2,C   0,H  12)    -38.4447         0.048156   
    257. D(C   4,C   2,C   0,C   6)   -178.9798         0.048156   
    258. D(H  12,C   2,C   0,H   1)   -136.1348         0.048156   
    259. D(C   4,C   2,C   0,H  12)    139.4213         0.048156   
    260. D(H   3,C   2,C   0,C   6)      3.1542         0.048156   
    261. D(H  12,H   3,C   2,C   0)     54.3375         0.124775   
    262. D(H  12,H   3,C   2,C   4)   -123.7137         0.124775   
    263. D(O   5,C   4,C   2,H   3)     13.5220         0.014916   
    264. D(C  44,C   4,C   2,H  12)    137.1438         0.014916   
    265. D(O   5,C   4,C   2,H  12)    -43.5473         0.014916   
    266. D(C  44,C   4,C   2,H   3)   -165.7870         0.014916   
    267. D(O   5,C   4,C   2,C   0)   -164.4899         0.014916   
    268. D(C  44,C   4,C   2,C   0)     16.2011         0.014916   
    269. D(H  12,C   6,C   0,C   2)    -45.4397         0.016799   
    270. D(C   8,C   6,C   0,C   2)     39.2699         0.016799   
    271. D(C   8,C   6,C   0,H  12)     84.7096         0.016799   
    272. D(C   7,C   6,C   0,H  12)    -94.1166         0.016799   
    273. D(H  12,C   6,C   0,H   1)    132.4009         0.016799   
    274. D(C   8,C   6,C   0,H   1)   -142.8895         0.016799   
    275. D(C   7,C   6,C   0,H   1)     38.2843         0.016799   
    276. D(C   7,C   6,C   0,C   2)   -139.5562         0.016799   
    277. D(H  10,C   7,C   6,H  12)    -99.3214         0.030430   
    278. D(C   9,C   7,C   6,H  12)     79.8401         0.030430   
    279. D(H  12,C   7,C   6,C   8)    -81.0481         0.030430   
    280. D(C   9,C   7,C   6,C   8)     -1.2079         0.030430   
    281. D(H  10,C   7,C   6,C   8)    179.6305         0.030430   
    282. D(C   9,C   7,C   6,C   0)    177.7035         0.030430   
    283. D(H  12,C   7,C   6,C   0)     97.8634         0.030430   
    284. D(H  10,C   7,C   6,C   0)     -1.4581         0.030430   
    285. D(H  12,C   8,C   6,C   0)    -92.6776         0.030137   
    286. D(C  11,C   8,C   6,C   0)   -178.1164         0.030137   
    287. D(N  49,C   8,C   6,C   7)   -175.5616         0.030137   
    288. D(N  49,C   8,C   6,C   0)      5.5729         0.030137   
    289. D(C  11,C   8,C   6,C   7)      0.7492         0.030137   
    290. D(H  12,C   8,C   6,C   7)     86.1880         0.030137   
    291. D(C  11,C   8,C   6,H  12)    -85.4388         0.030137   
    292. D(N  49,C   8,C   6,H  12)     98.2504         0.030137   
    293. D(C  13,C   9,C   7,H  10)   -179.8660         0.032013   
    294. D(H  12,C   9,C   7,H  10)    110.9818         0.032013   
    295. D(C  13,C   9,C   7,C   6)      0.9766         0.032013   
    296. D(H  14,C   9,C   7,C   6)   -179.9907         0.032013   
    297. D(C  13,C   9,C   7,H  12)     69.1523         0.032013   
    298. D(H  14,C   9,C   7,H  12)   -111.8151         0.032013   
    299. D(H  12,C   9,C   7,C   6)    -68.1756         0.032013   
    300. D(H  14,C   9,C   7,H  10)     -0.8333         0.032013   
    301. D(H  12,H  10,C   7,C   6)     76.7968         0.127394   
    302. D(H  12,H  10,C   7,C   9)   -102.3826         0.127394   
    303. D(O  17,C  11,C   8,H  12)    107.3380         0.032538   
    304. D(C  13,C  11,C   8,H  12)    -77.5633         0.032538   
    305. D(O  17,C  11,C   8,C   6)   -175.1341         0.032538   
    306. D(C  13,C  11,C   8,N  49)    176.4396         0.032538   
    307. D(H  12,C  11,C   8,C   6)     77.5279         0.032538   
    308. D(H  12,C  11,C   8,N  49)   -105.9971         0.032538   
    309. D(O  17,C  11,C   8,N  49)      1.3409         0.032538   
    310. D(C  13,C  11,C   8,C   6)     -0.0355         0.032538   
    311. D(H   3,H  12,C   0,C   6)   -123.3519         0.001500   
    312. D(H   3,H  12,C   0,C   2)     19.1832         0.001500   
    313. D(C  13,H  12,C   2,C   0)    -31.6292         0.001500   
    314. D(C  13,H  12,C   2,H   3)    104.7340         0.001500   
    315. D(C   2,H  12,C   0,C   6)   -142.5351         0.001500   
    316. D(O  47,H  12,C   2,C   0)    -94.5440         0.001500   
    317. D(H   3,H  12,C   9,H  14)    149.0903         0.001500   
    318. D(C   0,H  12,C   9,H  14)    132.3457         0.001500   
    319. D(H   3,H  12,C   9,C   7)     34.7822         0.001500   
    320. D(H  19,H  12,C   2,H   3)     56.4219         0.001500   
    321. D(N  49,H  12,C   2,C   0)    -75.9254         0.001500   
    322. D(C   6,H  12,C   9,H  14)    145.2418         0.001500   
    323. D(C  11,H  12,C   8,N  49)    117.0910         0.001500   
    324. D(C  11,H  12,C   2,C   0)    -48.2057         0.001500   
    325. D(C  11,H  12,C   8,C   6)   -124.0483         0.001500   
    326. D(C   9,H  12,C   8,C  11)     60.6011         0.001500   
    327. D(H  10,H  12,C   8,C   6)    -23.3170         0.001500   
    328. D(H  10,H  12,C   2,C   0)     12.1322         0.001500   
    329. D(H   3,H  12,C   8,N  49)    -46.7941         0.001500   
    330. D(C   2,H  12,C   8,N  49)    -65.6531         0.001500   
    331. D(C   2,H  12,C   8,C  11)    177.2559         0.001500   
    332. D(H   3,H  12,C   8,C  11)   -163.8852         0.001500   
    333. D(C   7,H  12,C   2,C   4)   -138.8203         0.001500   
    334. D(C   7,H  12,C   2,H   3)    131.9738         0.001500   
    335. D(C   7,H  12,C   2,C   0)     -4.3894         0.001500   
    336. D(C   6,H  12,C   2,H   3)    115.7583         0.001500   
    337. D(H  19,H  12,C   7,C   6)     65.3459         0.001500   
    338. D(C   6,H  12,C   2,C   0)    -20.6049         0.001500   
    339. D(C  13,H  12,C   7,C   9)    -27.9355         0.001500   
    340. D(H   3,H  12,C   2,C   4)     89.2059         0.001500   
    341. D(C  13,H  12,C   7,C   6)     95.0097         0.001500   
    342. D(C  11,H  12,C   7,C   9)    -57.6700         0.001500   
    343. D(C   0,H  12,C   2,C   4)   -134.4310         0.001500   
    344. D(H  10,H  12,C   7,C   9)    121.6983         0.001500   
    345. D(C   9,H  12,C   7,H  10)   -121.6983         0.001500   
    346. D(N  49,H  12,C   0,C   6)    -60.6393         0.001500   
    347. D(H  10,H  12,C   7,C   6)   -115.3566         0.001500   
    348. D(C   9,H  12,C   7,C   6)    122.9452         0.001500   
    349. D(C   6,H  12,C   2,C   4)   -155.0359         0.001500   
    350. D(O  47,H  12,C   7,C   6)     25.5810         0.001500   
    351. D(O  47,H  12,C   7,H  10)    140.9375         0.001500   
    352. D(N  49,H  12,C   7,C   9)   -100.2103         0.001500   
    353. D(C   8,H  12,C   2,C   0)    -49.1946         0.001500   
    354. D(C   8,H  12,C   2,H   3)     87.1685         0.001500   
    355. D(C   8,H  12,C   7,C   9)    -88.9373         0.001500   
    356. D(H   3,H  12,C   8,C   6)     72.0665         0.001500   
    357. D(C   9,H  12,C   2,H   3)    122.9098         0.001500   
    358. D(C   6,H  12,C   8,N  49)   -118.8607         0.001500   
    359. D(C   9,H  12,C   2,C   4)   -147.8843         0.001500   
    360. D(C  13,H  12,C   8,C  11)     30.3960         0.001500   
    361. D(C   9,H  12,C   8,N  49)    177.6921         0.001500   
    362. D(H  10,H  12,C   2,C   4)   -122.2988         0.001500   
    363. D(C   6,H  12,C   7,C   9)   -122.9452         0.001500   
    364. D(C  11,H  12,C   2,H   3)     88.1574         0.001500   
    365. D(C  13,H  12,C   8,N  49)    147.4871         0.001500   
    366. D(C   7,H  12,C   9,C  13)   -125.9450         0.001500   
    367. D(O  47,H  12,C   2,C   4)    131.0250         0.001500   
    368. D(H   3,H  12,C   9,C  13)    -91.1628         0.001500   
    369. D(C   2,H  12,C   0,H   1)    118.0859         0.001500   
    370. D(H  19,H  12,C   2,C   4)    145.6278         0.001500   
    371. D(C   2,H  12,C   9,C  13)   -102.6286         0.001500   
    372. D(C   0,H  12,C   9,C   7)     18.0375         0.001500   
    373. D(C  13,H  12,C   2,C   4)   -166.0601         0.001500   
    374. D(O  47,H  12,C   8,C  11)   -102.9297         0.001500   
    375. D(H  19,H  12,C   6,C   0)    131.2519         0.001500   
    376. D(N  49,H  12,C   2,H   3)     60.4377         0.001500   
    377. D(N  49,H  12,C   2,C   4)    149.6436         0.001500   
    378. D(C   0,H  12,H   3,C   2)    -25.8975         0.001500   
    379. D(N  49,H  12,C   0,H   1)   -160.0183         0.001500   
    380. D(H   3,H  12,C   7,C   6)    -17.7722         0.001500   
    381. D(C   2,H  12,C   7,H  10)     86.3175         0.001500   
    382. D(O  47,H  12,C   6,C   8)    -31.6898         0.001500   
    383. D(C   0,H  12,C   7,C   9)   -154.4043         0.001500   
    384. D(C  13,H  12,C   0,C   6)      1.1514         0.001500   
    385. D(N  49,H  12,C   6,C   8)    -30.3792         0.001500   
    386. D(H  19,H  12,C   0,H   1)   -144.1587         0.001500   
    387. D(N  49,H  12,C   6,C   0)     92.8730         0.001500   
    388. D(O  47,H  12,C   6,C   7)   -148.2331         0.001500   
    389. D(O  47,H  12,C   0,H   1)   -171.3798         0.001500   
    390. D(H  19,H  12,C   6,C   8)      7.9997         0.001500   
    391. D(C   2,H  12,C   7,C   6)    -29.0390         0.001500   
    392. D(H   3,H  12,C   7,H  10)     97.5844         0.001500   
    393. D(C  11,H  12,C   0,C   6)    -19.8685         0.001500   
    394. D(C  13,H  12,C   6,C   7)    -58.2204         0.001500   
    395. D(O  47,H  12,C   0,C   6)    -72.0008         0.001500   
    396. D(C   0,H  12,C   7,H  10)     83.8974         0.001500   
    397. D(H   3,H  12,C   7,C   9)   -140.7173         0.001500   
    398. D(C  11,H  12,C   6,C   8)     28.2552         0.001500   
    399. D(C  11,H  12,C   0,H   1)   -119.2474         0.001500   
    400. D(N  49,H  12,C   0,C   2)     81.8957         0.001500   
    401. D(H  10,H  12,C   6,C   8)    142.5499         0.001500   
    402. D(H  10,H  12,C   6,C   7)     26.0067         0.001500   
    403. D(H  10,H  12,C   0,C   6)     54.4362         0.001500   
    404. D(H  10,H  12,C   6,C   0)    -94.1979         0.001500   
    405. D(C  13,H  12,C  11,C   8)   -120.5506         0.001500   
    406. D(H  10,H  12,C  11,O  17)   -177.1469         0.001500   
    407. D(C  11,H  12,C   6,C   0)    151.5074         0.001500   
    408. D(C  11,H  12,C   6,C   7)    -88.2881         0.001500   
    409. D(C  11,H  12,C   0,C   2)    122.6666         0.001500   
    410. D(C  13,H  12,C   6,C   0)   -178.4249         0.001500   
    411. D(C   9,H  12,C   6,C   8)     87.7892         0.001500   
    412. D(C  13,H  12,C   6,C   8)     58.3229         0.001500   
    413. D(C   6,H  12,C   7,H  10)    115.3566         0.001500   
    414. D(H  19,H  12,C   6,C   7)   -108.5436         0.001500   
    415. D(C  13,H  12,C   0,C   2)    143.6865         0.001500   
    416. D(O  47,H  12,C   6,C   0)     91.5624         0.001500   
    417. D(O  47,H  12,C   0,C   2)     70.5343         0.001500   
    418. D(C   2,H  12,C   7,C   9)   -151.9842         0.001500   
    419. D(H  10,H  12,C   0,C   2)   -163.0287         0.001500   
    420. D(H  19,H  12,C   0,C   6)    -44.7797         0.001500   
    421. D(C   0,H  12,C   7,C   6)    -31.4592         0.001500   
    422. D(H  19,H  12,C   0,C   2)     97.7554         0.001500   
    423. D(C   9,H  12,C   6,C   7)    -28.7541         0.001500   
    424. D(N  49,H  12,C   6,C   7)   -146.9225         0.001500   
    425. D(C   9,H  12,C   6,C   0)   -148.9586         0.001500   
    426. D(H  10,H  12,C   0,H   1)    -44.9428         0.001500   
    427. D(C   8,H  12,C   6,C   7)   -116.5433         0.001500   
    428. D(C   7,H  12,C  11,O  17)   -176.9658         0.001500   
    429. D(C   8,H  12,C   6,C   0)    123.2522         0.001500   
    430. D(C   9,H  12,C   0,C   6)     21.2415         0.001500   
    431. D(C   7,H  12,C   6,C   8)    116.5433         0.001500   
    432. D(C  13,H  12,C   0,H   1)    -98.2276         0.001500   
    433. D(C   7,H  12,C   6,C   0)   -120.2045         0.001500   
    434. D(C   9,H  12,C   0,C   2)    163.7766         0.001500   
    435. D(C   8,H  12,C   7,H  10)    149.3644         0.001500   
    436. D(C  11,H  12,C   7,H  10)   -179.3682         0.001500   
    437. D(H   3,H  12,C   6,C   8)    -86.6869         0.001500   
    438. D(C   0,H  12,C   2,H   3)    136.3631         0.001500   
    439. D(H   3,H  12,C  11,C  13)    133.2558         0.001500   
    440. D(C  11,H  12,C   7,C   6)     65.2752         0.001500   
    441. D(H   3,H  12,C   2,C   0)   -136.3631         0.001500   
    442. D(C  13,H  12,C   7,H  10)   -149.6338         0.001500   
    443. D(H   3,H  12,C  11,C   8)     12.7052         0.001500   
    444. D(H   3,H  12,C   6,C   7)    156.7698         0.001500   
    445. D(C   9,H  12,C   0,H   1)    -78.1374         0.001500   
    446. D(H   3,H  12,C   6,C   0)     36.5653         0.001500   
    447. D(H  19,H  12,C   7,C   9)    -57.5993         0.001500   
    448. D(H  19,H  12,C   7,H  10)   -179.2976         0.001500   
    449. D(C   2,H  12,C   6,C   8)   -104.4962         0.001500   
    450. D(O  47,H  12,C   7,C   9)    -97.3642         0.001500   
    451. D(C   8,H  12,C   0,C   6)    -30.3819         0.001500   
    452. D(N  49,H  12,C   7,C   6)     22.7348         0.001500   
    453. D(C   2,H  12,C   6,C   7)    138.9605         0.001500   
    454. D(N  49,H  12,C   7,H  10)    138.0914         0.001500   
    455. D(C   0,H  12,C   8,C   6)     29.3192         0.001500   
    456. D(C   0,H  12,C   8,C  11)    153.3675         0.001500   
    457. D(C   0,H  12,C   8,N  49)    -89.5415         0.001500   
    458. D(C   2,H  12,C   8,C   6)     53.2076         0.001500   
    459. D(O  47,H  12,H  10,C   7)    -36.2127         0.001500   
    460. D(C   2,H  12,C   6,C   0)     18.7560         0.001500   
    461. D(C   8,H  12,C   2,C   4)    176.3744         0.001500   
    462. D(C   9,H  12,C   2,C   0)    -13.4533         0.001500   
    463. D(C   8,H  12,C   0,C   2)    112.1532         0.001500   
    464. D(C   6,H  12,C   8,C  11)    124.0483         0.001500   
    465. D(C   0,H  12,C   6,C   8)   -123.2522         0.001500   
    466. D(C   7,H  12,C   8,C   6)    -32.5791         0.001500   
    467. D(C   7,H  12,C   8,C  11)     91.4692         0.001500   
    468. D(C   7,H  12,C   8,N  49)   -151.4398         0.001500   
    469. D(C   9,H  12,C   8,C   6)    -63.4472         0.001500   
    470. D(H  10,H  12,C   8,C  11)    100.7313         0.001500   
    471. D(C   0,H  12,C   6,C   7)    120.2045         0.001500   
    472. D(H  10,H  12,C   2,H   3)    148.4953         0.001500   
    473. D(C   8,H  12,C   0,H   1)   -129.7608         0.001500   
    474. D(H  10,H  12,C   8,N  49)   -142.1777         0.001500   
    475. D(N  49,H  12,H   3,C   2)   -103.0796         0.001500   
    476. D(H   3,H  12,H  10,C   7)    -75.5755         0.001500   
    477. D(C   2,H  12,H  10,C   7)    -83.2864         0.001500   
    478. D(C  13,H  12,C   8,C   6)    -93.6523         0.001500   
    479. D(C  11,H  12,C   2,C   4)    177.3633         0.001500   
    480. D(H  19,H  12,C   8,C   6)   -170.0066         0.001500   
    481. D(H  19,H  12,C   8,C  11)    -45.9583         0.001500   
    482. D(H  19,H  12,C   8,N  49)     71.1327         0.001500   
    483. D(O  47,H  12,C   8,C   6)    133.0220         0.001500   
    484. D(C   6,H  12,C   9,C  13)    -95.0113         0.001500   
    485. D(C   6,H  12,C   9,C   7)     30.9337         0.001500   
    486. D(O  47,H  12,C   2,H   3)     41.8191         0.001500   
    487. D(N  49,H  12,C   8,C  11)   -117.0910         0.001500   
    488. D(C   2,H  12,C   9,H  14)    137.6245         0.001500   
    489. D(C   0,H  12,C   9,C  13)   -107.9074         0.001500   
    490. D(C   2,H  12,C   9,C   7)     23.3164         0.001500   
    491. D(O  47,H  12,H   3,C   2)   -127.8015         0.001500   
    492. D(C   7,H  12,C   0,C   6)     31.2618         0.001500   
    493. D(H  19,H  12,H   3,C   2)   -121.6788         0.001500   
    494. D(H  19,H  12,C   2,C   0)    -79.9413         0.001500   
    495. D(H   3,H  12,C   0,H   1)    137.2691         0.001500   
    496. D(N  49,H  12,C   8,C   6)    118.8607         0.001500   
    497. D(O  47,H  12,C   8,N  49)     14.1614         0.001500   
    498. D(C  13,H  12,H   3,C   2)    -71.6348         0.001500   
    499. D(C   7,H  12,C   0,C   2)    173.7969         0.001500   
    500. D(C  11,H  12,H   3,C   2)    -85.0386         0.001500   
    501. D(C   7,H  12,C   9,H  14)    114.3081         0.001500   
    502. D(C   8,H  12,C   9,C   7)     65.6245         0.001500   
    503. D(C   8,H  12,C   9,C  13)    -60.3205         0.001500   
    504. D(C   8,H  12,C   9,H  14)    179.9327         0.001500   
    505. D(H  10,H  12,C   9,C   7)    -24.6419         0.001500   
    506. D(H  10,H  12,C   9,C  13)   -150.5869         0.001500   
    507. D(H  19,H  12,C   9,H  14)   -128.8956         0.001500   
    508. D(H  10,H  12,H   3,C   2)    -27.2949         0.001500   
    509. D(C   7,H  12,C   0,H   1)    -68.1172         0.001500   
    510. D(H  19,H  12,C   9,C  13)     -9.1487         0.001500   
    511. D(H  19,H  12,C   9,C   7)    116.7963         0.001500   
    512. D(C   9,H  12,H   3,C   2)    -53.3563         0.001500   
    513. D(C  13,H  12,C   9,H  14)   -119.7469         0.001500   
    514. D(C  13,H  12,C   9,C   7)    125.9450         0.001500   
    515. D(C   8,H  12,H   3,C   2)    -79.3146         0.001500   
    516. D(O  47,H  12,C   9,C   7)     74.9890         0.001500   
    517. D(O  47,H  12,C   9,C  13)    -50.9560         0.001500   
    518. D(O  47,H  12,C   9,H  14)   -170.7029         0.001500   
    519. D(N  49,H  12,C   9,C   7)     66.5037         0.001500   
    520. D(N  49,H  12,C   9,C  13)    -59.4413         0.001500   
    521. D(N  49,H  12,C   9,H  14)   -179.1882         0.001500   
    522. D(C   0,H  12,H  10,C   7)    -76.7680         0.001500   
    523. D(C   6,H  12,C   0,C   2)    142.5351         0.001500   
    524. D(C  11,H  12,C   9,H  14)   -148.0252         0.001500   
    525. D(C   6,H  12,H  10,C   7)    -40.6388         0.001500   
    526. D(C   8,H  12,H  10,C   7)    -23.4022         0.001500   
    527. D(C   9,H  12,H  10,C   7)     35.4194         0.001500   
    528. D(C  11,H  12,H  10,C   7)      0.5018         0.001500   
    529. D(C  13,H  12,H  10,C   7)     22.8241         0.001500   
    530. D(H  19,H  12,H  10,C   7)      0.6789         0.001500   
    531. D(C  11,H  12,C   9,C  13)    -28.2783         0.001500   
    532. D(N  49,H  12,H  10,C   7)    -36.2167         0.001500   
    533. D(C   0,H  12,C  11,C   8)    -18.8768         0.001500   
    534. D(C   0,H  12,C  11,C  13)    101.6738         0.001500   
    535. D(C   0,H  12,C  11,O  17)   -132.9376         0.001500   
    536. D(C   2,H  12,C  11,C   8)     -2.1459         0.001500   
    537. D(C   2,H  12,C  11,C  13)    118.4047         0.001500   
    538. D(C   2,H  12,C  11,O  17)   -116.2067         0.001500   
    539. D(C   7,H  12,H   3,C   2)    -41.6468         0.001500   
    540. D(C  11,H  12,C   9,C   7)     97.6666         0.001500   
    541. D(H   3,H  12,C  11,O  17)   -101.3556         0.001500   
    542. D(C   6,H  12,C  11,C   8)    -30.5078         0.001500   
    543. D(C   6,H  12,C  11,C  13)     90.0428         0.001500   
    544. D(C   6,H  12,C  11,O  17)   -144.5686         0.001500   
    545. D(C   7,H  12,C  11,C   8)    -62.9050         0.001500   
    546. D(C   7,H  12,C  11,C  13)     57.6456         0.001500   
    547. D(H  10,H  12,C   9,H  14)     89.6662         0.001500   
    548. D(C   8,H  12,C  11,C  13)    120.5506         0.001500   
    549. D(C   8,H  12,C  11,O  17)   -114.0608         0.001500   
    550. D(C   9,H  12,C  11,C   8)    -92.7157         0.001500   
    551. D(C   9,H  12,C  11,C  13)     27.8349         0.001500   
    552. D(C   9,H  12,C  11,O  17)    153.2235         0.001500   
    553. D(H  10,H  12,C  11,C   8)    -63.0861         0.001500   
    554. D(H  10,H  12,C  11,C  13)     57.4645         0.001500   
    555. D(C   6,H  12,H   3,C   2)    -50.2707         0.001500   
    556. D(C   6,H  12,C   0,H   1)    -99.3790         0.001500   
    557. D(C  13,H  12,C  11,O  17)    125.3886         0.001500   
    558. D(H  19,H  12,C  11,C   8)    117.2088         0.001500   
    559. D(H  19,H  12,C  11,C  13)   -122.2406         0.001500   
    560. D(H  19,H  12,C  11,O  17)      3.1480         0.001500   
    561. D(O  47,H  12,C  11,C   8)     53.5938         0.001500   
    562. D(O  47,H  12,C  11,C  13)    174.1444         0.001500   
    563. D(O  47,H  12,C  11,O  17)    -60.4671         0.001500   
    564. D(N  49,H  12,C  11,C   8)     32.4183         0.001500   
    565. D(N  49,H  12,C  11,C  13)    152.9689         0.001500   
    566. D(N  49,H  12,C  11,O  17)    -81.6426         0.001500   
    567. D(C   8,H  12,C   7,C   6)     34.0078         0.001500   
    568. D(O  15,C  13,H  12,N  49)   -129.4137         0.001500   
    569. D(O  15,C  13,H  12,O  47)   -115.3098         0.001500   
    570. D(O  15,C  13,H  12,C  11)   -110.8569         0.001500   
    571. D(O  15,C  13,H  12,H  10)    141.9380         0.001500   
    572. D(O  15,C  13,H  12,C   9)    122.9420         0.001500   
    573. D(O  15,C  13,H  12,C   7)    151.3885         0.001500   
    574. D(O  15,C  13,H  12,C   6)   -176.3034         0.001500   
    575. D(O  15,C  13,H  12,H   3)   -152.8590         0.001500   
    576. D(O  15,C  13,H  12,C   2)   -166.0305         0.001500   
    577. D(O  15,C  13,H  12,C   0)   -176.9246         0.001500   
    578. D(C  11,C  13,H  12,N  49)    -18.5568         0.001500   
    579. D(C  11,C  13,H  12,O  47)     -4.4529         0.001500   
    580. D(C  11,C  13,H  12,H  10)   -107.2051         0.001500   
    581. D(C  11,C  13,H  12,C   9)   -126.2011         0.001500   
    582. D(C  11,C  13,H  12,C   8)    -31.6561         0.001500   
    583. D(C  11,C  13,H  12,C   6)    -65.4465         0.001500   
    584. D(C  11,C  13,H  12,H   3)    -42.0021         0.001500   
    585. D(C  11,C  13,H  12,C   2)    -55.1737         0.001500   
    586. D(C   9,C  13,H  12,N  49)    107.6443         0.001500   
    587. D(C   9,C  13,H  12,O  47)    121.7482         0.001500   
    588. D(C   9,C  13,H  12,H  19)    168.8262         0.001500   
    589. D(C   9,C  13,H  12,C  11)    126.2011         0.001500   
    590. D(C   9,C  13,H  12,H  10)     18.9960         0.001500   
    591. D(C   9,C  13,H  12,C   8)     94.5450         0.001500   
    592. D(C   9,C  13,H  12,C   7)     28.4465         0.001500   
    593. D(C   9,C  13,H  12,C   6)     60.7546         0.001500   
    594. D(C  11,C  13,H  12,C   0)    -66.0678         0.001500   
    595. D(C   9,C  13,H  12,H   3)     84.1990         0.001500   
    596. D(C   9,C  13,H  12,C   2)     71.0275         0.001500   
    597. D(C   9,C  13,H  12,C   0)     60.1334         0.001500   
    598. D(C  11,C  13,H  12,C   7)    -97.7546         0.001500   
    599. D(H  12,C  13,C  11,O  17)   -119.7780         0.028758   
    600. D(H  12,C  13,C  11,C   8)     65.2140         0.028758   
    601. D(O  15,C  13,C  11,H  12)    116.0238         0.028758   
    602. D(C  11,C  13,H  12,H  19)     42.6250         0.001500   
    603. D(O  15,C  13,C  11,O  17)     -3.7542         0.028758   
    604. D(O  15,C  13,C  11,C   8)   -178.7622         0.028758   
    605. D(C   9,C  13,C  11,H  12)    -65.4643         0.028758   
    606. D(C   9,C  13,C  11,O  17)    174.7577         0.028758   
    607. D(C   9,C  13,C  11,C   8)     -0.2503         0.028758   
    608. D(H  12,C  13,C   9,H  14)    118.7793         0.031368   
    609. D(H  12,C  13,C   9,C   7)    -62.1793         0.031368   
    610. D(O  15,C  13,H  12,C   8)   -142.5130         0.001500   
    611. D(O  15,C  13,C   9,H  12)   -119.6314         0.031368   
    612. D(O  15,C  13,C   9,H  14)     -0.8521         0.031368   
    613. D(O  15,C  13,C   9,C   7)    178.1893         0.031368   
    614. D(O  15,C  13,H  12,H  19)    -68.2319         0.001500   
    615. D(C  11,C  13,C   9,H  12)     61.9714         0.031368   
    616. D(C  11,C  13,C   9,H  14)   -179.2493         0.031368   
    617. D(C  11,C  13,C   9,C   7)     -0.2079         0.031368   
    618. D(H  16,O  15,C  13,H  12)    -97.2040         0.033144   
    619. D(H  16,O  15,C  13,C  11)    178.5797         0.033144   
    620. D(H  16,O  15,C  13,C   9)      0.1397         0.033144   
    621. D(C  18,O  17,C  11,H  12)    -29.6057         0.031195   
    622. D(C  18,O  17,C  11,C  13)     76.9868         0.031195   
    623. D(C  18,O  17,C  11,C   8)   -108.0948         0.031195   
    624. D(H  21,C  18,O  17,C  11)    -60.5969         0.016893   
    625. D(H  20,C  18,O  17,C  11)   -179.7255         0.016893   
    626. D(H  19,C  18,O  17,C  11)     61.5580         0.016893   
    627. D(H  12,H  19,C  18,H  21)     49.8515         0.119690   
    628. D(H  12,H  19,C  18,H  20)    171.5446         0.119690   
    629. D(H  12,H  19,C  18,O  17)    -72.2788         0.119690   
    630. D(C  18,H  19,H  12,N  49)     86.8809         0.001500   
    631. D(C  18,H  19,H  12,O  47)    107.9221         0.001500   
    632. D(C  18,H  19,H  12,C  13)     18.9673         0.001500   
    633. D(C  18,H  19,H  12,C  11)     39.3602         0.001500   
    634. D(C  18,H  19,H  12,H  10)     39.1311         0.001500   
    635. D(C  18,H  19,H  12,C   9)     22.6688         0.001500   
    636. D(C  18,H  19,H  12,C   8)     61.9206         0.001500   
    637. D(C  18,H  19,H  12,C   7)     39.2875         0.001500   
    638. D(C  18,H  19,H  12,C   6)     58.2294         0.001500   
    639. D(C  18,H  19,H  12,H   3)    101.7887         0.001500   
    640. D(C  18,H  19,H  12,C   2)     90.5077         0.001500   
    641. D(C  18,H  19,H  12,C   0)     72.8850         0.001500   
    642. D(C  26,C  24,C  22,C  28)   -179.0274         0.039419   
    643. D(C  26,C  24,C  22,H  23)      1.7145         0.039419   
    644. D(H  25,C  24,C  22,C  28)      1.7112         0.039419   
    645. D(H  25,C  24,C  22,H  23)   -177.5469         0.039419   
    646. D(C  44,C  26,C  24,H  25)   -170.3090         0.014794   
    647. D(C  44,C  26,C  24,C  22)     10.3781         0.014794   
    648. D(O  27,C  26,C  24,H  25)      9.0463         0.014794   
    649. D(O  27,C  26,C  24,C  22)   -170.2667         0.014794   
    650. D(C  30,C  28,C  22,C  24)      4.7748         0.015339   
    651. D(C  30,C  28,C  22,H  23)   -175.9359         0.015339   
    652. D(C  29,C  28,C  22,C  24)   -175.6651         0.015339   
    653. D(C  29,C  28,C  22,H  23)      3.6242         0.015339   
    654. D(H  32,C  29,C  28,C  30)    179.6673         0.025641   
    655. D(H  32,C  29,C  28,C  22)      0.0875         0.025641   
    656. D(C  31,C  29,C  28,C  30)     -0.0899         0.025641   
    657. D(C  31,C  29,C  28,C  22)   -179.6697         0.025641   
    658. D(H  34,C  30,C  28,C  29)   -179.2251         0.024461   
    659. D(H  34,C  30,C  28,C  22)      0.3368         0.024461   
    660. D(C  33,C  30,C  28,C  29)      0.0118         0.024461   
    661. D(C  33,C  30,C  28,C  22)    179.5737         0.024461   
    662. D(H  36,C  31,C  29,H  32)     -0.1712         0.027136   
    663. D(H  36,C  31,C  29,C  28)    179.5866         0.027136   
    664. D(C  35,C  31,C  29,H  32)   -179.5016         0.027136   
    665. D(C  35,C  31,C  29,C  28)      0.2562         0.027136   
    666. D(O  39,C  33,C  30,H  34)      1.7671         0.029047   
    667. D(O  39,C  33,C  30,C  28)   -177.4998         0.029047   
    668. D(C  35,C  33,C  30,H  34)    179.1679         0.029047   
    669. D(C  35,C  33,C  30,C  28)     -0.0990         0.029047   
    670. D(O  37,C  35,C  33,O  39)     -1.7354         0.024004   
    671. D(O  37,C  35,C  33,C  30)   -179.1322         0.024004   
    672. D(C  31,C  35,C  33,O  39)    177.6591         0.024004   
    673. D(C  31,C  35,C  33,C  30)      0.2623         0.024004   
    674. D(O  37,C  35,C  31,H  36)     -0.3208         0.026935   
    675. D(O  37,C  35,C  31,C  29)    179.0162         0.026935   
    676. D(C  33,C  35,C  31,H  36)   -179.6763         0.026935   
    677. D(C  33,C  35,C  31,C  29)     -0.3393         0.026935   
    678. D(H  38,O  37,C  35,C  33)    179.9709         0.029112   
    679. D(H  38,O  37,C  35,C  31)      0.6014         0.029112   
    680. D(C  40,O  39,C  33,C  35)     77.9457         0.025700   
    681. D(C  40,O  39,C  33,C  30)   -104.6543         0.025700   
    682. D(H  43,C  40,O  39,C  33)    -59.9355         0.017949   
    683. D(H  42,C  40,O  39,C  33)   -179.1894         0.017949   
    684. D(H  41,C  40,O  39,C  33)     61.9231         0.017949   
    685. D(H  46,C  44,C  26,O  27)     -3.7253         0.010681   
    686. D(H  45,C  44,C  26,O  27)    113.3288         0.010681   
    687. D(H  45,C  44,C  26,C  24)    -67.3119         0.010681   
    688. D(C   4,C  44,C  26,O  27)   -125.2948         0.010681   
    689. D(C   4,C  44,C  26,C  24)     54.0646         0.010681   
    690. D(H  46,C  44,C   4,O   5)    109.9294         0.011013   
    691. D(H  46,C  44,C   4,C   2)    -70.7671         0.011013   
    692. D(H  45,C  44,C   4,O   5)     -6.8513         0.011013   
    693. D(H  45,C  44,C   4,C   2)    172.4522         0.011013   
    694. D(H  46,C  44,C  26,C  24)    175.6341         0.010681   
    695. D(C  26,C  44,C   4,O   5)   -129.6342         0.011013   
    696. D(C  26,C  44,C   4,C   2)     49.6693         0.011013   
    697. D(N  49,O  47,H  12,C  13)    -43.7463         0.001500   
    698. D(N  49,O  47,H  12,C  11)    -45.8698         0.001500   
    699. D(N  49,O  47,H  12,H  10)     -0.0131         0.001500   
    700. D(N  49,O  47,H  12,C   9)    -27.6042         0.001500   
    701. D(N  49,O  47,H  12,C   8)    -17.0215         0.001500   
    702. D(N  49,O  47,H  12,C   7)     -8.3546         0.001500   
    703. D(N  49,O  47,H  12,C   6)      2.7163         0.001500   
    704. D(N  49,O  47,H  12,H   3)     64.8350         0.001500   
    705. D(N  49,O  47,H  12,C   2)     50.6918         0.001500   
    706. D(N  49,O  47,H  12,H  19)   -105.5658         0.001500   
    707. D(N  49,O  47,H  12,C   0)     27.8894         0.001500   
    708. D(O  48,N  49,O  47,H  12)   -151.5723         0.095261   
    709. D(C   8,N  49,O  47,H  12)     28.7380         0.095261   
    710. D(O  48,N  49,H  12,O  47)    120.3122         0.001500   
    711. D(O  48,N  49,H  12,H  19)    178.9067         0.001500   
    712. D(O  48,N  49,H  12,C  11)   -122.8427         0.001500   
    713. D(O  48,N  49,H  12,H  10)    -59.7024         0.001500   
    714. D(O  48,N  49,H  12,C   9)    -91.3139         0.001500   
    715. D(O  48,N  49,H  12,C   7)    -69.5835         0.001500   
    716. D(O  48,N  49,H  12,C   6)    -55.9654         0.001500   
    717. D(O  48,N  49,H  12,H   3)     25.1258         0.001500   
    718. D(O  48,N  49,H  12,C   0)    -23.6901         0.001500   
    719. D(O  47,N  49,H  12,H  19)     58.5945         0.001500   
    720. D(O  47,N  49,H  12,C  13)    127.7284         0.001500   
    721. D(O  47,N  49,H  12,C  11)    116.8451         0.001500   
    722. D(O  47,N  49,H  12,H  10)    179.9854         0.001500   
    723. D(O  47,N  49,H  12,C   9)    148.3739         0.001500   
    724. D(O  47,N  49,H  12,C   8)    150.0656         0.001500   
    725. D(O  47,N  49,H  12,C   7)    170.1043         0.001500   
    726. D(O  47,N  49,H  12,C   6)   -176.2776         0.001500   
    727. D(O  47,N  49,H  12,H   3)    -95.1864         0.001500   
    728. D(O  47,N  49,H  12,C   2)   -115.7187         0.001500   
    729. D(O  47,N  49,H  12,C   0)   -144.0023         0.001500   
    730. D(C   8,N  49,H  12,O  47)   -150.0656         0.001500   
    731. D(C   8,N  49,H  12,H  19)    -91.4711         0.001500   
    732. D(C   8,N  49,H  12,C  13)    -22.3372         0.001500   
    733. D(C   8,N  49,H  12,C  11)    -33.2205         0.001500   
    734. D(C   8,N  49,H  12,H  10)     29.9198         0.001500   
    735. D(C   8,N  49,H  12,C   9)     -1.6917         0.001500   
    736. D(C   8,N  49,H  12,C   7)     20.0387         0.001500   
    737. D(C   8,N  49,H  12,C   6)     33.6568         0.001500   
    738. D(O  48,N  49,H  12,C   2)      4.5935         0.001500   
    739. D(C   8,N  49,H  12,H   3)    114.7480         0.001500   
    740. D(C   8,N  49,H  12,C   2)     94.2157         0.001500   
    741. D(C   8,N  49,H  12,C   0)     65.9321         0.001500   
    742. D(O  48,N  49,H  12,C   8)    -89.6222         0.001500   
    743. D(H  12,N  49,C   8,C  11)     99.7467         0.015150   
    744. D(H  12,N  49,C   8,C   6)    -83.6477         0.015150   
    745. D(O  48,N  49,C   8,H  12)    149.3732         0.015150   
    746. D(O  48,N  49,H  12,C  13)   -111.9594         0.001500   
    747. D(O  48,N  49,C   8,C  11)   -110.8801         0.015150   
    748. D(O  48,N  49,C   8,C   6)     65.7255         0.015150   
    749. D(O  47,N  49,C   8,H  12)    -30.9134         0.015150   
    750. D(O  47,N  49,C   8,C  11)     68.8332         0.015150   
    751. D(O  47,N  49,C   8,C   6)   -114.5611         0.015150   
    -----------------------------------------------------------------

Number of atoms                         .... 50
Number of degrees of freedom            .... 751

         *************************************************************
         *                GEOMETRY OPTIMIZATION CYCLE   1            *
         *************************************************************
---------------------------------
CARTESIAN COORDINATES (ANGSTROEM)
---------------------------------
  C      1.868737    1.485878    1.561272
  H      1.706137    2.549130    1.716787
  C      1.166009    0.586986    2.258744
  H      1.366246   -0.479103    2.188541
  C      0.094990    0.944882    3.214644
  O     -0.306896    0.119148    4.015521
  C      2.923725    1.152832    0.589233
  C      4.089871    1.916285    0.538370
  C      2.848711    0.078698   -0.299245
  C      5.125458    1.603960   -0.331922
  H      4.191417    2.765281    1.205776
  C      3.855964   -0.259885   -1.189454
  H      4.779661   -1.557943    2.828665
  C      5.019424    0.522285   -1.199862
  H      6.023379    2.214134   -0.352269
  O      5.972191    0.179758   -2.099162
  H      6.724626    0.783385   -2.050489
  O      3.659502   -1.262871   -2.089441
  C      4.402952   -2.463166   -1.798447
  H      4.091552   -2.864773   -0.832298
  H      4.156597   -3.166343   -2.590421
  H      5.474185   -2.258855   -1.800602
  C     -2.513358    0.921818    1.480570
  H     -2.390689    0.659097    2.528913
  C     -1.855768    1.984955    0.991183
  H     -1.974719    2.311800   -0.037784
  C     -0.935903    2.811676    1.785294
  O     -0.506030    3.864282    1.337691
  C     -3.426128    0.045340    0.742773
  C     -4.097039   -0.964615    1.436282
  C     -3.650772    0.169657   -0.636424
  C     -4.968273   -1.826840    0.781814
  H     -3.933664   -1.082082    2.503131
  C     -4.513371   -0.683197   -1.296197
  H     -3.147272    0.927860   -1.227297
  C     -5.180356   -1.696097   -0.586171
  H     -5.479937   -2.613242    1.329412
  O     -6.001231   -2.513446   -1.295026
  H     -6.406738   -3.170258   -0.714911
  O     -4.677333   -0.573996   -2.655941
  C     -5.915744    0.042999   -3.030651
  H     -5.958515    1.065823   -2.645604
  H     -5.935869    0.059289   -4.118620
  H     -6.765275   -0.531348   -2.655576
  C     -0.503892    2.343695    3.172722
  H     -1.356976    2.356443    3.855619
  H      0.232006    3.063031    3.542631
  O      1.681591   -1.895526   -0.045700
  O      0.617636   -0.184358   -0.815028
  N      1.617459   -0.730901   -0.392456

----------------------------
CARTESIAN COORDINATES (A.U.)
----------------------------
  NO LB      ZA    FRAG     MASS         X           Y           Z
   0 C     6.0000    0    12.011    3.531401    2.807902    2.950377
   1 H     1.0000    0     1.008    3.224132    4.817158    3.244257
   2 C     6.0000    0    12.011    2.203438    1.109243    4.268408
   3 H     1.0000    0     1.008    2.581831   -0.905373    4.135743
   4 C     6.0000    0    12.011    0.179505    1.785568    6.074797
   5 O     8.0000    0    15.999   -0.579949    0.225157    7.588235
   6 C     6.0000    0    12.011    5.525040    2.178537    1.113489
   7 C     6.0000    0    12.011    7.728736    3.621254    1.017372
   8 C     6.0000    0    12.011    5.383284    0.148718   -0.565491
   9 C     6.0000    0    12.011    9.685712    3.031045   -0.627242
  10 H     1.0000    0     1.008    7.920630    5.225624    2.278586
  11 C     6.0000    0    12.011    7.286716   -0.491111   -2.247742
  12 H     1.0000    0     1.008    9.032250   -2.944086    5.345402
  13 C     6.0000    0    12.011    9.485337    0.986976   -2.267411
  14 H     1.0000    0     1.008   11.382537    4.184107   -0.665692
  15 O     8.0000    0    15.999   11.285805    0.339693   -3.966841
  16 H     1.0000    0     1.008   12.707701    1.480383   -3.874863
  17 O     8.0000    0    15.999    6.915457   -2.386480   -3.948471
  18 C     6.0000    0    12.011    8.320373   -4.654709   -3.398572
  19 H     1.0000    0     1.008    7.731913   -5.413636   -1.572815
  20 H     1.0000    0     1.008    7.854830   -5.983521   -4.895186
  21 H     1.0000    0     1.008   10.344710   -4.268617   -3.402645
  22 C     6.0000    0    12.011   -4.749558    1.741984    2.797872
  23 H     1.0000    0     1.008   -4.517747    1.245513    4.778953
  24 C     6.0000    0    12.011   -3.506893    3.751021    1.873064
  25 H     1.0000    0     1.008   -3.731678    4.368669   -0.071401
  26 C     6.0000    0    12.011   -1.768600    5.313298    3.373717
  27 O     8.0000    0    15.999   -0.956258    7.302435    2.527870
  28 C     6.0000    0    12.011   -6.474444    0.085680    1.403638
  29 C     6.0000    0    12.011   -7.742282   -1.822858    2.714180
  30 C     6.0000    0    12.011   -6.898959    0.320605   -1.202667
  31 C     6.0000    0    12.011   -9.388675   -3.452227    1.477414
  32 H     1.0000    0     1.008   -7.433548   -2.044839    4.730232
  33 C     6.0000    0    12.011   -8.529035   -1.291055   -2.449457
  34 H     1.0000    0     1.008   -5.947482    1.753401   -2.319255
  35 C     6.0000    0    12.011   -9.789454   -3.205159   -1.107703
  36 H     1.0000    0     1.008  -10.355580   -4.938312    2.512225
  37 O     8.0000    0    15.999  -11.340683   -4.749725   -2.447244
  38 H     1.0000    0     1.008  -12.106980   -5.990919   -1.350986
  39 O     8.0000    0    15.999   -8.838878   -1.084695   -5.019001
  40 C     6.0000    0    12.011  -11.179136    0.081256   -5.727100
  41 H     1.0000    0     1.008  -11.259962    2.014114   -4.999467
  42 H     1.0000    0     1.008  -11.217167    0.112040   -7.783064
  43 H     1.0000    0     1.008  -12.784517   -1.004102   -5.018311
  44 C     6.0000    0    12.011   -0.952218    4.428942    5.995576
  45 H     1.0000    0     1.008   -2.564313    4.453032    7.286064
  46 H     1.0000    0     1.008    0.438428    5.788290    6.694602
  47 O     8.0000    0    15.999    3.177746   -3.582025   -0.086360
  48 O     8.0000    0    15.999    1.167163   -0.348386   -1.540180
  49 N     7.0000    0    14.007    3.056555   -1.381203   -0.741634

--------------------------------
INTERNAL COORDINATES (ANGSTROEM)
--------------------------------
 C      0   0   0     0.000000000000     0.00000000     0.00000000
 H      1   0   0     1.086797354951     0.00000000     0.00000000
 C      1   2   0     1.337273592214   120.28926496     0.00000000
 H      3   1   2     1.087000033716   121.92207679   185.42046532
 C      3   1   2     1.479498582350   123.69589579     3.28644494
 O      5   3   1     1.218504396743   119.96592037   195.51005511
 C      1   2   3     1.472677539647   115.01651673   182.05700309
 C      7   1   2     1.394755900254   119.94954171    38.28432870
 C      7   1   2     1.395988576829   123.75229113   217.11047930
 C      8   7   1     1.388306704391   121.55992735   177.70348457
 H      8   7   1     1.084682703360   118.96480047   358.54193873
 C      9   7   1     1.386242806141   123.89000757   181.88359677
 H      4   3   1     3.636627069580   116.90344866    54.33749261
 C     10   8   7     1.390893187265   120.61502875     0.97663681
 H     10   8   7     1.085812337803   120.14451106   180.00929816
 O     14  10   8     1.354189865572   123.88109347   178.18925277
 H     16  14  10     0.965863885484   110.88897780     0.13974046
 O     12   9   7     1.361820411732   119.96414516   184.86590874
 C     18  12   9     1.441562866323   113.91835667   251.90517689
 H     19  18  12     1.091651058100   109.74636756    61.55801200
 H     19  18  12     1.087369070753   105.93700147   180.27449534
 H     19  18  12     1.090544712075   110.49963121   299.40305820
 C      5   3   1     3.132255397421   104.08446941    91.33441341
 H     23   5   3     1.087700810449    51.26478706   147.05351297
 C     23   5   3     1.342454663904    77.76502663   291.47266929
 H     25  23   5     1.086163008722   122.00624542   151.13496167
 C     25  23   5     1.469772604993   123.71462093   330.39642570
 O     27  25  23     1.221932335677   120.45077517   189.73333795
 C     23   5   3     1.464823255752   143.33603970    68.28501203
 C     29  23   5     1.396812587653   118.80682711    60.69595259
 C     29  23   5     1.402891303000   122.81495517   241.13585205
 C     30  29  23     1.389535532617   121.06205854   180.33032999
 H     30  29  23     1.085659557833   119.59353213     0.08750790
 C     31  29  23     1.380846621333   120.99965839   179.57369436
 H     31  29  23     1.085133605294   121.52945480     0.33681372
 C     32  30  29     1.390487645095   120.04385443     0.25619540
 H     32  30  29     1.086320267741   120.47048247   179.58656384
 O     36  32  30     1.358076052528   123.30602240   179.01624365
 H     38  36  32     0.965593777744   110.46517776     0.60144904
 O     34  31  29     1.373940370388   119.88926825   182.50020230
 C     40  34  31     1.433440692546   113.32935483   255.34570563
 H     41  40  34     1.093736479060   110.13785167    61.92312946
 H     41  40  34     1.088277044087   106.48423031   180.81063011
 H     41  40  34     1.091905972140   110.85278595   300.06445520
 C      5   3   1     1.522200680915   119.29519171    16.20109463
 H     45   5   3     1.092823469353   107.49556622   172.45215928
 H     45   5   3     1.093536837780   109.29360606   289.23291013
 O      9   7   1     2.307382621847   127.99475369   332.92157680
 O     48   9   7     2.156840684388    62.06353112    84.35136624
 N     49  48   9     1.215286952683    27.54377152   359.80081397

---------------------------
INTERNAL COORDINATES (A.U.)
---------------------------
 C      0   0   0     0.000000000000     0.00000000     0.00000000
 H      1   0   0     2.053749363928     0.00000000     0.00000000
 C      1   2   0     2.527080855409   120.28926496     0.00000000
 H      3   1   2     2.054132371287   121.92207679   185.42046532
 C      3   1   2     2.795847136167   123.69589579     3.28644494
 O      5   3   1     2.302639602822   119.96592037   195.51005511
 C      1   2   3     2.782957233510   115.01651673   182.05700309
 C      7   1   2     2.635706675151   119.94954171    38.28432870
 C      7   1   2     2.638036096289   123.75229113   217.11047930
 C      8   7   1     2.623519461186   121.55992735   177.70348457
 H      8   7   1     2.049753251551   118.96480047   358.54193873
 C      9   7   1     2.619619258726   123.89000757   181.88359677
 H      4   3   1     6.872229212711   116.90344866    54.33749261
 C     10   8   7     2.628407205468   120.61502875     0.97663681
 H     10   8   7     2.051887951281   120.14451106   180.00929816
 O     14  10   8     2.559047979263   123.88109347   178.18925277
 H     16  14  10     1.825218226211   110.88897780     0.13974046
 O     12   9   7     2.573467621757   119.96414516   184.86590874
 C     18  12   9     2.724159022181   113.91835667   251.90517689
 H     19  18  12     2.062921533614   109.74636756    61.55801200
 H     19  18  12     2.054829750219   105.93700147   180.27449534
 H     19  18  12     2.060830842618   110.49963121   299.40305820
 C      5   3   1     5.919104882623   104.08446941    91.33441341
 H     23   5   3     2.055456647392    51.26478706   147.05351297
 C     23   5   3     2.536871661984    77.76502663   291.47266929
 H     25  23   5     2.052550623280   122.00624542   151.13496167
 C     25  23   5     2.777467702576   123.71462093   330.39642570
 O     27  25  23     2.309117468613   120.45077517   189.73333795
 C     23   5   3     2.768114787971   143.33603970    68.28501203
 C     29  23   5     2.639593251079   118.80682711    60.69595259
 C     29  23   5     2.651080358331   122.81495517   241.13585205
 C     30  29  23     2.625841609998   121.06205854   180.33032999
 H     30  29  23     2.051599238979   119.59353213     0.08750790
 C     31  29  23     2.609421947269   120.99965839   179.57369436
 H     31  29  23     2.050605332720   121.52945480     0.33681372
 C     32  30  29     2.627640841831   120.04385443     0.25619540
 H     32  30  29     2.052847799758   120.47048247   179.58656384
 O     36  32  30     2.566391808315   123.30602240   179.01624365
 H     38  36  32     1.824707796555   110.46517776     0.60144904
 O     34  31  29     2.596371024371   119.88926825   182.50020230
 C     40  34  31     2.708810338130   113.32935483   255.34570563
 H     41  40  34     2.066862408102   110.13785167    61.92312946
 H     41  40  34     2.056545571157   106.48423031   180.81063011
 H     41  40  34     2.063403251338   110.85278595   300.06445520
 C      5   3   1     2.876542407797   119.29519171    16.20109463
 H     45   5   3     2.065137069799   107.49556622   172.45215928
 H     45   5   3     2.066485140758   109.29360606   289.23291013
[...]
 52:    566.09   0.010261   51.85  0.005656  (-0.068004 -0.017403  0.026996)
 53:    579.99   0.007550   38.15  0.004062  ( 0.028409  0.047889  0.031013)
 54:    592.27   0.000206    1.04  0.000108  (-0.005919  0.000182 -0.008567)
 55:    604.07   0.002390   12.08  0.001235  (-0.027022 -0.022210 -0.003323)
 56:    615.13   0.003268   16.51  0.001658  ( 0.040070  0.005728 -0.004401)
 57:    631.03   0.002648   13.38  0.001310  (-0.028051 -0.021885 -0.006620)
 58:    645.74   0.000250    1.27  0.000121  (-0.001177  0.010349  0.003535)
 59:    677.78   0.002564   12.96  0.001181  (-0.032278  0.010558 -0.005224)
 60:    717.36   0.002780   14.05  0.001209  (-0.005835 -0.016609 -0.029992)
 61:    736.55   0.002342   11.84  0.000992  (-0.020652 -0.000062  0.023788)
 62:    751.00   0.000787    3.98  0.000327  (-0.000084 -0.007821 -0.016307)
 63:    762.89   0.000532    2.69  0.000218  ( 0.010805 -0.007533 -0.006642)
 64:    769.47   0.001368    6.91  0.000555  (-0.003417  0.004043  0.022952)
 65:    805.54   0.003690   18.65  0.001430  (-0.019593  0.007177  0.031531)
 66:    817.71   0.005839   29.51  0.002228  (-0.028622 -0.029439 -0.023289)
 67:    829.24   0.017128   86.56  0.006446  (-0.076573  0.018528  0.015462)
 68:    836.05   0.008829   44.62  0.003296  ( 0.002234 -0.056542  0.009676)
 69:    840.47   0.013714   69.30  0.005092  ( 0.058296 -0.023722  0.033627)
 70:    852.48   0.002713   13.71  0.000993  ( 0.024739  0.013336 -0.014258)
 71:    880.92   0.000495    2.50  0.000176  (-0.007527  0.010145 -0.003992)
 72:    886.14   0.006069   30.67  0.002137  (-0.030353 -0.026750  0.022369)
 73:    915.94   0.001563    7.90  0.000533  (-0.009913  0.017778 -0.010877)
 74:    921.58   0.002239   11.32  0.000758  (-0.000190 -0.018387 -0.020498)
 75:    954.81   0.003068   15.51  0.001003  (-0.020547  0.015122 -0.018761)
 76:    967.15   0.002331   11.78  0.000752  (-0.018252 -0.005462  0.019727)
 77:    969.17   0.003557   17.97  0.001145  (-0.028712  0.003356  0.017594)
 78:    977.82   0.001345    6.80  0.000429  (-0.011403  0.006301  0.016110)
 79:    986.15   0.001653    8.35  0.000523  (-0.013680 -0.015933 -0.009055)
 80:   1013.14   0.024727  124.96  0.007616  ( 0.074913 -0.040618 -0.018829)
 81:   1013.78   0.028966  146.38  0.008916  (-0.090585 -0.006032 -0.025967)
 82:   1020.30   0.018003   90.98  0.005506  ( 0.062991 -0.032344 -0.022189)
 83:   1056.68   0.023402  118.27  0.006911  ( 0.066914 -0.021637  0.044336)
 84:   1095.64   0.026922  136.05  0.007668  ( 0.000457 -0.086968 -0.010221)
 85:   1137.28   0.041634  210.40  0.011424  (-0.050272 -0.094032  0.007417)
 86:   1158.63   0.023386  118.18  0.006299  (-0.010901 -0.049032 -0.061447)
 87:   1175.33   0.003300   16.68  0.000876  (-0.026084 -0.006939  0.012157)
 88:   1176.32   0.002365   11.95  0.000627  ( 0.014875  0.015921  0.012351)
 89:   1178.99   0.021246  107.37  0.005623  (-0.057921  0.000896  0.047621)
 90:   1187.16   0.005049   25.52  0.001327  ( 0.007318  0.035654  0.001608)
 91:   1192.69   0.004650   23.50  0.001217  ( 0.024691  0.002848 -0.024470)
 92:   1197.58   0.016282   82.28  0.004243  (-0.029282 -0.011526 -0.057031)
 93:   1211.48   0.020508  103.64  0.005283  (-0.041448  0.027602  0.052943)
 94:   1220.80   0.034799  175.86  0.008895  ( 0.076798  0.054032  0.008836)
 95:   1236.12   0.047957  242.36  0.012107  (-0.103355 -0.032996 -0.018331)
 96:   1251.59   0.046140  233.17  0.011504  (-0.106543  0.005435 -0.011101)
 97:   1269.36   0.007764   39.24  0.001909  ( 0.001653  0.008276 -0.042867)
 98:   1284.48   0.013887   70.18  0.003374  ( 0.019726  0.012717  0.053133)
 99:   1287.54   0.020559  103.90  0.004983  (-0.041437  0.049685  0.028236)
100:   1304.66   0.058008  293.15  0.013875  (-0.108649 -0.023457 -0.038988)
101:   1305.99   0.030983  156.58  0.007403  ( 0.023020 -0.052983 -0.063767)
102:   1314.49   0.050595  255.69  0.012011  (-0.066634 -0.063148 -0.059865)
103:   1318.37   0.092079  465.33  0.021795  ( 0.017445  0.078022  0.124111)
104:   1334.18   0.025226  127.48  0.005900  (-0.051616  0.033491  0.045984)
105:   1342.02   0.000157    0.80  0.000037  ( 0.001726 -0.003870 -0.004319)
106:   1347.24   0.018695   94.48  0.004330  ( 0.040014 -0.009655 -0.051343)
107:   1361.96   0.024361  123.11  0.005582  ( 0.050817 -0.028062 -0.047032)
108:   1365.60   0.016280   82.27  0.003720  ( 0.032642  0.042025  0.029809)
109:   1376.64   0.012957   65.48  0.002937  (-0.029768 -0.015945 -0.042389)
110:   1448.81   0.006736   34.04  0.001451  ( 0.001762  0.022758  0.030494)
111:   1461.75   0.009872   49.89  0.002108  (-0.037323 -0.025909 -0.006582)
112:   1465.41   0.001531    7.74  0.000326  ( 0.011364  0.002236  0.013851)
113:   1474.46   0.026928  136.08  0.005699  ( 0.057924  0.048110  0.005438)
114:   1483.38   0.004978   25.16  0.001047  (-0.027779 -0.013545  0.009600)
115:   1483.91   0.003066   15.49  0.000645  ( 0.011528  0.021610 -0.006697)
116:   1492.08   0.003680   18.60  0.000770  (-0.004287 -0.011598 -0.024836)
117:   1493.34   0.009588   48.46  0.002004  ( 0.022851  0.008510  0.037538)
118:   1494.91   0.000994    5.02  0.000207  ( 0.003437 -0.002549 -0.013752)
119:   1502.87   0.002525   12.76  0.000524  (-0.020535  0.005740  0.008346)
120:   1555.67   0.046908  237.06  0.009410  (-0.058825  0.022583  0.073752)
121:   1557.68   0.080241  405.51  0.016076  (-0.068295 -0.063638 -0.085799)
122:   1622.18   0.142914  722.23  0.027493  ( 0.098987 -0.125086  0.045253)
123:   1661.86   0.002001   10.11  0.000376  ( 0.005971  0.011986 -0.014014)
124:   1662.46   0.005491   27.75  0.001031  (-0.010313  0.029283  0.008183)
125:   1675.08   0.088484  447.16  0.016484  ( 0.074823  0.103959  0.008853)
126:   1684.46   0.028425  143.65  0.005266  ( 0.044490  0.024784 -0.051695)
127:   1709.93   0.057875  292.48  0.010562  (-0.068740 -0.069536 -0.031651)
128:   1717.94   0.124093  627.11  0.022542  (-0.044661 -0.139530  0.032838)
129:   1727.51   0.134565  680.04  0.024308  (-0.094744 -0.095340  0.079007)
130:   1755.12   0.057853  292.37  0.010286  ( 0.036941  0.019136 -0.092496)
131:   3044.65   0.013500   68.22  0.001384  ( 0.027738 -0.021484  0.012358)
132:   3064.02   0.010556   53.34  0.001075  ( 0.014458 -0.029191  0.003734)
133:   3078.94   0.000009    0.05  0.000001  ( 0.000027  0.000614 -0.000764)
134:   3119.51   0.008428   42.59  0.000843  (-0.016066 -0.023368 -0.006239)
135:   3132.15   0.001124    5.68  0.000112  (-0.010284  0.000432 -0.002459)
136:   3145.02   0.005433   27.46  0.000539  (-0.017896 -0.003527  0.014366)
137:   3164.88   0.007199   36.38  0.000710  (-0.002312  0.000581  0.026535)
138:   3176.47   0.000219    1.11  0.000021  ( 0.001066 -0.000550 -0.004479)
139:   3180.28   0.003304   16.70  0.000324  ( 0.010439  0.012148  0.008223)
140:   3180.59   0.004684   23.67  0.000460  (-0.006839 -0.012026 -0.016377)
141:   3183.64   0.000356    1.80  0.000035  (-0.004571  0.003242 -0.001878)
142:   3188.74   0.000463    2.34  0.000045  (-0.004520  0.004327  0.002476)
143:   3189.36   0.001149    5.81  0.000112  ( 0.004482  0.001349  0.009513)
144:   3193.60   0.001597    8.07  0.000156  ( 0.009495 -0.002008 -0.007866)
145:   3196.47   0.002417   12.21  0.000236  ( 0.003467  0.008084 -0.012594)
146:   3204.15   0.000908    4.59  0.000088  (-0.000646  0.002240 -0.009112)
147:   3210.27   0.000461    2.33  0.000045  (-0.003557 -0.005670  0.000051)
148:   3792.04   0.043799  221.34  0.003604  ( 0.054099  0.018923 -0.017876)
149:   3795.78   0.039222  198.21  0.003225  (-0.034986 -0.044216  0.006737)

* The epsilon (eps) is given for a Dirac delta lineshape.
** The dipole moment derivative (T) already includes vibrational overlap.

The first frequency considered to be a vibration is 6
The total number of vibrations considered is 144


--------------------------
THERMOCHEMISTRY AT 298.15K
--------------------------

Temperature         ... 298.15 K
Pressure            ... 1.00 atm
Total Mass          ... 414.39 AMU

Throughout the following assumptions are being made:
  (1) The electronic state is orbitally nondegenerate
      but the spin degeneracy is treated
  (2) There are no thermally accessible electronically excited states
  (3) Hindered rotations indicated by low frequency modes are not
      treated as such but are treated as vibrations and this may
      cause some error
  (4) All equations used are the standard statistical mechanics
      equations for an ideal gas
  (5) All vibrations are strictly harmonic

freq.      11.35  E(vib)   ...       0.58 
freq.      17.75  E(vib)   ...       0.57 
freq.      22.16  E(vib)   ...       0.56 
freq.      38.44  E(vib)   ...       0.54 
freq.      43.70  E(vib)   ...       0.53 
freq.      52.79  E(vib)   ...       0.52 
freq.      63.39  E(vib)   ...       0.51 
freq.      63.51  E(vib)   ...       0.51 
freq.      74.35  E(vib)   ...       0.49 
freq.      74.90  E(vib)   ...       0.49 
freq.      79.02  E(vib)   ...       0.49 
freq.      87.40  E(vib)   ...       0.48 
freq.     104.80  E(vib)   ...       0.46 
freq.     112.29  E(vib)   ...       0.45 
freq.     124.28  E(vib)   ...       0.43 
freq.     126.51  E(vib)   ...       0.43 
freq.     132.30  E(vib)   ...       0.42 
freq.     150.08  E(vib)   ...       0.40 
freq.     156.97  E(vib)   ...       0.40 
freq.     161.53  E(vib)   ...       0.39 
freq.     171.48  E(vib)   ...       0.38 
freq.     178.04  E(vib)   ...       0.37 
freq.     186.89  E(vib)   ...       0.36 
freq.     200.69  E(vib)   ...       0.35 
freq.     208.32  E(vib)   ...       0.34 
freq.     223.94  E(vib)   ...       0.33 
freq.     226.91  E(vib)   ...       0.33 
freq.     274.10  E(vib)   ...       0.28 
freq.     299.35  E(vib)   ...       0.26 
freq.     305.52  E(vib)   ...       0.26 
freq.     314.95  E(vib)   ...       0.25 
freq.     326.37  E(vib)   ...       0.24 
freq.     337.60  E(vib)   ...       0.24 
freq.     348.88  E(vib)   ...       0.23 
freq.     381.38  E(vib)   ...       0.21 
freq.     391.15  E(vib)   ...       0.20 
freq.     399.39  E(vib)   ...       0.19 
freq.     404.89  E(vib)   ...       0.19 
freq.     430.06  E(vib)   ...       0.18 
freq.     442.97  E(vib)   ...       0.17 
freq.     462.42  E(vib)   ...       0.16 
freq.     466.04  E(vib)   ...       0.16 
freq.     478.46  E(vib)   ...       0.15 
freq.     496.40  E(vib)   ...       0.14 
freq.     522.07  E(vib)   ...       0.13 
freq.     559.37  E(vib)   ...       0.12 
freq.     566.09  E(vib)   ...       0.11 
freq.     579.99  E(vib)   ...       0.11 
freq.     592.27  E(vib)   ...       0.10 
freq.     604.07  E(vib)   ...       0.10 
freq.     615.13  E(vib)   ...       0.10 
freq.     631.03  E(vib)   ...       0.09 
freq.     645.74  E(vib)   ...       0.09 
freq.     677.78  E(vib)   ...       0.08 
freq.     717.36  E(vib)   ...       0.07 
freq.     736.55  E(vib)   ...       0.06 
freq.     751.00  E(vib)   ...       0.06 
freq.     762.89  E(vib)   ...       0.06 
freq.     769.47  E(vib)   ...       0.06 
freq.     805.54  E(vib)   ...       0.05 
freq.     817.71  E(vib)   ...       0.05 
freq.     829.24  E(vib)   ...       0.04 
freq.     836.05  E(vib)   ...       0.04 
freq.     840.47  E(vib)   ...       0.04 
freq.     852.48  E(vib)   ...       0.04 
freq.     880.92  E(vib)   ...       0.04 
freq.     886.14  E(vib)   ...       0.04 
freq.     915.94  E(vib)   ...       0.03 
freq.     921.58  E(vib)   ...       0.03 
freq.     954.81  E(vib)   ...       0.03 
freq.     967.15  E(vib)   ...       0.03 
freq.     969.17  E(vib)   ...       0.03 
freq.     977.82  E(vib)   ...       0.03 
freq.     986.15  E(vib)   ...       0.02 
freq.    1013.14  E(vib)   ...       0.02 
freq.    1013.78  E(vib)   ...       0.02 
freq.    1020.30  E(vib)   ...       0.02 
freq.    1056.68  E(vib)   ...       0.02 
freq.    1095.64  E(vib)   ...       0.02 
freq.    1137.28  E(vib)   ...       0.01 
freq.    1158.63  E(vib)   ...       0.01 
freq.    1175.33  E(vib)   ...       0.01 
freq.    1176.32  E(vib)   ...       0.01 
freq.    1178.99  E(vib)   ...       0.01 
freq.    1187.16  E(vib)   ...       0.01 
freq.    1192.69  E(vib)   ...       0.01 
freq.    1197.58  E(vib)   ...       0.01 
freq.    1211.48  E(vib)   ...       0.01 
freq.    1220.80  E(vib)   ...       0.01 
freq.    1236.12  E(vib)   ...       0.01 
freq.    1251.59  E(vib)   ...       0.01 
freq.    1269.36  E(vib)   ...       0.01 
freq.    1284.48  E(vib)   ...       0.01 
freq.    1287.54  E(vib)   ...       0.01 
freq.    1304.66  E(vib)   ...       0.01 
freq.    1305.99  E(vib)   ...       0.01 
freq.    1314.49  E(vib)   ...       0.01 
freq.    1318.37  E(vib)   ...       0.01 
freq.    1334.18  E(vib)   ...       0.01 
freq.    1342.02  E(vib)   ...       0.01 
freq.    1347.24  E(vib)   ...       0.01 
freq.    1361.96  E(vib)   ...       0.01 
freq.    1365.60  E(vib)   ...       0.01 
freq.    1376.64  E(vib)   ...       0.01 
freq.    1448.81  E(vib)   ...       0.00 
freq.    1461.75  E(vib)   ...       0.00 
freq.    1465.41  E(vib)   ...       0.00 
freq.    1474.46  E(vib)   ...       0.00 
freq.    1483.38  E(vib)   ...       0.00 
freq.    1483.91  E(vib)   ...       0.00 
freq.    1492.08  E(vib)   ...       0.00 
freq.    1493.34  E(vib)   ...       0.00 
freq.    1494.91  E(vib)   ...       0.00 
freq.    1502.87  E(vib)   ...       0.00 
freq.    1555.67  E(vib)   ...       0.00 
freq.    1557.68  E(vib)   ...       0.00 
freq.    1622.18  E(vib)   ...       0.00 
freq.    1661.86  E(vib)   ...       0.00 
freq.    1662.46  E(vib)   ...       0.00 
freq.    1675.08  E(vib)   ...       0.00 
freq.    1684.46  E(vib)   ...       0.00 
freq.    1709.93  E(vib)   ...       0.00 
freq.    1717.94  E(vib)   ...       0.00 
freq.    1727.51  E(vib)   ...       0.00 
freq.    1755.12  E(vib)   ...       0.00 
freq.    3044.65  E(vib)   ...       0.00 
freq.    3064.02  E(vib)   ...       0.00 
freq.    3078.94  E(vib)   ...       0.00 
freq.    3119.51  E(vib)   ...       0.00 
freq.    3132.15  E(vib)   ...       0.00 
freq.    3145.02  E(vib)   ...       0.00 
freq.    3164.88  E(vib)   ...       0.00 
freq.    3176.47  E(vib)   ...       0.00 
freq.    3180.28  E(vib)   ...       0.00 
freq.    3180.59  E(vib)   ...       0.00 
freq.    3183.64  E(vib)   ...       0.00 
freq.    3188.74  E(vib)   ...       0.00 
freq.    3189.36  E(vib)   ...       0.00 
freq.    3193.60  E(vib)   ...       0.00 
freq.    3196.47  E(vib)   ...       0.00 
freq.    3204.15  E(vib)   ...       0.00 
freq.    3210.27  E(vib)   ...       0.00 
freq.    3792.04  E(vib)   ...       0.00 
freq.    3795.78  E(vib)   ...       0.00 

------------
INNER ENERGY
------------

The inner energy is: U= E(el) + E(ZPE) + E(vib) + E(rot) + E(trans)
    E(el)   - is the total energy from the electronic structure calculation
              = E(kin-el) + E(nuc-el) + E(el-el) + E(nuc-nuc)
    E(ZPE)  - the the zero temperature vibrational energy from the frequency calculation
    E(vib)  - the the finite temperature correction to E(ZPE) due to population
              of excited vibrational states
    E(rot)  - is the rotational thermal energy
    E(trans)- is the translational thermal energy

Summary of contributions to the inner energy U:
Electronic energy                ...  -1468.47322287 Eh
Zero point energy                ...      0.37346718 Eh     234.35 kcal/mol
Thermal vibrational correction   ...      0.02840931 Eh      17.83 kcal/mol
Thermal rotational correction    ...      0.00141627 Eh       0.89 kcal/mol
Thermal translational correction ...      0.00141627 Eh       0.89 kcal/mol
-----------------------------------------------------------------------
Total thermal energy                  -1468.06851385 Eh


Summary of corrections to the electronic energy:
(perhaps to be used in another calculation)
Total thermal correction                  0.03124185 Eh      19.60 kcal/mol
Non-thermal (ZPE) correction              0.37346718 Eh     234.35 kcal/mol
-----------------------------------------------------------------------
Total correction                          0.40470903 Eh     253.96 kcal/mol


--------
ENTHALPY
--------

The enthalpy is H = U + kB*T
                kB is Boltzmann's constant
Total free energy                 ...  -1468.06851385 Eh 
Thermal Enthalpy correction       ...      0.00094421 Eh       0.59 kcal/mol
-----------------------------------------------------------------------
Total Enthalpy                    ...  -1468.06756964 Eh


Note: Only C1 symmetry has been detected, increase convergence thresholds 
      if your molecule has a higher symmetry. Symmetry factor of 1.0 is   
      used for the rotational entropy correction. 
 

Note: Rotational entropy computed according to Herzberg 
Infrared and Raman Spectra, Chapter V,1, Van Nostrand Reinhold, 1945 
Point Group:  C1, Symmetry Number:   1  
Rotational constants in cm-1:     0.007199     0.002692     0.002266 

Vibrational entropy computed according to the QRRHO of S. Grimme
Chem.Eur.J. 2012 18 9955


-------
ENTROPY
-------

The entropy contributions are T*S = T*(S(el)+S(vib)+S(rot)+S(trans))
     S(el)   - electronic entropy
     S(vib)  - vibrational entropy
     S(rot)  - rotational entropy
     S(trans)- translational entropy
The entropies will be listed as multiplied by the temperature to get
units of energy

Electronic entropy                ...      0.00065446 Eh      0.41 kcal/mol
Vibrational entropy               ...      0.05237500 Eh     32.87 kcal/mol
Rotational entropy                ...      0.01750849 Eh     10.99 kcal/mol
Translational entropy             ...      0.02088467 Eh     13.11 kcal/mol
-----------------------------------------------------------------------
Final entropy term                ...      0.09142261 Eh     57.37 kcal/mol

In case the symmetry of your molecule has not been determined correctly
or in case you have a reason to use a different symmetry number we print 
out the resulting rotational entropy values for sn=1,12 :
 --------------------------------------------------------
|  sn= 1 | S(rot)=       0.01750849 Eh     10.99 kcal/mol|
|  sn= 2 | S(rot)=       0.01685403 Eh     10.58 kcal/mol|
|  sn= 3 | S(rot)=       0.01647120 Eh     10.34 kcal/mol|
|  sn= 4 | S(rot)=       0.01619957 Eh     10.17 kcal/mol|
|  sn= 5 | S(rot)=       0.01598889 Eh     10.03 kcal/mol|
|  sn= 6 | S(rot)=       0.01581674 Eh      9.93 kcal/mol|
|  sn= 7 | S(rot)=       0.01567120 Eh      9.83 kcal/mol|
|  sn= 8 | S(rot)=       0.01554512 Eh      9.75 kcal/mol|
|  sn= 9 | S(rot)=       0.01543391 Eh      9.68 kcal/mol|
|  sn=10 | S(rot)=       0.01533443 Eh      9.62 kcal/mol|
|  sn=11 | S(rot)=       0.01524444 Eh      9.57 kcal/mol|
|  sn=12 | S(rot)=       0.01516229 Eh      9.51 kcal/mol|
 --------------------------------------------------------


-------------------
GIBBS FREE ENERGY
-------------------

The Gibbs free energy is G = H - T*S

Total enthalpy                    ...  -1468.06756964 Eh 
Total entropy correction          ...     -0.09142261 Eh    -57.37 kcal/mol
-----------------------------------------------------------------------
Final Gibbs free energy         ...  -1468.15899225 Eh

For completeness - the Gibbs free energy minus the electronic energy
G-E(el)                           ...      0.31423062 Eh    197.18 kcal/mol



Timings for individual modules:

Sum of individual times         ...   766392.667 sec (=12773.211 min)
GTO integral calculation        ...        6.632 sec (=   0.111 min)   0.0 %
SCF iterations                  ...     7306.873 sec (= 121.781 min)   1.0 %
SCF Gradient evaluation         ...     1316.016 sec (=  21.934 min)   0.2 %
Geometry relaxation             ...        0.890 sec (=   0.015 min)   0.0 %
Numerical frequency calculation ...   757762.255 sec (=12629.371 min)  98.9 %
                             ****ORCA TERMINATED NORMALLY****
TOTAL RUN TIME: 8 days 20 hours 30 minutes 12 seconds 362 msec
