
                                 *****************
                                 * O   R   C   A *
                                 *****************

                                            #,                                       
                                            ###                                      
                                            ####                                     
                                            #####                                    
                                            ######                                   
                                           ########,                                 
                                     ,,################,,,,,                         
                               ,,#################################,,                 
                          ,,##########################################,,             
                       ,#########################################, ''#####,          
                    ,#############################################,,   '####,        
                  ,##################################################,,,,####,       
                ,###########''''           ''''###############################       
              ,#####''   ,,,,##########,,,,          '''####'''          '####       
            ,##' ,,,,###########################,,,                        '##       
           ' ,,###''''                  '''############,,,                           
         ,,##''                                '''############,,,,        ,,,,,,###''
      ,#''                                            '''#######################'''  
     '                                                          ''''####''''         
             ,#######,   #######,   ,#######,      ##                                
            ,#'     '#,  ##    ##  ,#'     '#,    #''#        ,####,   ,####,        
            ##       ##  ##   ,#'  ##            #'  '#       #'       #'  '#        
            ##       ##  #######   ##           ,######,      #####,   #    #        
            '#,     ,#'  ##    ##  '#,     ,#' ,#      #,     #,   #   #,  ,#        
             '#######'   ##     ##  '#######'  #'      '#     '####' # '####'        



                #########################################################
                #                        -***-                          #
                #          Department of theory and spectroscopy        #
                #                                                       #
                #                      Frank Neese                      #
                #                                                       #
                #     Directorship, Architecture, Infrastructure        #
                #                    SHARK, DRIVERS                     #
                #        Core code/Algorithms in most modules           #
                #                                                       #
                #        Max Planck Institute fuer Kohlenforschung      #
                #                Kaiser Wilhelm Platz 1                 #
                #                 D-45470 Muelheim/Ruhr                 #
                #                      Germany                          #
                #                                                       #
                #                  All rights reserved                  #
                #                        -***-                          #
                #########################################################


                         Program Version 6.0.0  -   RELEASE  -


 With contributions from (in alphabetic order):
   Daniel Aravena         : Magnetic Suceptibility
   Michael Atanasov       : Ab Initio Ligand Field Theory (pilot matlab implementation)
   Alexander A. Auer      : GIAO ZORA, VPT2 properties, NMR spectrum
   Ute Becker             : All parallelization in ORCA, NUMFREQ, NUMCALC
   Giovanni Bistoni       : ED, misc. LED, open-shell LED, HFLD
   Martin Brehm           : Molecular dynamics
   Dmytro Bykov           : pre 5.0 version of the SCF Hessian
   Marcos Casanova-Páez   : Triplet and SCS-CIS(D). UHF-(DLPNO)-IP/EA/STEOM-CCSD. UHF-CVS-IP/STEOM-CCSD
   Vijay G. Chilkuri      : MRCI spin determinant printing, contributions to CSF-ICE
   Pauline Colinet        : FMM embedding
   Dipayan Datta          : RHF DLPNO-CCSD density
   Achintya Kumar Dutta   : EOM-CC, STEOM-CC
   Nicolas Foglia         : Exact transition moments, OPA infrastructure, MCD improvements
   Dmitry Ganyushin       : Spin-Orbit,Spin-Spin,Magnetic field MRCI
   Miquel Garcia          : C-PCM and meta-GGA Hessian, CCSD/C-PCM, Gaussian charge scheme
   Tiago L. C. Gouveia    : GS-ROHF, GS-ROCIS
   Yang Guo               : DLPNO-NEVPT2, F12-NEVPT2, CIM, IAO-localization
   Andreas Hansen         : Spin unrestricted coupled pair/coupled cluster methods
   Ingolf Harden          : AUTO-CI MPn and infrastructure 
   Benjamin Helmich-Paris : MC-RPA, TRAH-(SCF,CASSCF), AVAS, COSX integrals, SCF dyn. polar.
   Lee Huntington         : MR-EOM, pCC
   Robert Izsak           : Overlap fitted RIJCOSX, COSX-SCS-MP3, EOM
   Riya Kayal             : Wick's Theorem for AUTO-CI, AUTO-CI UHF-CCSDT
   Emily Kempfer          : AUTO-CI, RHF CISDT and CCSDT
   Christian Kollmar      : KDIIS, OOCD, Brueckner-CCSD(T), CCSD density, CASPT2, CASPT2-K, improved NEVPT2
   Axel Koslowski         : Symmetry handling
   Simone Kossmann        : Meta GGA functionals, TD-DFT gradient, OOMP2, (MP2 Hessian; deprecated post 5.0)
   Lucas Lang             : DCDCAS
   Marvin Lechner         : AUTO-CI (C++ implementation), FIC-MRCC
   Spencer Leger          : CASSCF response
   Dagmar Lenk            : GEPOL surface, SMD, ORCA-2-JSON
   Dimitrios Liakos       : Extrapolation schemes; Compound Job, initial MDCI parallelization
   Dimitrios Manganas     : Further ROCIS development; embedding schemes. LFT, Crystal Embedding
   Dimitrios Pantazis     : SARC Basis sets
   Anastasios Papadopoulos: AUTO-CI, single reference methods and gradients
   Taras Petrenko         : pre 6.0 DFT Hessian and TD-DFT gradient, (ASA, deprecated), ECA, 1-Electron XAS/XES, NRVS
   Peter Pinski           : DLPNO-MP2, DLPNO-MP2 Gradient
   Christoph Reimann      : Effective Core Potentials
   Marius Retegan         : Local ZFS, SOC
   Christoph Riplinger    : Optimizer, TS searches, QM/MM, DLPNO-CCSD(T), (RO)-DLPNO pert. Triples
   Michael Roemelt        : Original ROCIS implementation
   Masaaki Saitow         : Open-shell DLPNO-CCSD energy and density
   Barbara Sandhoefer     : DKH picture change effects
   Kantharuban Sivalingam : CASSCF convergence/infrastructure, NEVPT2 and variants, FIC-MRCI
   Bernardo de Souza      : ESD, SOC TD-DFT
   Georgi Stoychev        : AutoAux, RI-MP2 NMR, DLPNO-MP2 response, X2C
   Van Anh Tran           : RI-MP2 g-tensors
   Willem Van den Heuvel  : Paramagnetic NMR
   Zikuan Wang            : NOTCH, Electric field optimization 
   Frank Wennmohs         : Technical directorship and infrastructure
   Hang Xu                : AUTO-CI-Response properties 


 We gratefully acknowledge several colleagues who have allowed us to
 interface, adapt or use parts of their codes:
   Stefan Grimme, W. Hujo, H. Kruse, P. Pracht,  : VdW corrections, initial TS optimization,
                  C. Bannwarth, S. Ehlert,         DFT functionals, gCP, sTDA/sTD-DF
                  L. Wittmann, M. Mueller
   Ed Valeev, F. Pavosevic, A. Kumar             : LibInt (2-el integral package), F12 methods
   Garnet Chan, S. Sharma, J. Yang, R. Olivares  : DMRG
   Ulf Ekstrom                                   : XCFun DFT Library
   Mihaly Kallay                                 : mrcc  (arbitrary order and MRCC methods)
   Frank Weinhold                                : gennbo (NPA and NBO analysis)
   Simon Mueller                                 : openCOSMO-RS
   Christopher J. Cramer and Donald G. Truhlar   : smd solvation model
   Lars Goerigk                                  : TD-DFT with DH, B97 family of functionals
   V. Asgeirsson, H. Jonsson                     : NEB implementation
   FAccTs GmbH                                   : IRC, NEB, NEB-TS, DLPNO-Multilevel, CI-OPT
                                                   MM, QMMM, 2- and 3-layer-ONIOM, Crystal-QMMM,
                                                   LR-CPCM, SF, NACMEs, symmetry and pop. for TD-DFT,
                                                   nearIR, NL-DFT gradient (VV10), updates on ESD,
                                                   ML-optimized integration grids, MBIS, APM,
                                                   GOAT, DOCKER, SOLVATOR, interface openCOSMO-RS
   S Lehtola, MJT Oliveira, MAL Marques          : LibXC Library
   Liviu Ungur et al                             : ANISO software


 Your calculation uses the libint2 library for the computation of 2-el integrals
 For citations please refer to: http://libint.valeyev.net

 Your ORCA version has been built with support for libXC version: 6.2.2
 For citations please refer to: https://libxc.gitlab.io

 This ORCA versions uses:
   CBLAS   interface :  Fast vector & matrix operations
   LAPACKE interface :  Fast linear algebra routines
   SCALAPACK package :  Parallel linear algebra routines
   Shared memory     :  Shared parallel matrices
   BLAS/LAPACK       :  OpenBLAS 0.3.27  USE64BITINT DYNAMIC_ARCH NO_AFFINITY Cooperlake SINGLE_THREADED
        Core in use  :  Cooperlake
   Copyright (c) 2011-2014, The OpenBLAS Project


NOTE: MaxCore=2000 MB was set to SCF,MP2,MDCI,CIPSI,MRCI and CIS
      => If you want to overwrite this, your respective input block should be placed after the MaxCore statement
Your calculation utilizes the DFT-NL dispersion correction.
Cite in your paper:
Vydrov, O. A.; Van Voorhis, T. J. Chem. Phys. 2010, 133, 244103
Hujo, W.; Grimme, S. J. Chem. Theory Comput. 2011, 7, 3866 
   

Warning: RI is on but no J-basis has been assigned. Assigning Def2/J (nothing to worry about!)
================================================================================

----- Orbital basis set information -----
Your calculation utilizes the basis: 6-311+G(d)
   H, Li - Ne  : R. Krishnan, J. S. Binkley, R. Seeger and J. A. Pople, J. Chem. Phys. 72, 650 (1980).
   Na - Ar     : A. D. McLean and G. S. Chandler J. Chem. Phys. 72, 5639, (1980).
   K  - Ca     : J.-P. Blaudeau, M. P. McGrath, L. A. Curtiss and L. Radom, J. Chem. Phys. 107, 5016 (1997).
   Ga - Kr     : L. A. Curtiss, M. P. McGrath, J.-P. Blandeau, N. E. Davis, R. C. Binning and L. Radom, J. Chem. Phys. 103, 6104 (1995).
   Pol./Diff.
   H, Li - Cl  : T. Clark, J. Chandrasekhar and P. v. R. Schleyer, J. Comp. Chem. 4, 294 (1983).
   H - Ne      : M. J. Frisch, J. A. Pople and J. S. Binkley, J. Chem. Phys. 80, 3265 (1984).

----- AuxJ basis set information -----
Your calculation utilizes the auxiliary basis: def2/J
   F. Weigend, Phys. Chem. Chem. Phys. 8, 1057 (2006).

================================================================================
                                        WARNINGS
                       Please study these warnings very carefully!
================================================================================

Using LibXC functional ID 531 : wB97M-V exchange-correlation functional
[ 1]  N. Mardirossian and M. Head-Gordon.,  J. Chem. Phys. 144, 214110 (2016)
Using LibXC functional ID 531 : wB97M-V exchange-correlation functional
[ 1]  N. Mardirossian and M. Head-Gordon.,  J. Chem. Phys. 144, 214110 (2016)

WARNING: B97M-V or wB97M-V functional requested.
  ===> : libXC variant has now been activated.
         Any manually given DFX/HFX/RangeSep scaling parameters are IGNORED!

Your calculation utilizes LibXC
 by S Lehtola, C Steigemann, MJT Oliveira & MAL Marques
Please cite in your paper:
 S Lehtola, C Steigemann, MJT Oliveira & MAL Marques, SoftwareX, 7, (2018), 1.
   


WARNING: your system is open-shell and RHF/RKS was chosen
  ===> : WILL SWITCH to UHF/UKS


WARNING: Geometry Optimization
  ===> : Switching off AutoStart
         For restart on a previous wavefunction, please use MOREAD

WARNING: Analytic gradients for DFT-NL dispersion can only be done using the self-consistent method,
  ===>   Switching to SCNL

WARNING: Self-consistent DFT-NL dispersion not compatible with AutoTRAH.
  ===>   Switching AutoTRAH off


================================================================================
                                       INPUT FILE
================================================================================
NAME = CURCUMIN-OPT-FREQ-Reag-WB97M-V-6-311+G-D-363.inp
|  1> ! Opt NumFreq wb97M-V 6-311+G(d) CPCM RIJDX
|  2> %maxcore 2000
|  3> %cpcm
|  4> epsilon 7 # Dielectric constant
|  5> refrac 1.85341 # Refractive index
|  6> end
|  7> %FREQ TEMP 363.15 END
|  8> 
|  9> * xyz 0 2
| 10>   C   -2.62126126806549      0.36823506644603     -0.51394967835892
| 11>   H   -2.21161737918465      0.72940514895111     -1.45507138905095
| 12>   C   -1.92087599479846      0.56060574657359      0.61362419013234
| 13>   H   -2.28214790724020      0.22777752066511      1.58260750019745
| 14>   C   -0.61477487031512      1.23716801157428      0.65882975726165
| 15>   O   -0.03873174777306      1.39959988517150      1.72360975934635
| 16>   C   -3.92142195621786     -0.29725882802538     -0.63778785126329
| 17>   C   -4.49759684913540     -0.41834418734112     -1.90423098883181
| 18>   C   -4.61408677925671     -0.82634063192437      0.46139492743112
| 19>   C   -5.72800855060993     -1.04095019680286     -2.07698135477499
| 20>   H   -3.97938418835420     -0.01787138956446     -2.77010487144409
| 21>   C   -5.83779126840147     -1.44609868849792      0.30064567543047
| 22>   H   -4.21540905982094     -0.75933241411901      1.46836794405743
| 23>   C   -6.40889878391838     -1.55424744579336     -0.97879960088761
| 24>   H   -6.16917023368029     -1.12323842307048     -3.06615297127463
| 25>   O   -7.62205035648256     -2.15842381139572     -1.06762285771855
| 26>   H   -7.92324669960805     -2.17981088862532     -1.98474127915349
| 27>   O   -6.51851803785371     -1.91064550945807      1.39993105651068
| 28>   C   -6.46795022873041     -3.33649039240335      1.54026606314424
| 29>   H   -5.43301023048420     -3.66564485092375      1.66988099339990
| 30>   H   -7.04432584235800     -3.57940576909137      2.43080078466371
| 31>   H   -6.90894441848364     -3.82858527833413      0.67112820537711
| 32>   C   2.53597305034424      0.21188407939143     -0.27794382062239
| 33>   H   1.58320959516495     -0.30005013142347     -0.39830395901218
| 34>   C   2.55745755267856      1.55289646531804     -0.26747680082307
| 35>   H   3.47774541123496      2.11378194076555     -0.13136544454849
| 36>   C   1.35389466079053      2.38667610559935     -0.39539219625541
| 37>   O   1.43232154115161      3.60377545311768     -0.30297258916921
| 38>   C   3.68319531693724     -0.68835020355619     -0.13164007233524
| 39>   C   3.45825481241430     -2.06675563543133     -0.12200154970343
| 40>   C   5.00254996790381     -0.22883801314940     -0.00573687671617
| 41>   C   4.50943506848922     -2.96522497110335      0.01611896715802
| 42>   H   2.44542245953303     -2.44548916993352     -0.21939016382321
| 43>   C   6.05445865310809     -1.11352284443583      0.12964251753083
| 44>   H   5.23701597729294      0.83058196475310     -0.00854425558153
| 45>   C   5.81240144248404     -2.49761337563510      0.14492837557321
| 46>   H   4.32108686979759     -4.03486429106803      0.03020811536151
| 47>   O   6.88743416950339     -3.31443718642121      0.29482540679167
| 48>   H   6.61254173935840     -4.23984704989734      0.28006238733109
| 49>   O   7.33236782228535     -0.63696283001954      0.29656922931859
| 50>   C   8.13583892454363     -0.74195784237461     -0.88598980596431
| 51>   H   7.70034974296955     -0.14403084981578     -1.69166465334172
| 52>   H   9.11775523659396     -0.35002151222640     -0.62801742281271
| 53>   H   8.22697286999490     -1.78291701549375     -1.20289508257981
| 54>   C   0.00141249824624      1.74168826980442     -0.64051527858553
| 55>   H   0.06766343956366      0.92579822743694     -1.36479142626876
| 56>   H   -0.65851752688541      2.50012918300442     -1.06912046823862
| 57>   O   -1.48470640735968      4.26296920356872      0.83876367555474
| 58>   O   0.01061500117980      5.63309367163901      1.65196136820686
| 59>   N   -0.54798023854622      4.59985768357533      1.48803280936115
| 60> *
| 61> 
| 62>                          ****END OF INPUT****
================================================================================

                       *****************************
                       * Geometry Optimization Run *
                       *****************************

Geometry optimization settings:
Update method            Update   .... BFGS
Choice of coordinates    CoordSys .... (2022) Redundant Internals
Initial Hessian          InHess   .... Almloef's Model
Max. no of cycles        MaxIter  .... 150

Convergence Tolerances:
Energy Change            TolE     ....  5.0000e-06 Eh
Max. Gradient            TolMAXG  ....  3.0000e-04 Eh/bohr
RMS Gradient             TolRMSG  ....  1.0000e-04 Eh/bohr
Max. Displacement        TolMAXD  ....  4.0000e-03 bohr
RMS Displacement         TolRMSD  ....  2.0000e-03 bohr
Strict Convergence                .... False

------------------------------------------------------------------------------
                        ORCA OPTIMIZATION COORDINATE SETUP
------------------------------------------------------------------------------

The optimization will be done in redundant internal coordinates (2022)
Making redundant internal coordinates   ...  (2022 redundants) done
Evaluating the initial hessian          ...  (Almloef) done
Evaluating the coordinates              ...  done
Calculating the B-matrix                .... done
Calculating the G-matrix                .... done
Diagonalizing the G-matrix              .... done
Small eigenvalue found = 8.829e-04
Small eigenvalue found = 1.986e-03
Small eigenvalue found = 6.078e-03
Small eigenvalue found = 7.330e-03
Small eigenvalue found = 9.759e-03
Small eigenvalue found = 1.583e-02
Small eigenvalue found = 2.019e-02
Small eigenvalue found = 2.480e-02
The first mode is                       ....  243
The number of degrees of freedom        ....  144

    -----------------------------------------------------------------
                    Redundant Internal Coordinates


    -----------------------------------------------------------------
         Definition                    Initial Value    Approx d2E/dq
    -----------------------------------------------------------------
      1. B(H   1,C   0)                  1.0881         0.362622   
      2. B(C   2,C   0)                  1.3413         0.747319   
      3. B(H   3,C   2)                  1.0864         0.364921   
      4. B(C   4,C   2)                  1.4716         0.462925   
      5. B(O   5,C   4)                  1.2215         1.039368   
      6. B(C   6,C   0)                  1.4658         0.472899   
      7. B(C   7,C   6)                  1.3966         0.609809   
      8. B(C   8,C   6)                  1.4028         0.596045   
      9. B(C   9,C   7)                  1.3897         0.625380   
     10. B(H  10,C   7)                  1.0857         0.365886   
     11. B(C  11,C   8)                  1.3811         0.645600   
     12. B(H  12,C   8)                  1.0851         0.366649   
     13. B(C  13,C   9)                  1.3904         0.623981   
     14. B(C  13,C  11)                  1.4053         0.590669   
     15. B(H  14,C   9)                  1.0862         0.365147   
     16. B(O  15,C  13)                  1.3582         0.628986   
     17. B(H  16,O  15)                  0.9655         0.509466   
     18. B(O  17,C  11)                  1.3739         0.593677   
     19. B(C  18,O  17)                  1.4336         0.476730   
     20. B(H  19,C  18)                  1.0937         0.355200   
     21. B(H  20,C  18)                  1.0882         0.362434   
     22. B(H  21,C  18)                  1.0918         0.357723   
     23. B(H  23,C  22)                  1.0883         0.362402   
     24. B(C  24,C  22)                  1.3412         0.747404   
     25. B(H  25,C  24)                  1.0863         0.365028   
     26. B(C  26,C  24)                  1.4697         0.466155   
     27. B(O  27,C  26)                  1.2231         1.033051   
     28. B(C  28,C  22)                  1.4656         0.473308   
     29. B(C  29,C  28)                  1.3967         0.609669   
     30. B(C  30,C  28)                  1.4027         0.596213   
     31. B(C  31,C  29)                  1.3897         0.625454   
     32. B(H  32,C  29)                  1.0857         0.365828   
     33. B(C  33,C  30)                  1.3811         0.645502   
     34. B(H  34,C  30)                  1.0851         0.366696   
     35. B(C  35,C  33)                  1.4052         0.590907   
     36. B(C  35,C  31)                  1.3903         0.624075   
     37. B(H  36,C  31)                  1.0862         0.365180   
     38. B(O  37,C  35)                  1.3584         0.628382   
     39. B(H  38,O  37)                  0.9655         0.509578   
     40. B(O  39,C  33)                  1.3741         0.593356   
     41. B(C  40,O  39)                  1.4335         0.476882   
     42. B(H  41,C  40)                  1.0937         0.355179   
     43. B(H  42,C  40)                  1.0883         0.362401   
     44. B(H  43,C  40)                  1.0919         0.357544   
     45. B(C  44,C  26)                  1.5183         0.389950   
     46. B(C  44,C   4)                  1.5240         0.381924   
     47. B(H  45,C  44)                  1.0930         0.356158   
     48. B(H  46,C  44)                  1.0929         0.356277   
     49. B(O  47,O   5)                  3.3276         0.000406   
     50. B(O  47,C  44)                  3.2793         0.000542   
     51. B(O  47,O  27)                  3.2011         0.000646   
     52. B(O  47,C   4)                  3.1535         0.000860   
     53. B(O  47,H  46)                  2.7258         0.000792   
     54. B(O  48,O  27)                  3.1561         0.000763   
     55. B(N  49,C  26)                  3.4731         0.000266   
     56. B(N  49,C   4)                  3.4641         0.000275   
     57. B(N  49,H  46)                  3.3106         0.000092   
     58. B(N  49,O   5)                  3.2491         0.000542   
     59. B(N  49,O  27)                  2.8498         0.002349   
     60. B(N  49,O  48)                  1.1860         1.060623   
     61. B(N  49,O  47)                  1.1885         1.050786   
     62. A(H   1,C   0,C   6)          114.3025         0.337609   
     63. A(C   2,C   0,C   6)          126.8206         0.427562   
     64. A(H   1,C   0,C   2)          118.8769         0.364740   
     65. A(C   0,C   2,H   3)          122.1574         0.365134   
     66. A(C   0,C   2,C   4)          123.7255         0.425933   
     67. A(H   3,C   2,C   4)          114.1164         0.336767   
     68. A(O   5,C   4,O  47)           87.2924         0.175024   
     69. A(C   2,C   4,O   5)          120.4291         0.449065   
     70. A(O   5,C   4,C  44)          120.5658         0.433726   
     71. A(C  44,C   4,O  47)           80.9405         0.158151   
     72. A(O  47,C   4,N  49)           19.9883         0.102329   
     73. A(C  44,C   4,N  49)           82.8150         0.142414   
     74. A(C   2,C   4,N  49)          118.0831         0.144791   
     75. A(C   2,C   4,O  47)          101.4223         0.161228   
     76. A(C   2,C   4,C  44)          119.0031         0.378441   
     77. A(O   5,C   4,N  49)           69.7051         0.155447   
     78. A(C   4,O   5,O  47)           71.1976         0.160990   
     79. A(C   4,O   5,N  49)           89.6483         0.165845   
     80. A(O  47,O   5,N  49)           20.7782         0.101900   
     81. A(C   0,C   6,C   8)          122.8877         0.410667   
     82. A(C   0,C   6,C   7)          118.8095         0.412333   
     83. A(C   7,C   6,C   8)          118.3020         0.429722   
     84. A(C   6,C   7,C   9)          121.1187         0.433447   
     85. A(C   9,C   7,H  10)          119.2562         0.354381   
     86. A(C   6,C   7,H  10)          119.6248         0.352871   
     87. A(C   6,C   8,C  11)          121.0339         0.434149   
     88. A(C   6,C   8,H  12)          121.4956         0.351635   
     89. A(C  11,C   8,H  12)          117.4691         0.356426   
     90. A(C  13,C   9,H  14)          119.5001         0.354125   
     91. A(C   7,C   9,C  13)          120.0522         0.435243   
     92. A(C   7,C   9,H  14)          120.4456         0.354260   
     93. A(C  13,C  11,O  17)          120.0719         0.424186   
     94. A(C   8,C  11,O  17)          119.8420         0.431000   
     95. A(C   8,C  11,C  13)          120.0392         0.433442   
     96. A(C   9,C  13,O  15)          123.3672         0.432841   
     97. A(C   9,C  13,C  11)          119.4517         0.430796   
     98. A(C  11,C  13,O  15)          117.1794         0.428597   
     99. A(C  13,O  15,H  16)          110.5243         0.369735   
    100. A(C  11,O  17,C  18)          113.3990         0.405688   
    101. A(O  17,C  18,H  20)          106.4650         0.335985   
    102. A(H  19,C  18,H  20)          109.6952         0.290509   
    103. A(O  17,C  18,H  21)          110.8608         0.335255   
    104. A(O  17,C  18,H  19)          110.1385         0.334861   
    105. A(H  20,C  18,H  21)          109.6879         0.290832   
    106. A(H  19,C  18,H  21)          109.9317         0.289913   
    107. A(C  24,C  22,C  28)          126.9296         0.427638   
    108. A(H  23,C  22,C  28)          114.0415         0.337624   
    109. A(H  23,C  22,C  24)          119.0273         0.364709   
    110. A(H  25,C  24,C  26)          114.3145         0.337174   
    111. A(C  22,C  24,C  26)          123.6015         0.426472   
    112. A(C  22,C  24,H  25)          122.0590         0.365160   
    113. A(C  24,C  26,N  49)          139.7056         0.144459   
    114. A(C  44,C  26,N  49)           82.5570         0.142263   
    115. A(O  27,C  26,N  49)           50.2114         0.154857   
    116. A(C  24,C  26,O  27)          120.3595         0.449135   
    117. A(O  27,C  26,C  44)          119.4739         0.434875   
    118. A(C  24,C  26,C  44)          120.1665         0.380264   
    119. A(O  47,O  27,O  48)           40.1986         0.104482   
    120. A(O  48,O  27,N  49)           22.0236         0.109734   
    121. A(C  26,O  27,O  47)           99.9875         0.168861   
    122. A(C  26,O  27,O  48)          131.1271         0.171905   
    123. A(C  26,O  27,N  49)          110.5323         0.195952   
    124. A(O  47,O  27,N  49)           21.6668         0.108972   
    125. A(C  29,C  28,C  30)          118.3044         0.429726   
    126. A(C  22,C  28,C  30)          122.9551         0.410750   
    127. A(C  22,C  28,C  29)          118.7399         0.412380   
    128. A(C  31,C  29,H  32)          119.2761         0.354379   
    129. A(C  28,C  29,H  32)          119.5973         0.352848   
    130. A(C  28,C  29,C  31)          121.1260         0.433438   
    131. A(C  33,C  30,H  34)          117.4577         0.356424   
    132. A(C  28,C  30,H  34)          121.5234         0.351659   
    133. A(C  28,C  30,C  33)          121.0187         0.434159   
    134. A(C  35,C  31,H  36)          119.5062         0.354140   
    135. A(C  29,C  31,H  36)          120.4504         0.354272   
    136. A(C  29,C  31,C  35)          120.0425         0.435264   
    137. A(C  35,C  33,O  39)          120.0336         0.424175   
    138. A(C  30,C  33,O  39)          119.8734         0.430947   
    139. A(C  30,C  33,C  35)          120.0534         0.433461   
    140. A(C  33,C  35,O  37)          117.2032         0.428555   
    141. A(C  31,C  35,O  37)          123.3423         0.432778   
    142. A(C  31,C  35,C  33)          119.4535         0.430839   
    143. A(C  35,O  37,H  38)          110.4463         0.369688   
    144. A(C  33,O  39,C  40)          113.3062         0.405672   
    145. A(H  41,C  40,H  42)          109.6932         0.290502   
    146. A(O  39,C  40,H  42)          106.4861         0.335998   
    147. A(O  39,C  40,H  41)          110.1483         0.334875   
    148. A(H  42,C  40,H  43)          109.6836         0.290805   
    149. A(H  41,C  40,H  43)          109.9136         0.289888   
    150. A(O  39,C  40,H  43)          110.8555         0.335245   
    151. A(H  46,C  44,O  47)           50.9279         0.142028   
    152. A(H  45,C  44,O  47)          154.1997         0.142024   
    153. A(C  26,C  44,O  47)           90.2434         0.151579   
    154. A(C   4,C  44,O  47)           71.7412         0.151285   
    155. A(H  45,C  44,H  46)          107.1428         0.289851   
    156. A(C  26,C  44,H  46)          107.8418         0.326041   
    157. A(C   4,C  44,H  46)          108.6605         0.324928   
    158. A(C  26,C  44,H  45)          111.7212         0.326024   
    159. A(C   4,C  44,H  45)          110.0208         0.324910   
    160. A(C   4,C  44,C  26)          111.2938         0.367418   
    161. A(O   5,O  47,C  44)           42.3900         0.102007   
    162. A(O   5,O  47,O  27)           61.4232         0.102425   
    163. A(C   4,O  47,O   5)           21.5100         0.103441   
    164. A(O   5,O  47,N  49)           75.8864         0.160563   
    165. A(O  27,O  47,C  44)           42.9301         0.103449   
    166. A(C   4,O  47,C  44)           27.3183         0.104543   
    167. A(C  44,O  47,N  49)           96.1533         0.166022   
    168. A(C   4,O  47,O  27)           62.0100         0.105042   
    169. A(O  27,O  47,N  49)           62.2897         0.168496   
    170. A(C   4,O  47,N  49)           94.9178         0.174513   
    171. A(O  27,O  48,N  49)           64.3020         0.171701   
    172. A(C   4,N  49,C  26)           42.4529         0.099218   
    173. A(O   5,N  49,C  26)           47.6106         0.100817   
    174. A(C  26,N  49,O  27)           19.2564         0.105470   
    175. A(C  26,N  49,O  48)          111.8519         0.154695   
    176. A(C  26,N  49,O  47)           87.4047         0.154557   
    177. A(C   4,N  49,O   5)           20.6466         0.100907   
    178. A(C   4,N  49,O  27)           61.5537         0.105595   
    179. A(C   4,N  49,O  48)          152.6111         0.155192   
    180. A(C   4,N  49,O  47)           65.0939         0.155053   
    181. A(O   5,N  49,O  27)           65.9446         0.108192   
    182. A(O   5,N  49,O  48)          140.7411         0.165550   
    183. A(O   5,N  49,O  47)           83.3354         0.165389   
    184. A(O  27,N  49,O  48)           93.6744         0.195689   
    185. A(O  27,N  49,O  47)           96.0434         0.195464   
    186. A(O  47,N  49,O  48)          133.9243         0.513657   
    187. D(H   3,C   2,C   0,H   1)    179.6018         0.039801   
    188. D(C   4,C   2,C   0,C   6)    179.8205         0.039801   
    189. D(C   4,C   2,C   0,H   1)     -0.0745         0.039801   
    190. D(H   3,C   2,C   0,C   6)     -0.5032         0.039801   
    191. D(O  47,C   4,C   2,C   0)     85.1857         0.016930   
    192. D(O   5,C   4,C   2,H   3)     -0.9145         0.016930   
    193. D(C  44,C   4,C   2,H   3)    179.5958         0.016930   
    194. D(C  44,C   4,C   2,C   0)     -0.7044         0.016930   
    195. D(O   5,C   4,C   2,C   0)    178.7852         0.016930   
    196. D(O  47,C   4,C   2,H   3)    -94.5140         0.016930   
    197. D(O  47,O   5,C   4,C  44)     77.8187         0.116623   
    198. D(O  47,O   5,C   4,N  49)      9.7366         0.116623   
    199. D(O  47,O   5,C   4,C   2)   -101.6630         0.116623   
    200. D(N  49,O   5,C   4,O  47)     -9.7366         0.116623   
    201. D(N  49,O   5,C   4,C   2)   -111.3996         0.116623   
    202. D(N  49,O   5,C   4,C  44)     68.0821         0.116623   
    203. D(C   8,C   6,C   0,H   1)   -179.7633         0.015227   
    204. D(C   8,C   6,C   0,C   2)      0.3376         0.015227   
    205. D(C   7,C   6,C   0,C   2)   -179.3479         0.015227   
    206. D(C   7,C   6,C   0,H   1)      0.5512         0.015227   
    207. D(H  10,C   7,C   6,C   0)     -0.2083         0.025682   
    208. D(C   9,C   7,C   6,C   0)    179.9668         0.025682   
    209. D(H  10,C   7,C   6,C   8)   -179.9084         0.025682   
    210. D(C   9,C   7,C   6,C   8)      0.2668         0.025682   
    211. D(H  12,C   8,C   6,C   7)   -179.8731         0.024474   
    212. D(C  11,C   8,C   6,C   7)     -0.3122         0.024474   
    213. D(H  12,C   8,C   6,C   0)      0.4399         0.024474   
    214. D(C  11,C   8,C   6,C   0)   -179.9992         0.024474   
    215. D(C  13,C   9,C   7,H  10)   -179.7045         0.027092   
    216. D(H  14,C   9,C   7,C   6)    179.5906         0.027092   
    217. D(C  13,C   9,C   7,C   6)      0.1210         0.027092   
    218. D(H  14,C   9,C   7,H  10)     -0.2349         0.027092   
    219. D(O  17,C  11,C   8,H  12)      2.0365         0.028993   
    220. D(O  17,C  11,C   8,C   6)   -177.5415         0.028993   
    221. D(C  13,C  11,C   8,H  12)    179.5497         0.028993   
    222. D(C  13,C  11,C   8,C   6)     -0.0283         0.028993   
    223. D(O  15,C  13,C   9,C   7)    179.0587         0.026963   
    224. D(C   9,C  13,C  11,O  17)    177.9274         0.024012   
    225. D(O  15,C  13,C  11,C   8)   -179.1329         0.024012   
    226. D(C   9,C  13,C  11,C   8)      0.4200         0.024012   
    227. D(O  15,C  13,C  11,O  17)     -1.6255         0.024012   
    228. D(C  11,C  13,C   9,H  14)   -179.9397         0.026963   
    229. D(O  15,C  13,C   9,H  14)     -0.4160         0.026963   
    230. D(C  11,C  13,C   9,C   7)     -0.4650         0.026963   
    231. D(H  16,O  15,C  13,C   9)      0.4028         0.029088   
    232. D(H  16,O  15,C  13,C  11)    179.9366         0.029088   
    233. D(C  18,O  17,C  11,C   8)   -105.0008         0.025707   
    234. D(C  18,O  17,C  11,C  13)     77.4868         0.025707   
    235. D(H  21,C  18,O  17,C  11)    -60.2286         0.017924   
    236. D(H  20,C  18,O  17,C  11)   -179.4755         0.017924   
    237. D(H  19,C  18,O  17,C  11)     61.6631         0.017924   
    238. D(C  26,C  24,C  22,C  28)   -178.7840         0.039811   
    239. D(C  26,C  24,C  22,H  23)      0.7198         0.039811   
    240. D(H  25,C  24,C  22,C  28)     -0.7063         0.039811   
    241. D(H  25,C  24,C  22,H  23)    178.7975         0.039811   
    242. D(N  49,C  26,C  24,C  22)    113.0018         0.016020   
    243. D(C  44,C  26,C  24,H  25)    177.8004         0.016020   
    244. D(C  44,C  26,C  24,C  22)     -3.9872         0.016020   
    245. D(O  27,C  26,C  24,C  22)    175.8734         0.016020   
    246. D(O  27,C  26,C  24,H  25)     -2.3390         0.016020   
    247. D(O  48,O  27,C  26,C  24)   -122.2992         0.114981   
    248. D(N  49,O  27,C  26,C  24)   -131.4930         0.114981   
    249. D(N  49,O  27,C  26,C  44)     48.3685         0.114981   
    250. D(O  47,O  27,C  26,C  24)   -151.1533         0.114981   
    251. D(O  48,O  27,C  26,N  49)      9.1938         0.114981   
    252. D(O  48,O  27,C  26,C  44)     57.5624         0.114981   
    253. D(C  30,C  28,C  22,C  24)     -2.4551         0.015253   
    254. D(C  30,C  28,C  22,H  23)    178.0200         0.015253   
    255. D(C  29,C  28,C  22,C  24)    177.8114         0.015253   
    256. D(C  29,C  28,C  22,H  23)     -1.7135         0.015253   
    257. D(H  32,C  29,C  28,C  30)   -179.9181         0.025669   
    258. D(C  31,C  29,C  28,C  30)      0.3617         0.025669   
    259. D(C  31,C  29,C  28,C  22)   -179.8923         0.025669   
    260. D(H  32,C  29,C  28,C  22)     -0.1721         0.025669   
    261. D(H  34,C  30,C  28,C  29)    179.8898         0.024489   
    262. D(H  34,C  30,C  28,C  22)      0.1552         0.024489   
    263. D(C  33,C  30,C  28,C  29)     -0.2439         0.024489   
    264. D(C  33,C  30,C  28,C  22)   -179.9785         0.024489   
    265. D(H  36,C  31,C  29,H  32)     -0.2153         0.027099   
    266. D(H  36,C  31,C  29,C  28)    179.5058         0.027099   
    267. D(C  35,C  31,C  29,H  32)   -179.8599         0.027099   
    268. D(C  35,C  31,C  29,C  28)     -0.1388         0.027099   
    269. D(O  39,C  33,C  30,H  34)      2.0644         0.028984   
    270. D(O  39,C  33,C  30,C  28)   -177.8071         0.028984   
    271. D(C  35,C  33,C  30,H  34)    179.7768         0.028984   
    272. D(C  35,C  33,C  30,C  28)     -0.0948         0.028984   
    273. D(C  31,C  35,C  33,O  39)    178.0309         0.024033   
    274. D(O  37,C  35,C  31,H  36)     -0.2189         0.026972   
    275. D(C  33,C  35,C  31,H  36)   -179.8544         0.026972   
    276. D(C  33,C  35,C  31,C  29)     -0.2065         0.026972   
    277. D(O  37,C  35,C  31,C  29)    179.4291         0.026972   
    278. D(C  31,C  35,C  33,C  30)      0.3223         0.024033   
    279. D(O  37,C  35,C  33,O  39)     -1.6267         0.024033   
    280. D(O  37,C  35,C  33,C  30)   -179.3354         0.024033   
    281. D(H  38,O  37,C  35,C  33)   -179.2513         0.029028   
    282. D(H  38,O  37,C  35,C  31)      1.1055         0.029028   
    283. D(C  40,O  39,C  33,C  30)   -104.2382         0.025677   
    284. D(C  40,O  39,C  33,C  35)     78.0490         0.025677   
    285. D(H  43,C  40,O  39,C  33)    -59.9992         0.017935   
    286. D(H  42,C  40,O  39,C  33)   -179.2507         0.017935   
    287. D(H  41,C  40,O  39,C  33)     61.8728         0.017935   
    288. D(H  46,C  44,C  26,C  24)   -159.0009         0.012825   
    289. D(H  45,C  44,C  26,N  49)    174.0192         0.012825   
    290. D(H  45,C  44,C  26,O  27)    138.6238         0.012825   
    291. D(H  45,C  44,C  26,C  24)    -41.5144         0.012825   
    292. D(C   4,C  44,C  26,N  49)    -62.5587         0.012825   
    293. D(C   4,C  44,C  26,O  27)    -97.9542         0.012825   
    294. D(C   4,C  44,C  26,C  24)     81.9076         0.012825   
    295. D(H  45,C  44,C   4,N  49)   -172.8289         0.012992   
    296. D(H  45,C  44,C   4,O  47)   -152.7241         0.012992   
    297. D(H  45,C  44,C   4,O   5)    125.8869         0.012992   
    298. D(H  45,C  44,C   4,C   2)    -54.6241         0.012992   
    299. D(C  26,C  44,C   4,N  49)     62.7843         0.012992   
    300. D(C  26,C  44,C   4,O  47)     82.8892         0.012992   
    301. D(C  26,C  44,C   4,O   5)      1.5002         0.012992   
    302. D(C  26,C  44,C   4,C   2)   -179.0109         0.012992   
    303. D(N  49,O  47,O   5,C   4)   -151.5287         0.001500   
    304. D(C  44,O  47,C   4,O   5)    121.5382         0.001500   
    305. D(C  44,O  47,C   4,C   2)   -117.9491         0.001500   
    306. D(O  27,O  47,C   4,N  49)     54.9512         0.001500   
    307. D(O  27,O  47,C   4,C  44)    -38.9391         0.001500   
    308. D(O  27,O  47,C   4,O   5)     82.5991         0.001500   
    309. D(O  27,O  47,C   4,C   2)   -156.8882         0.001500   
    310. D(N  49,O  47,C   4,C  44)    -93.8904         0.001500   
    311. D(N  49,O  47,C   4,O   5)     27.6479         0.001500   
    312. D(C   4,O  47,O   5,N  49)    151.5287         0.001500   
    313. D(N  49,O  47,C   4,C   2)    148.1605         0.001500   
    314. D(O  27,O  47,C  44,C  26)     13.0343         0.001500   
    315. D(O  27,O  47,C  44,C   4)    125.4303         0.001500   
    316. D(C   4,O  47,C  44,H  46)    134.5743         0.001500   
    317. D(C   4,O  47,C  44,H  45)     98.3866         0.001500   
    318. D(C   4,O  47,C  44,C  26)   -112.3960         0.001500   
    319. D(N  49,O  47,C  44,H  45)   -172.8072         0.001500   
    320. D(N  49,O  47,C  44,C  26)    -23.5899         0.001500   
    321. D(N  49,O  47,C  44,C   4)     88.8061         0.001500   
    322. D(C  44,O  47,O  27,O  48)   -162.2386         0.001500   
    323. D(C  44,O  47,O  27,N  49)   -137.9356         0.001500   
    324. D(C  44,O  47,O  27,C  26)    -16.5154         0.001500   
    325. D(C   4,O  47,O  27,O  48)   -137.1839         0.001500   
    326. D(C   4,O  47,O  27,N  49)   -112.8809         0.001500   
    327. D(C   4,O  47,O  27,C  26)      8.5393         0.001500   
    328. D(N  49,O  47,C  44,H  46)   -136.6196         0.001500   
    329. D(N  49,O  47,O  27,O  48)    -24.3030         0.001500   
    330. D(N  49,O  47,O  27,C  26)    121.4202         0.001500   
    331. D(C  44,O  47,O   5,N  49)    116.0652         0.001500   
    332. D(C  44,O  47,O   5,C   4)    -35.4635         0.001500   
    333. D(O  27,O  47,O   5,N  49)     65.8559         0.001500   
    334. D(O  27,O  47,O   5,C   4)    -85.6729         0.001500   
    335. D(N  49,O  48,O  27,O  47)     23.9049         0.001500   
    336. D(N  49,O  48,O  27,C  26)    -23.5164         0.001500   
    337. D(C  26,N  49,O  48,O  27)      6.5483         0.156140   
    338. D(C   4,N  49,O  48,O  27)     23.9881         0.156140   
    339. D(O  47,N  49,O  48,O  27)   -102.0242         0.156140   
    340. D(C   4,N  49,O  47,O  27)    -54.7414         0.188012   
    341. D(O   5,N  49,O  47,C  44)    -37.5256         0.188012   
    342. D(O   5,N  49,O  47,O  27)    -64.8457         0.188012   
    343. D(O   5,N  49,O  47,C   4)    -10.1043         0.188012   
    344. D(O  27,N  49,O  47,O   5)     64.8457         0.188012   
    345. D(O  27,N  49,O  47,C  44)     27.3201         0.188012   
    346. D(O  48,N  49,O  47,O   5)    165.8827         0.188012   
    347. D(O  48,N  49,O  47,C  44)    128.3571         0.188012   
    348. D(O  48,N  49,O  47,O  27)    101.0370         0.188012   
    349. D(C   4,N  49,O  27,O  48)   -167.7192         0.001501   
    350. D(C   4,N  49,O  27,C  26)     -6.4392         0.001501   
    351. D(O   5,N  49,O  27,O  47)     79.9176         0.001501   
    352. D(O   5,N  49,O  27,C  26)     16.0933         0.001501   
    353. D(O  48,N  49,O  27,O  47)   -134.8958         0.001501   
    354. D(O  48,N  49,O  27,C  26)    161.2799         0.001501   
    355. D(O  47,N  49,O  27,O  48)    134.8958         0.001501   
    356. D(O  47,N  49,O  27,C  26)    -63.8243         0.001501   
    357. D(O   5,N  49,C  26,C  24)    -67.9613         0.001500   
    358. D(O  27,N  49,C  26,C  44)   -138.9870         0.001500   
    359. D(O  27,N  49,C  26,C  24)     91.9959         0.001500   
    360. D(O  48,N  49,C  26,C  44)   -159.1737         0.001500   
    361. D(O  48,N  49,C  26,O  27)    -20.1866         0.001500   
    362. D(O  48,N  49,C  26,C  24)     71.8093         0.001500   
    363. D(O  47,N  49,C  26,C  44)    -22.2874         0.001500   
    364. D(O  47,N  49,C  26,O  27)    116.6996         0.001500   
    365. D(O  47,N  49,C  26,C  24)   -151.3044         0.001500   
    366. D(C  26,N  49,O   5,O  47)    -92.5752         0.001500   
    367. D(C  26,N  49,O   5,C   4)    -65.7489         0.001500   
    368. D(O   5,N  49,O  27,O  48)   -145.1866         0.001501   
    369. D(C   4,N  49,O   5,O  47)    -26.8263         0.001500   
    370. D(O  27,N  49,O   5,O  47)    -99.6854         0.001500   
    371. D(O  27,N  49,O   5,C   4)    -72.8591         0.001500   
    372. D(O  48,N  49,O  47,C   4)    155.7784         0.188012   
    373. D(O  48,N  49,O   5,O  47)   -163.8826         0.001500   
    374. D(O  48,N  49,O   5,C   4)   -137.0564         0.001500   
    375. D(O  47,N  49,O   5,C   4)     26.8263         0.001500   
    376. D(O  27,N  49,O  47,C   4)     54.7414         0.188012   
    377. D(O  27,N  49,C   4,C  44)    -29.3142         0.001500   
    378. D(O  27,N  49,C   4,O   5)     97.0628         0.001500   
    379. D(O  27,N  49,C   4,C   2)   -148.4345         0.001500   
    380. D(O  48,N  49,C   4,O  47)   -140.0329         0.001500   
    381. D(O  48,N  49,C   4,C  44)    -56.7930         0.001500   
    382. D(O  48,N  49,C   4,O   5)     69.5840         0.001500   
    383. D(O  48,N  49,C   4,C   2)   -175.9134         0.001500   
    384. D(O   5,N  49,O  48,O  27)     55.4672         0.156140   
    385. D(O  47,N  49,C   4,C  44)     83.2398         0.001500   
    386. D(O  47,N  49,C   4,O   5)   -150.3831         0.001500   
    387. D(O  47,N  49,C   4,C   2)    -35.8805         0.001500   
    -----------------------------------------------------------------

Number of atoms                         .... 50
Number of degrees of freedom            .... 387


         *************************************************************
         *                GEOMETRY OPTIMIZATION CYCLE   1            *
         *************************************************************
---------------------------------
CARTESIAN COORDINATES (ANGSTROEM)
---------------------------------
  C     -2.621261    0.368235   -0.513950
  H     -2.211617    0.729405   -1.455071
  C     -1.920876    0.560606    0.613624
  H     -2.282148    0.227778    1.582608
  C     -0.614775    1.237168    0.658830
  O     -0.038732    1.399600    1.723610
  C     -3.921422   -0.297259   -0.637788
  C     -4.497597   -0.418344   -1.904231
  C     -4.614087   -0.826341    0.461395
  C     -5.728009   -1.040950   -2.076981
  H     -3.979384   -0.017871   -2.770105
  C     -5.837791   -1.446099    0.300646
  H     -4.215409   -0.759332    1.468368
  C     -6.408899   -1.554247   -0.978800
  H     -6.169170   -1.123238   -3.066153
  O     -7.622050   -2.158424   -1.067623
  H     -7.923247   -2.179811   -1.984741
  O     -6.518518   -1.910646    1.399931
  C     -6.467950   -3.336490    1.540266
  H     -5.433010   -3.665645    1.669881
  H     -7.044326   -3.579406    2.430801
  H     -6.908944   -3.828585    0.671128
  C      2.535973    0.211884   -0.277944
  H      1.583210   -0.300050   -0.398304
  C      2.557458    1.552896   -0.267477
  H      3.477745    2.113782   -0.131365
  C      1.353895    2.386676   -0.395392
  O      1.432322    3.603775   -0.302973
  C      3.683195   -0.688350   -0.131640
  C      3.458255   -2.066756   -0.122002
  C      5.002550   -0.228838   -0.005737
  C      4.509435   -2.965225    0.016119
  H      2.445422   -2.445489   -0.219390
  C      6.054459   -1.113523    0.129643
  H      5.237016    0.830582   -0.008544
  C      5.812401   -2.497613    0.144928
  H      4.321087   -4.034864    0.030208
  O      6.887434   -3.314437    0.294825
  H      6.612542   -4.239847    0.280062
  O      7.332368   -0.636963    0.296569
  C      8.135839   -0.741958   -0.885990
  H      7.700350   -0.144031   -1.691665
  H      9.117755   -0.350022   -0.628017
  H      8.226973   -1.782917   -1.202895
  C      0.001412    1.741688   -0.640515
  H      0.067663    0.925798   -1.364791
  H     -0.658518    2.500129   -1.069120
  O     -1.484706    4.262969    0.838764
  O      0.010615    5.633094    1.651961
  N     -0.547980    4.599858    1.488033

----------------------------
CARTESIAN COORDINATES (A.U.)
----------------------------
  NO LB      ZA    FRAG     MASS         X           Y           Z
   0 C     6.0000    0    12.011   -4.953466    0.695863   -0.971224
   1 H     1.0000    0     1.008   -4.179351    1.378376   -2.749686
   2 C     6.0000    0    12.011   -3.629930    1.059391    1.159582
   3 H     1.0000    0     1.008   -4.312635    0.430437    2.990695
   4 C     6.0000    0    12.011   -1.161756    2.337909    1.245008
   5 O     8.0000    0    15.999   -0.073192    2.644860    3.257150
   6 C     6.0000    0    12.011   -7.410414   -0.561738   -1.205244
   7 C     6.0000    0    12.011   -8.499226   -0.790556   -3.598475
   8 C     6.0000    0    12.011   -8.719360   -1.561557    0.871910
   9 C     6.0000    0    12.011  -10.824367   -1.967111   -3.924926
  10 H     1.0000    0     1.008   -7.519946   -0.033772   -5.234740
  11 C     6.0000    0    12.011  -11.031827   -2.732730    0.568138
  12 H     1.0000    0     1.008   -7.965969   -1.434930    2.774813
  13 C     6.0000    0    12.011  -12.111064   -2.937102   -1.849663
  14 H     1.0000    0     1.008  -11.658042   -2.122613   -5.794189
  15 O     8.0000    0    15.999  -14.403588   -4.078830   -2.017515
  16 H     1.0000    0     1.008  -14.972766   -4.119246   -3.750617
  17 O     8.0000    0    15.999  -12.318214   -3.610597    2.645486
  18 C     6.0000    0    12.011  -12.222655   -6.305053    2.910681
  19 H     1.0000    0     1.008  -10.266901   -6.927065    3.155618
  20 H     1.0000    0     1.008  -13.311847   -6.764097    4.593548
  21 H     1.0000    0     1.008  -13.056013   -7.234978    1.268249
  22 C     6.0000    0    12.011    4.792295    0.400403   -0.525238
  23 H     1.0000    0     1.008    2.991833   -0.567013   -0.752685
  24 C     6.0000    0    12.011    4.832894    2.934549   -0.505458
  25 H     1.0000    0     1.008    6.571986    3.994469   -0.248245
  26 C     6.0000    0    12.011    2.558490    4.510164   -0.747183
  27 O     8.0000    0    15.999    2.706695    6.810149   -0.572535
  28 C     6.0000    0    12.011    6.960230   -1.300793   -0.248764
  29 C     6.0000    0    12.011    6.535154   -3.905602   -0.230550
  30 C     6.0000    0    12.011    9.453449   -0.432441   -0.010841
  31 C     6.0000    0    12.011    8.521597   -5.603463    0.030460
  32 H     1.0000    0     1.008    4.621179   -4.621305   -0.414587
  33 C     6.0000    0    12.011   11.441269   -2.104253    0.244989
  34 H     1.0000    0     1.008    9.896526    1.569572   -0.016146
  35 C     6.0000    0    12.011   10.983847   -4.719805    0.273875
  36 H     1.0000    0     1.008    8.165671   -7.624788    0.057085
  37 O     8.0000    0    15.999   13.015364   -6.263379    0.557139
  38 H     1.0000    0     1.008   12.495893   -8.012150    0.529241
  39 O     8.0000    0    15.999   13.856167   -1.203685    0.560435
  40 C     6.0000    0    12.011   15.374507   -1.402097   -1.674278
  41 H     1.0000    0     1.008   14.551552   -0.272179   -3.196783
  42 H     1.0000    0     1.008   17.230060   -0.661445   -1.186781
  43 H     1.0000    0     1.008   15.546726   -3.369225   -2.273142
  44 C     6.0000    0    12.011    0.002669    3.291314   -1.210398
  45 H     1.0000    0     1.008    0.127865    1.749505   -2.579082
  46 H     1.0000    0     1.008   -1.244418    4.724559   -2.020345
  47 O     8.0000    0    15.999   -2.805688    8.055844    1.585034
  48 O     8.0000    0    15.999    0.020059   10.645004    3.121755
  49 N     7.0000    0    14.007   -1.035533    8.692471    2.811974

--------------------------------
INTERNAL COORDINATES (ANGSTROEM)
--------------------------------
 C      0   0   0     0.000000000000     0.00000000     0.00000000
 H      1   0   0     1.088100187726     0.00000000     0.00000000
 C      1   2   0     1.341256440240   118.87688652     0.00000000
 H      3   1   2     1.086379619592   122.15740004   179.60181971
 C      3   1   2     1.471625016470   123.72549872   359.92554814
 O      5   3   1     1.221460701549   120.42912101   178.78524915
 C      1   2   3     1.465822578508   114.30247846   180.09222990
 C      7   1   2     1.396609248202   118.80952985     0.55117560
 C      7   1   2     1.402823899594   122.88774832   180.23667769
 C      8   7   1     1.389745979335   121.11872882   179.96682347
 H      8   7   1     1.085661275050   119.62481170   359.79169118
 C      9   7   1     1.381084011731   121.03392390   180.00079520
 H      9   7   1     1.085093858356   121.49556448     0.43988311
 C     10   8   7     1.390355616455   120.05224304     0.12095468
 H     10   8   7     1.086211521611   120.44560188   179.59063975
 O     14  10   8     1.358180912000   123.36723426   179.05872191
 H     16  14  10     0.965547949674   110.52434090     0.40282072
 O     12   9   7     1.373907213959   119.84200697   182.45850394
 C     18  12   9     1.433626397507   113.39895153   254.99916438
 H     19  18  12     1.093729165598   110.13849905    61.66307736
 H     19  18  12     1.088241158222   106.46497864   180.52447314
 H     19  18  12     1.091803035332   110.86084731   299.77136482
 C      5   3   1     3.443249096036   131.82647727   285.33063681
 H     23   5   3     1.088265317209    50.87949029     5.00552247
 C     23   5   3     1.341225320948    73.43012127   158.45170095
 H     25  23   5     1.086300400663   122.05903113   155.42895754
 C     25  23   5     1.469732789206   123.60149557   337.35118692
 O     27  25  23     1.223120182593   120.35945286   175.87337840
 C     23   5   3     1.465587076882   150.69434645   297.09551687
 C     29  23   5     1.396671996682   118.73990981    50.20705197
 C     29  23   5     1.402747219861   122.95512785   229.94053299
 C     30  29  23     1.389713767321   121.12604382   180.10774359
 H     30  29  23     1.085703922513   119.59726023   359.82793650
 C     31  29  23     1.381125161998   121.01872960   180.02154321
 H     31  29  23     1.085058929512   121.52343813     0.15522285
 C     32  30  29     1.390314295285   120.04245530   359.86115940
 H     32  30  29     1.086186826868   120.45035445   179.50578158
 O     36  32  30     1.358442351371   123.34229260   179.42909795
 H     38  36  32     0.965488068447   110.44626143     1.10553345
 O     34  31  29     1.374054518247   119.87339626   182.19286614
 C     40  34  31     1.433539548360   113.30619721   255.76184098
 H     41  40  34     1.093745617315   110.14834540    61.87275417
 H     41  40  34     1.088266273129   106.48612887   180.74934947
 H     41  40  34     1.091938803441   110.85545252   300.00081288
 C     27  25  23     1.518322308937   120.16648050   356.01282846
 H     45  27  25     1.092996654415   111.72118783   318.48556117
 H     45  27  25     1.092905606850   107.84184920   200.99907778
 O     47  45  27     2.725842055303   110.93611187   284.80732881
 O     48  47  45     2.185066969266   117.29561516    69.70429930
 N     49  48  47     1.185950176559    23.06389997   285.92084954

---------------------------
INTERNAL COORDINATES (A.U.)
---------------------------
 C      0   0   0     0.000000000000     0.00000000     0.00000000
 H      1   0   0     2.056211361071     0.00000000     0.00000000
 C      1   2   0     2.534607347413   118.87688652     0.00000000
 H      3   1   2     2.052959958503   122.15740004   179.60181971
 C      3   1   2     2.780968252955   123.72549872   359.92554814
 O      5   3   1     2.308226209274   120.42912101   178.78524915
 C      1   2   3     2.770003234298   114.30247846   180.09222990
 C      7   1   2     2.639208995204   118.80952985     0.55117560
 C      7   1   2     2.650952984351   122.88774832   180.23667769
 C      8   7   1     2.626239296661   121.11872882   179.96682347
 H      8   7   1     2.051602484048   119.62481170   359.79169118
 C      9   7   1     2.609870550109   121.03392390   180.00079520
 H      9   7   1     2.050530221892   121.49556448     0.43988311
 C     10   8   7     2.627391343859   120.05224304     0.12095468
 H     10   8   7     2.052642299354   120.44560188   179.59063975
 O     14  10   8     2.566589964000   123.36723426   179.05872191
 H     16  14  10     1.824621194053   110.52434090     0.40282072
 O     12   9   7     2.596308367802   119.84200697   182.45850394
 C     18  12   9     2.709161269648   113.39895153   254.99916438
 H     19  18  12     2.066848587662   110.13849905    61.66307736
 H     19  18  12     2.056477756700   106.46497864   180.52447314
 H     19  18  12     2.063208728961   110.86084731   299.77136482
 C      5   3   1     6.506797802380   131.82647727   285.33063681
 H     23   5   3     2.056523410571    50.87949029     5.00552247
 C     23   5   3     2.534548540473    73.43012127   158.45170095
 H     25  23   5     2.052810256423   122.05903113   155.42895754
 C     25  23   5     2.777392461643   123.60149557   337.35118692
 O     27  25  23     2.311362173973   120.35945286   175.87337840
 C     23   5   3     2.769558200721   150.69434645   297.09551687
 C     29  23   5     2.639327572646   118.73990981    50.20705197
 C     29  23   5     2.650808080656   122.95512785   229.94053299
 C     30  29  23     2.626178424777   121.12604382   180.10774359
 H     30  29  23     2.051683076073   119.59726023   359.82793650
 C     31  29  23     2.609948312843   121.01872960   180.02154321
 H     31  29  23     2.050464215944   121.52343813     0.15522285
 C     32  30  29     2.627313258164   120.04245530   359.86115940
 H     32  30  29     2.052595633054   120.45035445   179.50578158
 O     36  32  30     2.567084012811   123.34229260   179.42909795
 H     38  36  32     1.824508034933   110.44626143     1.10553345
 O     34  31  29     2.596586732565   119.87339626   182.19286614
 C     40  34  31     2.708997148546   113.30619721   255.76184098
 H     41  40  34     2.066879676901   110.14834540    61.87275417
 H     41  40  34     2.056525216996   106.48612887   180.74934947
 H     41  40  34     2.063465293506   110.85545252   300.00081288
 C     27  25  23     2.869213346913   120.16648050   356.01282846
 H     45  27  25     2.065464342137   111.72118783   318.48556117
 H     45  27  25     2.065292287173   107.84184920   200.99907778
 O     47  45  27     5.151094968848   110.93611187   284.80732881
 O     48  47  45     4.129178156190   117.29561516    69.70429930
 N     49  48  47     2.241121042172    23.06389997   285.92084954

---------------------
BASIS SET INFORMATION
---------------------
There are 4 groups of distinct atoms

 Group   1 Type C   : 12s6p1d contracted to 5s4p1d pattern {63111/3111/1}
 Group   2 Type H   : 5s contracted to 3s pattern {311}
 Group   3 Type O   : 12s6p1d contracted to 5s4p1d pattern {63111/3111/1}
 Group   4 Type N   : 12s6p1d contracted to 5s4p1d pattern {63111/3111/1}

Atom   0C    basis set group =>   1
Atom   1H    basis set group =>   2
Atom   2C    basis set group =>   1
Atom   3H    basis set group =>   2
Atom   4C    basis set group =>   1
Atom   5O    basis set group =>   3
Atom   6C    basis set group =>   1
Atom   7C    basis set group =>   1
Atom   8C    basis set group =>   1
Atom   9C    basis set group =>   1
Atom  10H    basis set group =>   2
Atom  11C    basis set group =>   1
Atom  12H    basis set group =>   2
Atom  13C    basis set group =>   1
Atom  14H    basis set group =>   2
Atom  15O    basis set group =>   3
Atom  16H    basis set group =>   2
Atom  17O    basis set group =>   3
Atom  18C    basis set group =>   1
Atom  19H    basis set group =>   2
Atom  20H    basis set group =>   2
Atom  21H    basis set group =>   2
Atom  22C    basis set group =>   1
Atom  23H    basis set group =>   2
Atom  24C    basis set group =>   1
Atom  25H    basis set group =>   2
Atom  26C    basis set group =>   1
Atom  27O    basis set group =>   3
Atom  28C    basis set group =>   1
Atom  29C    basis set group =>   1
Atom  30C    basis set group =>   1
Atom  31C    basis set group =>   1
Atom  32H    basis set group =>   2
Atom  33C    basis set group =>   1
Atom  34H    basis set group =>   2
Atom  35C    basis set group =>   1
Atom  36H    basis set group =>   2
Atom  37O    basis set group =>   3
Atom  38H    basis set group =>   2
Atom  39O    basis set group =>   3
Atom  40C    basis set group =>   1
Atom  41H    basis set group =>   2
Atom  42H    basis set group =>   2
Atom  43H    basis set group =>   2
Atom  44C    basis set group =>   1
Atom  45H    basis set group =>   2
Atom  46H    basis set group =>   2
Atom  47O    basis set group =>   3
Atom  48O    basis set group =>   3
Atom  49N    basis set group =>   4
---------------------------------
AUXILIARY/J BASIS SET INFORMATION
---------------------------------
There are 4 groups of distinct atoms

 Group   1 Type C   : 12s5p4d2f1g contracted to 6s4p3d1f1g pattern {711111/2111/211/2/1}
 Group   2 Type H   : 5s2p1d contracted to 3s1p1d pattern {311/2/1}
 Group   3 Type O   : 12s5p4d2f1g contracted to 6s4p3d1f1g pattern {711111/2111/211/2/1}
 Group   4 Type N   : 12s5p4d2f1g contracted to 6s4p3d1f1g pattern {711111/2111/211/2/1}

Atom   0C    basis set group =>   1
Atom   1H    basis set group =>   2
Atom   2C    basis set group =>   1
Atom   3H    basis set group =>   2
Atom   4C    basis set group =>   1
Atom   5O    basis set group =>   3
Atom   6C    basis set group =>   1
Atom   7C    basis set group =>   1
Atom   8C    basis set group =>   1
Atom   9C    basis set group =>   1
Atom  10H    basis set group =>   2
Atom  11C    basis set group =>   1
Atom  12H    basis set group =>   2
Atom  13C    basis set group =>   1
Atom  14H    basis set group =>   2
Atom  15O    basis set group =>   3
Atom  16H    basis set group =>   2
Atom  17O    basis set group =>   3
Atom  18C    basis set group =>   1
Atom  19H    basis set group =>   2
Atom  20H    basis set group =>   2
Atom  21H    basis set group =>   2
Atom  22C    basis set group =>   1
Atom  23H    basis set group =>   2
Atom  24C    basis set group =>   1
Atom  25H    basis set group =>   2
Atom  26C    basis set group =>   1
Atom  27O    basis set group =>   3
Atom  28C    basis set group =>   1
Atom  29C    basis set group =>   1
Atom  30C    basis set group =>   1
Atom  31C    basis set group =>   1
Atom  32H    basis set group =>   2
Atom  33C    basis set group =>   1
Atom  34H    basis set group =>   2
Atom  35C    basis set group =>   1
Atom  36H    basis set group =>   2
Atom  37O    basis set group =>   3
Atom  38H    basis set group =>   2
Atom  39O    basis set group =>   3
Atom  40C    basis set group =>   1
Atom  41H    basis set group =>   2
Atom  42H    basis set group =>   2
Atom  43H    basis set group =>   2
Atom  44C    basis set group =>   1
Atom  45H    basis set group =>   2
Atom  46H    basis set group =>   2
Atom  47O    basis set group =>   3
Atom  48O    basis set group =>   3
Atom  49N    basis set group =>   4
------------------------------------------------------------------------------
                             ORCA STARTUP CALCULATIONS
                           -- RI-GTO INTEGRALS CHOSEN --
------------------------------------------------------------------------------
------------------------------------------------------------------------------
                   ___                                                        
                  /   \      - P O W E R E D   B Y -                         
                 /     \                                                     
                 |  |  |   _    _      __       _____    __    __             
                 |  |  |  | |  | |    /  \     |  _  \  |  |  /  |          
                  \  \/   | |  | |   /    \    | | | |  |  | /  /          
                 / \  \   | |__| |  /  /\  \   | |_| |  |  |/  /          
                |  |  |   |  __  | /  /__\  \  |    /   |      \           
                |  |  |   | |  | | |   __   |  |    \   |  |\   \          
                \     /   | |  | | |  |  |  |  | |\  \  |  | \   \       
                 \___/    |_|  |_| |__|  |__|  |_| \__\ |__|  \__/        
                                                                              
                      - O R C A' S   B I G   F R I E N D -                    
                                      &                                       
                       - I N T E G R A L  F E E D E R -                       
                                                                              
 v1 FN, 2020, v2 2021, v3 2022-2024                                           
------------------------------------------------------------------------------


----------------------
SHARK INTEGRAL PACKAGE
----------------------

Number of atoms                             ...     50
Number of basis functions                   ...    720
Number of shells                            ...    360
Maximum angular momentum                    ...      2
Integral batch strategy                     ... SHARK/LIBINT Hybrid
RI-J (if used) integral strategy            ... SPLIT-RIJ (Revised 2003 algorithm where possible)
Printlevel                                  ...      1
Contraction scheme used                     ... SEGMENTED contraction
Prescreening option                         ... SCHWARTZ
   Thresh                                   ... 2.500e-11
   Tcut                                     ... 2.500e-12
   Tpresel                                  ... 2.500e-12 
Coulomb Range Separation                    ... NOT USED
Exchange Range Separation                   ... Long Range
   Mu parameter                             ... 3.000e-01
   Scaling (regular/separated)              ... 1.500e-01 8.500e-01
Multipole approximations                    ... NOT USED
Finite Nucleus Model                        ... NOT USED
CABS basis                                  ... NOT available
Auxiliary Coulomb fitting basis             ... AVAILABLE
   # of basis functions in Aux-J            ...   1690
   # of shells in Aux-J                     ...    550
   Maximum angular momentum in Aux-J        ...      4
Auxiliary J/K fitting basis                 ... NOT available
Auxiliary Correlation fitting basis         ... NOT available
Auxiliary 'external' fitting basis          ... NOT available

Checking pre-screening integrals            ... done (  0.0 sec) Dimension = 360
Check shell pair data                       ... done (  0.0 sec)
Shell pair information
Shell pair cut-off parameter TPreSel        ...   2.5e-12
Total number of shell pairs                 ...     64980
Shell pairs after pre-screening             ...     39162
Total number of primitive shell pairs       ...    225475
Primitive shell pairs kept                  ...     85145
          la=0 lb=0:  12579 shell pairs
          la=1 lb=0:  16107 shell pairs
          la=1 lb=1:   5120 shell pairs
          la=2 lb=0:   3088 shell pairs
          la=2 lb=1:   2071 shell pairs
          la=2 lb=2:    197 shell pairs

Calculating one electron integrals          ... done (  0.2 sec)
Calculating RI/J V-Matrix + Cholesky decomp.... done (  4.1 sec)
Calculating Nuclear repulsion               ... done (  0.0 sec) ENN=   2599.872644952180 Eh

Diagonalization of the overlap matrix:
Smallest eigenvalue                        ... 1.386e-07
Time for diagonalization                   ...    0.091 sec
Threshold for overlap eigenvalues          ... 1.000e-07
Number of eigenvalues below threshold      ... 0

IMPORTANT:
Smallest eigenvalue of S below the DiffSThresh (1.000e-06) while
Thresh>1e-12 and/or TCut>1e-13! In order to avoid SCF convergence issues,
Thresh will be set to at least 1e-12 and TCut to at least 1e-13.
This can be turned off by adding %SCF DiffSThresh -1 END to the input.

Time for construction of square roots      ...    0.400 sec
Total time needed                          ...    0.569 sec

-------------------
DFT GRID GENERATION
-------------------

General Integration Accuracy     IntAcc      ... 4.388
Radial Grid Type                 RadialGrid  ... OptM3 with GC (2021)
Angular Grid (max. ang.)         AngularGrid ... 4 (Lebedev-302)
Angular grid pruning method      GridPruning ... 4 (adaptive)
Weight generation scheme         WeightScheme... mBecke (2022)
Basis function cutoff            BFCut       ... 1.0000e-11
Integration weight cutoff        WCut        ... 1.0000e-14
Partially contracted basis set               ... off
Rotationally invariant grid construction     ... off
Angular grids for H and He will be reduced by one unit
Diffuse basis detected: some atoms will have their outermost
                        angular grid increased by 1.

Total number of grid points                  ...   251623
Total number of batches                      ...     3956
Average number of points per batch           ...       63
Average number of grid points per atom       ...     5032

------------------
NL GRID GENERATION
------------------

General Integration Accuracy     IntAcc      ... 4.004
Radial Grid Type                 RadialGrid  ... OptM3 with GC (2021)
Angular Grid (max. ang.)         AngularGrid ... 2 (Lebedev-110)
Angular grid pruning method      GridPruning ... 4 (adaptive)
Weight generation scheme         WeightScheme... mBecke (2022)
Basis function cutoff            BFCut       ... 1.0000e-10
Integration weight cutoff        WCut        ... 1.0000e-14
Partially contracted basis set               ... off
Rotationally invariant grid construction     ... off
Angular grids for H and He will be reduced by one unit
Diffuse basis detected: some atoms will have their outermost
                        angular grid increased by 1.

Total number of grid points                  ...    83726
Total number of batches                      ...     1333
Average number of points per batch           ...       62
Average number of grid points per atom       ...     1675
Initializing property integral containers    ... done (  0.1 sec)

SHARK setup successfully completed in  23.3 seconds

Maximum memory used throughout the entire STARTUP-calculation: 138.2 MB
-------------------------------------------------------------------------------
                                 ORCA GUESS
                   Start orbitals & Density for SCF / CASSCF
-------------------------------------------------------------------------------

------------
SCF SETTINGS
------------
Hamiltonian:
 Density Functional     Method          .... DFT(GTOs)
  Functional kind                       .... Exchange-Correlation
  Functional name                       .... wB97M-V exchange-correlation functional
  Functional family                     .... Hybrid MGGA
  Functional refs                              
    [ 0] N. Mardirossian and M. Head-Gordon.,  J. Chem. Phys. 144, 214110 (2016), doi: 10.1063/1.4952647
  Fraction of HF Exchange (short range) .... 0.1500
  Fraction of HF Exchange (long range)  .... 1.0000
  Range separation parameter mu         .... 0.3000
  Functional external parameters        .... 17
    Parameter  0 _cx00      =  8.500000e-01 : u^00 coefficient for exchange
    Parameter  1 _cx01      =  1.007000e+00 : u^01 coefficient for exchange
    Parameter  2 _cx10      =  2.590000e-01 : u^10 coefficient for exchange
    Parameter  3 _css00     =  4.430000e-01 : u^00 coefficient for same-spin correlation
    Parameter  4 _css04     = -1.437000e+00 : u^04 coefficient for same-spin correlation
    Parameter  5 _css10     = -4.535000e+00 : u^10 coefficient for same-spin correlation
    Parameter  6 _css20     = -3.390000e+00 : u^20 coefficient for same-spin correlation
    Parameter  7 _css43     =  4.278000e+00 : u^43 coefficient for same-spin correlation
    Parameter  8 _cos00     =  1.000000e+00 : u^00 coefficient for opposite-spin correlation
    Parameter  9 _cos10     =  1.358000e+00 : u^10 coefficient for opposite-spin correlation
    Parameter 10 _cos20     =  2.924000e+00 : u^20 coefficient for opposite-spin correlation
    Parameter 11 _cos21     = -8.812000e+00 : u^21 coefficient for opposite-spin correlation
    Parameter 12 _cos60     = -1.390000e+00 : u^60 coefficient for opposite-spin correlation
    Parameter 13 _cos61     =  9.142000e+00 : u^61 coefficient for opposite-spin correlation
    Parameter 14 _alpha     =  1.000000e+00 : fraction of HF exchange
    Parameter 15 _beta      = -8.500000e-01 : fraction of short-range exchange
    Parameter 16 _omega     =  3.000000e-01 : range-separation constant
 Long-range corrected/Screened/Range-Separated Hybrid DFT is turned on
   Amount of maximum screened exact exchange              ....  0.850000
   Range separation parameter mu (erf(mu*r12)/r12)        ....  0.300000
   NL short-range parameter             ....  6.000000
   NL long-range parameter              ....  0.010000
 RI-approximation to the Coulomb term is turned on
   Number of AuxJ basis functions       .... 1690
   RIJ-ON(X) (HFX calculated with O(N)) .... on


General Settings:
 Integral files         IntName         .... CURCUMIN-OPT-FREQ-Reag-WB97M-V-6-311+G-D-363
 Hartree-Fock type      HFTyp           .... UHF
 Total Charge           Charge          ....    0
 Multiplicity           Mult            ....    2
 Number of Electrons    NEL             ....  217
 Basis Dimension        Dim             ....  720
 Nuclear Repulsion      ENuc            ....   2599.8726449522 Eh

Convergence Acceleration:
 AO-DIIS                CNVDIIS         .... on
   Start iteration      DIISMaxIt       ....    12
   Startup error        DIISStart       ....  0.200000
   # of expansion vecs  DIISMaxEq       ....     5
   Bias factor          DIISBfac        ....   1.050
   Max. coefficient     DIISMaxC        ....  10.000
 MO-DIIS                CNVKDIIS        .... off
 Trust-Rad. Augm. Hess. CNVTRAH         .... off
 SOSCF                  CNVSOSCF        .... on
   Start iteration      SOSCFMaxIt      ....   150
   Startup grad/error   SOSCFStart      ....  0.003300
   Hessian update       SOSCFHessUp     .... L-BFGS
 Level Shifting         CNVShift        .... on
   Level shift para.    LevelShift      ....    0.2500
   Turn off err/grad.   ShiftErr        ....    0.0010
 Zerner damping         CNVZerner       .... off
 Static damping         CNVDamp         .... on
   Fraction old density DampFac         ....    0.7000
   Max. Damping (<1)    DampMax         ....    0.9800
   Min. Damping (>=0)   DampMin         ....    0.0000
   Turn off err/grad.   DampErr         ....    0.1000

SCF Procedure:
 Maximum # iterations   MaxIter         ....   125
 SCF integral mode      SCFMode         .... Direct
   Integral package                     .... SHARK and LIBINT hybrid scheme
 Reset frequency        DirectResetFreq ....    20
 Integral Threshold     Thresh          ....  1.000e-12 Eh
 Primitive CutOff       TCut            ....  1.000e-13 Eh

Convergence Tolerance:
 Convergence Check Mode ConvCheckMode   .... Total+1el-Energy
 Convergence forced     ConvForced      .... 0
 Energy Change          TolE            ....  1.000e-08 Eh
 1-El. energy change                    ....  1.000e-05 Eh
 Orbital Gradient       TolG            ....  1.000e-05
 Orbital Rotation angle TolX            ....  1.000e-05
 DIIS Error             TolErr          ....  5.000e-07

------------------------------
INITIAL GUESS: MODEL POTENTIAL
------------------------------
Loading Hartree-Fock densities                     ... done
Calculating cut-offs                               ... done
Initializing the effective Hamiltonian             ... done
Setting up the integral package (SHARK)            ... done
Starting the Coulomb interaction                   ... done (   2.3 sec)
Making the grid                                    ... done (   2.5 sec)
Mapping shells                                     ... done
Starting the XC term evaluation                    ... done (   0.9 sec)
  promolecular density results
     # of electrons  =    216.993244542
     EX              =   -185.047027184
     EC              =     -7.292468621
     EX+EC           =   -192.339495804
Transforming the Hamiltonian                       ... done (   0.0 sec)
Diagonalizing the Hamiltonian                      ... done (   0.1 sec)
Back transforming the eigenvectors                 ... done (   0.8 sec)
Now organizing SCF variables                       ... done
                      ------------------
                      INITIAL GUESS DONE (  10.3 sec)
                      ------------------
             **** ENERGY FILE WAS UPDATED (CURCUMIN-OPT-FREQ-Reag-WB97M-V-6-311+G-D-363.en.tmp) ****
Finished Guess after  18.9 sec
Maximum memory used throughout the entire GUESS-calculation: 90.5 MB

-------------------------------------------------------------------------------------------
                                      ORCA LEAN-SCF
                              memory conserving SCF solver
-------------------------------------------------------------------------------------------

--------------------
CPCM SOLVATION MODEL
--------------------
CPCM parameters:
  Epsilon                                         ...       7.0000
  Refrac                                          ...       1.8534
  Rsolv                                           ...       1.3000
  Surface type                                    ... GAUSSIAN VDW
  Discretization scheme                           ... Constant charge density
    Threshold for H atoms                         ...       5.0000 (charges/Ang^2)
    Threshold for non-H atoms                     ...       5.0000 (charges/Ang^2)
  Epsilon function type                           ...         CPCM
Solvent:                                          ... CUSTOM
Radii:
  Scheme                                          ... Element-dependent radii
  Radius for C  used is    3.8550 Bohr (=   2.0400 Ang.)
  Radius for H  used is    2.4944 Bohr (=   1.3200 Ang.)
  Radius for O  used is    3.4469 Bohr (=   1.8240 Ang.)
  Radius for N  used is    3.5149 Bohr (=   1.8600 Ang.)
Calculating surface                               ...        done! (  0.0s)
Cavity surface points                             ...         4492
Cavity Volume                                     ...    3261.0381
Cavity Surface-area                               ...    1700.6935
Calculating surface distance matrix               ...        done! (  0.1s)
Performing Cholesky decomposition & store         ...        done! ( 14.5s)
Overall time for CPCM initialization              ...                14.6s

----------------------------------------D-I-I-S--------------------------------------------
Iteration    Energy (Eh)           Delta-E    RMSDP     MaxDP     DIISErr   Damp  Time(sec)
-------------------------------------------------------------------------------------------
               ***  Starting incremental Fock matrix formation  ***
    1    -1467.8616412659291655     0.00e+00  1.70e-02  2.60e+00  1.47e-01  0.700 251.2
    2    -1468.1408952498557028    -2.79e-01  1.37e-02  2.11e+00  7.22e-02  0.700 273.4
                               ***Turning on AO-DIIS***
    3    -1468.2797473531943524    -1.39e-01  1.65e-02  3.18e+00  2.89e-02  0.700 272.8
    4    -1468.3644525966228684    -8.47e-02  4.70e-02  9.16e+00  2.12e-02  0.000 277.6
    5    -1468.5499954502893161    -1.86e-01  4.48e-03  8.71e-01  4.10e-03  0.000 275.1
                              *** Initializing SOSCF ***
---------------------------------------S-O-S-C-F--------------------------------------
Iteration    Energy (Eh)           Delta-E    RMSDP     MaxDP     MaxGrad    Time(sec)
--------------------------------------------------------------------------------------
    6    -1468.5509024251580286    -9.07e-04  1.56e-03  2.66e-01  1.68e-03   238.3
               *** Restarting incremental Fock matrix formation ***
    7    -1468.5511506509012634    -2.48e-04  1.64e-03  2.85e-01  1.62e-03   282.0
    8    -1468.5512934479907017    -1.43e-04  1.29e-03  2.99e-01  7.27e-04   190.7
    9    -1468.5513340335355679    -4.06e-05  6.35e-04  1.34e-01  3.54e-04   185.7
[...]
108:   1377.73   0.033790  170.76  0.007654  (-0.084936  0.020040 -0.006159)
109:   1442.38   0.000435    2.20  0.000094  ( 0.008735 -0.001827  0.003804)
110:   1464.02   0.003053   15.43  0.000651  (-0.024370 -0.006020 -0.004545)
111:   1465.60   0.009756   49.30  0.002077  (-0.036247  0.002530 -0.027517)
112:   1468.97   0.002233   11.28  0.000474  ( 0.008901 -0.004488  0.019363)
113:   1482.57   0.003276   16.55  0.000690  ( 0.009207 -0.024479  0.002353)
114:   1483.30   0.003113   15.73  0.000655  ( 0.016078  0.001674  0.019839)
115:   1491.92   0.002340   11.83  0.000490  ( 0.012962 -0.010149  0.014783)
116:   1492.22   0.014916   75.38  0.003119  ( 0.049011  0.020753 -0.016930)
117:   1492.91   0.001628    8.23  0.000340  ( 0.010974  0.005779 -0.013654)
118:   1495.42   0.000267    1.35  0.000056  ( 0.001871 -0.007089 -0.001391)
119:   1560.83   0.081178  410.24  0.016230  (-0.113696 -0.056604  0.009979)
120:   1562.37   0.066552  336.33  0.013293  ( 0.098379 -0.058831  0.012393)
121:   1664.84   0.002627   13.28  0.000493  (-0.006166  0.003889 -0.020961)
122:   1665.80   0.001683    8.50  0.000315  ( 0.013539  0.011234 -0.002388)
123:   1678.99   0.083278  420.86  0.015478  (-0.056158  0.109996 -0.015019)
124:   1682.46   0.080644  407.54  0.014958  (-0.095761 -0.043488 -0.062421)
125:   1706.46   0.226394  1144.10  0.041401  ( 0.107644  0.159366  0.066457)
126:   1718.27   0.110042  556.11  0.019985  (-0.121531  0.052927 -0.049137)
127:   1720.31   0.018136   91.65  0.003290  (-0.052899 -0.009408 -0.020077)
128:   1725.66   0.082341  416.12  0.014890  (-0.065419  0.073270 -0.072402)
129:   1744.21   0.143058  722.96  0.025595  (-0.044918 -0.132199 -0.078108)
130:   3044.30   0.013618   68.82  0.001396  ( 0.004692 -0.035455  0.010813)
131:   3044.82   0.013031   65.85  0.001336  ( 0.021776  0.003590 -0.029129)
132:   3088.90   0.001205    6.09  0.000122  ( 0.008613  0.006616  0.001934)
133:   3120.64   0.008322   42.05  0.000832  ( 0.013994 -0.024464  0.006153)
134:   3122.08   0.008342   42.16  0.000834  ( 0.025918  0.007433  0.010334)
135:   3134.21   0.000662    3.35  0.000066  (-0.005522  0.005527  0.002215)
136:   3165.74   0.007209   36.43  0.000711  (-0.022569 -0.010234 -0.009826)
137:   3168.28   0.007075   35.75  0.000697  (-0.013676 -0.002888  0.022394)
138:   3170.54   0.001431    7.23  0.000141  ( 0.008365  0.004942 -0.006818)
139:   3173.01   0.002198   11.11  0.000216  ( 0.014258  0.002991  0.001974)
140:   3179.88   0.003114   15.73  0.000306  (-0.013435  0.010979 -0.002129)
141:   3180.56   0.002882   14.56  0.000283  (-0.015190 -0.007095 -0.001293)
142:   3187.58   0.001684    8.51  0.000165  ( 0.009056  0.004988 -0.007616)
143:   3189.14   0.001868    9.44  0.000183  ( 0.013217  0.002512  0.001347)
144:   3195.78   0.002697   13.63  0.000263  ( 0.001576 -0.001746  0.016058)
145:   3195.85   0.002684   13.56  0.000262  ( 0.009658  0.012961  0.000881)
146:   3204.03   0.001339    6.77  0.000130  (-0.008932 -0.007062 -0.000891)
147:   3204.97   0.001012    5.12  0.000099  ( 0.002217  0.002834 -0.009253)
148:   3797.93   0.037311  188.56  0.003066  ( 0.039715  0.012911  0.036356)
149:   3800.96   0.036516  184.54  0.002998  (-0.013862  0.052919 -0.002329)

* The epsilon (eps) is given for a Dirac delta lineshape.
** The dipole moment derivative (T) already includes vibrational overlap.

The first frequency considered to be a vibration is 7
The total number of vibrations considered is 143


--------------------------
THERMOCHEMISTRY AT 363.15K
--------------------------

Temperature         ...   363.15 K
Pressure            ...     1.00 atm
Total Mass          ...   414.39 AMU
Quasi RRHO          ...     True
Cut-Off Frequency   ...     1.00 cm^-1

Throughout the following assumptions are being made:
  (1) The electronic state is orbitally nondegenerate
      but the spin degeneracy is treated
  (2) There are no thermally accessible electronically excited states
  (3) Hindered rotations indicated by low frequency modes are not
      treated as such but are treated as vibrations and this may
      cause some error
  (4) All equations used are the standard statistical mechanics
      equations for an ideal gas
  (5) All vibrations are strictly harmonic

freq.      10.81  E(vib)   ...       0.71 
freq.      15.80  E(vib)   ...       0.70 
freq.      21.80  E(vib)   ...       0.69 
freq.      26.12  E(vib)   ...       0.68 
freq.      48.76  E(vib)   ...       0.65 
freq.      52.02  E(vib)   ...       0.65 
freq.      53.33  E(vib)   ...       0.65 
freq.      59.99  E(vib)   ...       0.64 
freq.      69.34  E(vib)   ...       0.63 
freq.      71.88  E(vib)   ...       0.62 
freq.      75.85  E(vib)   ...       0.62 
freq.      82.52  E(vib)   ...       0.61 
freq.      86.88  E(vib)   ...       0.60 
freq.     102.86  E(vib)   ...       0.58 
freq.     129.87  E(vib)   ...       0.55 
freq.     133.26  E(vib)   ...       0.55 
freq.     137.45  E(vib)   ...       0.54 
freq.     141.28  E(vib)   ...       0.54 
freq.     149.95  E(vib)   ...       0.53 
freq.     153.34  E(vib)   ...       0.52 
freq.     163.29  E(vib)   ...       0.51 
freq.     165.61  E(vib)   ...       0.51 
freq.     169.62  E(vib)   ...       0.51 
freq.     202.57  E(vib)   ...       0.47 
freq.     210.91  E(vib)   ...       0.46 
freq.     241.76  E(vib)   ...       0.43 
freq.     302.10  E(vib)   ...       0.37 
freq.     303.04  E(vib)   ...       0.37 
freq.     318.80  E(vib)   ...       0.36 
freq.     320.73  E(vib)   ...       0.36 
freq.     338.46  E(vib)   ...       0.34 
freq.     341.47  E(vib)   ...       0.34 
freq.     376.97  E(vib)   ...       0.31 
freq.     378.19  E(vib)   ...       0.31 
freq.     399.08  E(vib)   ...       0.30 
freq.     400.42  E(vib)   ...       0.29 
freq.     419.65  E(vib)   ...       0.28 
freq.     462.22  E(vib)   ...       0.25 
freq.     472.90  E(vib)   ...       0.25 
freq.     475.21  E(vib)   ...       0.24 
freq.     501.05  E(vib)   ...       0.23 
freq.     502.79  E(vib)   ...       0.23 
freq.     546.95  E(vib)   ...       0.20 
freq.     561.72  E(vib)   ...       0.19 
freq.     570.03  E(vib)   ...       0.19 
freq.     582.22  E(vib)   ...       0.18 
freq.     594.80  E(vib)   ...       0.18 
freq.     597.06  E(vib)   ...       0.18 
freq.     613.96  E(vib)   ...       0.17 
freq.     650.04  E(vib)   ...       0.15 
freq.     656.01  E(vib)   ...       0.15 
freq.     722.23  E(vib)   ...       0.13 
freq.     754.89  E(vib)   ...       0.11 
freq.     756.24  E(vib)   ...       0.11 
freq.     771.39  E(vib)   ...       0.11 
freq.     771.90  E(vib)   ...       0.11 
freq.     775.05  E(vib)   ...       0.11 
freq.     819.43  E(vib)   ...       0.09 
freq.     820.82  E(vib)   ...       0.09 
freq.     830.52  E(vib)   ...       0.09 
freq.     831.02  E(vib)   ...       0.09 
freq.     861.33  E(vib)   ...       0.08 
freq.     872.26  E(vib)   ...       0.08 
freq.     890.14  E(vib)   ...       0.08 
freq.     917.88  E(vib)   ...       0.07 
freq.     924.76  E(vib)   ...       0.07 
freq.     929.80  E(vib)   ...       0.07 
freq.     961.69  E(vib)   ...       0.06 
freq.     967.43  E(vib)   ...       0.06 
freq.     967.72  E(vib)   ...       0.06 
freq.     974.28  E(vib)   ...       0.06 
freq.     982.19  E(vib)   ...       0.06 
freq.    1010.97  E(vib)   ...       0.05 
freq.    1018.38  E(vib)   ...       0.05 
freq.    1056.93  E(vib)   ...       0.05 
freq.    1058.39  E(vib)   ...       0.05 
freq.    1143.43  E(vib)   ...       0.04 
freq.    1144.20  E(vib)   ...       0.04 
freq.    1172.52  E(vib)   ...       0.03 
freq.    1175.93  E(vib)   ...       0.03 
freq.    1177.79  E(vib)   ...       0.03 
freq.    1188.16  E(vib)   ...       0.03 
freq.    1188.40  E(vib)   ...       0.03 
freq.    1198.55  E(vib)   ...       0.03 
freq.    1200.78  E(vib)   ...       0.03 
freq.    1204.52  E(vib)   ...       0.03 
freq.    1222.48  E(vib)   ...       0.03 
freq.    1223.26  E(vib)   ...       0.03 
freq.    1265.61  E(vib)   ...       0.02 
freq.    1273.58  E(vib)   ...       0.02 
freq.    1286.05  E(vib)   ...       0.02 
freq.    1290.10  E(vib)   ...       0.02 
freq.    1303.23  E(vib)   ...       0.02 
freq.    1313.83  E(vib)   ...       0.02 
freq.    1314.82  E(vib)   ...       0.02 
freq.    1323.13  E(vib)   ...       0.02 
freq.    1340.67  E(vib)   ...       0.02 
freq.    1361.67  E(vib)   ...       0.02 
freq.    1365.77  E(vib)   ...       0.02 
freq.    1370.36  E(vib)   ...       0.02 
freq.    1377.08  E(vib)   ...       0.02 
freq.    1377.73  E(vib)   ...       0.02 
freq.    1442.38  E(vib)   ...       0.01 
freq.    1464.02  E(vib)   ...       0.01 
freq.    1465.60  E(vib)   ...       0.01 
freq.    1468.97  E(vib)   ...       0.01 
freq.    1482.57  E(vib)   ...       0.01 
freq.    1483.30  E(vib)   ...       0.01 
freq.    1491.92  E(vib)   ...       0.01 
freq.    1492.22  E(vib)   ...       0.01 
freq.    1492.91  E(vib)   ...       0.01 
freq.    1495.42  E(vib)   ...       0.01 
freq.    1560.83  E(vib)   ...       0.01 
freq.    1562.37  E(vib)   ...       0.01 
freq.    1664.84  E(vib)   ...       0.01 
freq.    1665.80  E(vib)   ...       0.01 
freq.    1678.99  E(vib)   ...       0.01 
freq.    1682.46  E(vib)   ...       0.01 
freq.    1706.46  E(vib)   ...       0.01 
freq.    1718.27  E(vib)   ...       0.01 
freq.    1720.31  E(vib)   ...       0.01 
freq.    1725.66  E(vib)   ...       0.01 
freq.    1744.21  E(vib)   ...       0.00 
freq.    3044.30  E(vib)   ...       0.00 
freq.    3044.82  E(vib)   ...       0.00 
freq.    3088.90  E(vib)   ...       0.00 
freq.    3120.64  E(vib)   ...       0.00 
freq.    3122.08  E(vib)   ...       0.00 
freq.    3134.21  E(vib)   ...       0.00 
freq.    3165.74  E(vib)   ...       0.00 
freq.    3168.28  E(vib)   ...       0.00 
freq.    3170.54  E(vib)   ...       0.00 
freq.    3173.01  E(vib)   ...       0.00 
freq.    3179.88  E(vib)   ...       0.00 
freq.    3180.56  E(vib)   ...       0.00 
freq.    3187.58  E(vib)   ...       0.00 
freq.    3189.14  E(vib)   ...       0.00 
freq.    3195.78  E(vib)   ...       0.00 
freq.    3195.85  E(vib)   ...       0.00 
freq.    3204.03  E(vib)   ...       0.00 
freq.    3204.97  E(vib)   ...       0.00 
freq.    3797.93  E(vib)   ...       0.00 
freq.    3800.96  E(vib)   ...       0.00 

------------
INNER ENERGY
------------

The inner energy is: U= E(el) + E(ZPE) + E(vib) + E(rot) + E(trans)
    E(el)   - is the total energy from the electronic structure calculation
              = E(kin-el) + E(nuc-el) + E(el-el) + E(nuc-nuc)
    E(ZPE)  - the the zero temperature vibrational energy from the frequency calculation
    E(vib)  - the the finite temperature correction to E(ZPE) due to population
              of excited vibrational states
    E(rot)  - is the rotational thermal energy
    E(trans)- is the translational thermal energy

Summary of contributions to the inner energy U:
Electronic energy                ...  -1468.55135700 Eh
Zero point energy                ...      0.38066521 Eh     238.87 kcal/mol
Thermal vibrational correction   ...      0.03897786 Eh      24.46 kcal/mol
Thermal rotational correction    ...      0.00172503 Eh       1.08 kcal/mol
Thermal translational correction ...      0.00172503 Eh       1.08 kcal/mol
-----------------------------------------------------------------------
Total thermal energy                  -1468.12826386 Eh


Summary of corrections to the electronic energy:
(perhaps to be used in another calculation)
Total thermal correction                  0.04242793 Eh      26.62 kcal/mol
Non-thermal (ZPE) correction              0.38066521 Eh     238.87 kcal/mol
-----------------------------------------------------------------------
Total correction                          0.42309314 Eh     265.49 kcal/mol


--------
ENTHALPY
--------

The enthalpy is H = U + kB*T
                kB is Boltzmann's constant
Total thermal energy              ...  -1468.12826386 Eh 
Thermal Enthalpy correction       ...      0.00115006 Eh       0.72 kcal/mol
-----------------------------------------------------------------------
Total Enthalpy                    ...  -1468.12711380 Eh


Note: Only C1 symmetry has been detected, increase convergence thresholds 
      if your molecule has a higher symmetry. Symmetry factor of 1.0 is   
      used for the rotational entropy correction. 
 

Note: Rotational entropy computed according to Herzberg 
Infrared and Raman Spectra, Chapter V,1, Van Nostrand Reinhold, 1945 
Point Group:  C1, Symmetry Number:   1  
Rotational constants in cm-1:     0.006092     0.001760     0.001453 

Vibrational entropy computed according to the QRRHO of S. Grimme
Chem.Eur.J. 2012 18 9955 using a reference frequency of 100.0 cm-1


-------
ENTROPY
-------

The entropy contributions are T*S = T*(S(el)+S(vib)+S(rot)+S(trans))
     S(el)   - electronic entropy
     S(vib)  - vibrational entropy
     S(rot)  - rotational entropy
     S(trans)- translational entropy
The entropies will be listed as multiplied by the temperature to get
units of energy

Electronic entropy                ...      0.00079714 Eh      0.50 kcal/mol
Vibrational entropy               ...      0.07340627 Eh     46.06 kcal/mol
Rotational entropy                ...      0.02226180 Eh     13.97 kcal/mol
Translational entropy             ...      0.02600477 Eh     16.32 kcal/mol
-----------------------------------------------------------------------
Final entropy term                ...      0.12246998 Eh     76.85 kcal/mol

In case the symmetry of your molecule has not been determined correctly
or in case you have a reason to use a different symmetry number we print 
out the resulting rotational entropy values for sn=1,12:

 non-linear molecules -----------------------------------
|  sn= 1 | S(rot)=       0.02226180 Eh     13.97 kcal/mol|
|  sn= 2 | S(rot)=       0.02146466 Eh     13.47 kcal/mol|
|  sn= 3 | S(rot)=       0.02099837 Eh     13.18 kcal/mol|
|  sn= 4 | S(rot)=       0.02066753 Eh     12.97 kcal/mol|
|  sn= 5 | S(rot)=       0.02041091 Eh     12.81 kcal/mol|
|  sn= 6 | S(rot)=       0.02020124 Eh     12.68 kcal/mol|
|  sn= 7 | S(rot)=       0.02002396 Eh     12.57 kcal/mol|
|  sn= 8 | S(rot)=       0.01987039 Eh     12.47 kcal/mol|
|  sn= 9 | S(rot)=       0.01973494 Eh     12.38 kcal/mol|
|  sn=10 | S(rot)=       0.01961377 Eh     12.31 kcal/mol|
|  sn=11 | S(rot)=       0.01950417 Eh     12.24 kcal/mol|
|  sn=12 | S(rot)=       0.01940410 Eh     12.18 kcal/mol|
 linear molecules ---------------------------------------
|  Dinfh | S(rot)=       0.01422834 Eh      8.93 kcal/mol|
|  Cinfv | S(rot)=       0.01502548 Eh      9.43 kcal/mol|
 --------------------------------------------------------


-------------------
GIBBS FREE ENERGY
-------------------

The Gibbs free energy is G = H - T*S

Total enthalpy                    ...  -1468.12711380 Eh 
Total entropy correction          ...     -0.12246998 Eh    -76.85 kcal/mol
-----------------------------------------------------------------------
Final Gibbs free energy         ...  -1468.24958378 Eh

For completeness - the Gibbs free energy minus the electronic energy
G-E(el)                           ...      0.30177322 Eh    189.37 kcal/mol



--------------------------------
SUGGESTED CITATIONS FOR THIS RUN
--------------------------------

Below you find a list of papers that are relevant to this ORCA run
We neither can nor want to force you to cite these papers, but we appreciate if you do
You receive ORCA, which is the product of decades of hard work by many enthusiastic individuals, for free
The only thing we kindly ask in return is that you cite our papers,
We deeply appreciate it, if you show your appreciation for ORCA by not just citing the generic ORCA reference.

Please note that relegating all ORCA citations to the supporting information does *not* help us.
SI sections are not indexed - citations you put there will not count into any citation statistics
But we need these citations in order to attract the funding resources that allow us to do what we are doing

Therefore, if you are a happy ORCA user, please consider citing a few of the papers listed below in the main body of your paper

In addition to the list printed below, the program has created the file CURCUMIN-OPT-FREQ-Reag-WB97M-V-6-311+G-D-363.bibtex that contains the list in bibtex format
You can import this file easily into all common literature databanks and citation aid programs


List of essential papers. We consider these as the minimum necessary citations

  1. Neese,F.
     Software update: the ORCA program system, version 5.0
     WIRES Comput. Molec. Sci., 2022 12(1)e1606
     doi.org/10.1002/wcms.1606

List of papers to cite with high priority. The work reported in these papers was absolutely
necessary for this run to complete.
Our perspective: the developers of density functionals and basis sets usually get cited in chemistry papers
Good! But without the algorithms to do something with them, the functionals or basis sets would not do anything.
Hence, in our opinion, the algorithm design and method developments papers are equally worthy of getting cited

  1. Neese,F.
     An improvement of the resolution of the identity approximation for the formation of the Coulomb matrix
     J. Comp. Chem., 2003 24(14)1740-1747
     doi.org/10.1002/jcc.10318
  2. Bykov,D.; Petrenko,T.; Izsak,R.; Kossmann,S.; Becker,U.; Valeev,E.; Neese,F.
     Efficient implementation of the analytic second derivatives of Hartree-Fock and hybrid DFT energies: a detailed analysis of different approximations
     Molec. Phys., 2015 113 1961-1977
     doi.org/10.1080/00268976.2015.1025114
  3. Garcia-Rates,M.; Neese,F.
     Effect of the Solute Cavity on the Solvation Energy and its Derivatives within the Framework of the Gaussian Charge Scheme
     J. Comput. Chem., 2020 41 922-939
     doi.org/10.1002/jcc.26139
  4. Neese,F.
     The SHARK Integral Generation and Digestion System
     J. Comp. Chem., 2022  1-16
     doi.org/10.1002/jcc.26942
  5. Lehtola,S.; Steigemann,C.; Oliveira,M.; Marques,M.
     Recent developments in Libxc - A comprehensive library of functionals for density functional theory
     Software X, 2018 7 
     doi.org/10.1016/j.softx.2017.11.002

List of suggested additional citations. These are papers that are important in the 'surrounding' of 
of this run, or papers that preceded the highly important papers. If you like your results we are grateful for a citation.

  1. Neese,F.
     The ORCA program system
     WIRES Comput. Molec. Sci., 2012 2(1)73-78
     doi.org/10.1002/wcms.81
  2. Neese,F.
     Software update: the ORCA program system, version 4.0
     WIRES Comput. Molec. Sci., 2018 8(1)1-6
     doi.org/10.1002/wcms.1327
  3. Neese,F.; Wennmohs,F.; Becker,U.; Riplinger,C.
     The ORCA quantum chemistry program package
     J. Chem. Phys., 2020 152 Art. No. L224108
     doi.org/10.1063/5.0004608

List of optional additional citations

  1. Neese,F.
     Approximate second-order SCF convergence for spin unrestricted wavefunctions
     Chem. Phys. Lett., 2000 325(1-3)93-98
     doi.org/10.1016/s0009-2614(00)00662-x

Timings for individual modules:

Sum of individual times          ...   600218.608 sec (=10003.643 min)
Startup calculation              ...      118.795 sec (=   1.980 min)   0.0 %
SCF iterations                   ...    10392.966 sec (= 173.216 min)   1.7 %
Property calculations            ...        5.407 sec (=   0.090 min)   0.0 %
SCF Gradient evaluation          ...     2148.548 sec (=  35.809 min)   0.4 %
Geometry relaxation              ...        1.930 sec (=   0.032 min)   0.0 %
Numerical frequency calculation  ...   587550.961 sec (=9792.516 min)  97.9 %
                             ****ORCA TERMINATED NORMALLY****
TOTAL RUN TIME: 6 days 22 hours 25 minutes 14 seconds 337 msec
