
                                 *****************
                                 * O   R   C   A *
                                 *****************

                                            #,                                       
                                            ###                                      
                                            ####                                     
                                            #####                                    
                                            ######                                   
                                           ########,                                 
                                     ,,################,,,,,                         
                               ,,#################################,,                 
                          ,,##########################################,,             
                       ,#########################################, ''#####,          
                    ,#############################################,,   '####,        
                  ,##################################################,,,,####,       
                ,###########''''           ''''###############################       
              ,#####''   ,,,,##########,,,,          '''####'''          '####       
            ,##' ,,,,###########################,,,                        '##       
           ' ,,###''''                  '''############,,,                           
         ,,##''                                '''############,,,,        ,,,,,,###''
      ,#''                                            '''#######################'''  
     '                                                          ''''####''''         
             ,#######,   #######,   ,#######,      ##                                
            ,#'     '#,  ##    ##  ,#'     '#,    #''#        ######   ,####,        
            ##       ##  ##   ,#'  ##            #'  '#       #        #'  '#        
            ##       ##  #######   ##           ,######,      #####,   #    #        
            '#,     ,#'  ##    ##  '#,     ,#' ,#      #,         ##   #,  ,#        
             '#######'   ##     ##  '#######'  #'      '#     #####' # '####'        



                  #######################################################
                  #                        -***-                        #
                  #          Department of theory and spectroscopy      #
                  #    Directorship and core code : Frank Neese         #
                  #        Max Planck Institute fuer Kohlenforschung    #
                  #                Kaiser Wilhelm Platz 1               #
                  #                 D-45470 Muelheim/Ruhr               #
                  #                      Germany                        #
                  #                                                     #
                  #                  All rights reserved                #
                  #                        -***-                        #
                  #######################################################


                         Program Version 5.0.4 -  RELEASE  -


 With contributions from (in alphabetic order):
   Daniel Aravena         : Magnetic Suceptibility
   Michael Atanasov       : Ab Initio Ligand Field Theory (pilot matlab implementation)
   Alexander A. Auer      : GIAO ZORA, VPT2 properties, NMR spectrum
   Ute Becker             : Parallelization
   Giovanni Bistoni       : ED, misc. LED, open-shell LED, HFLD
   Martin Brehm           : Molecular dynamics
   Dmytro Bykov           : SCF Hessian
   Vijay G. Chilkuri      : MRCI spin determinant printing, contributions to CSF-ICE
   Dipayan Datta          : RHF DLPNO-CCSD density
   Achintya Kumar Dutta   : EOM-CC, STEOM-CC
   Dmitry Ganyushin       : Spin-Orbit,Spin-Spin,Magnetic field MRCI
   Miquel Garcia          : C-PCM and meta-GGA Hessian, CC/C-PCM, Gaussian charge scheme
   Yang Guo               : DLPNO-NEVPT2, F12-NEVPT2, CIM, IAO-localization
   Andreas Hansen         : Spin unrestricted coupled pair/coupled cluster methods
   Benjamin Helmich-Paris : MC-RPA, TRAH-SCF, COSX integrals
   Lee Huntington         : MR-EOM, pCC
   Robert Izsak           : Overlap fitted RIJCOSX, COSX-SCS-MP3, EOM
   Marcus Kettner         : VPT2
   Christian Kollmar      : KDIIS, OOCD, Brueckner-CCSD(T), CCSD density, CASPT2, CASPT2-K
   Simone Kossmann        : Meta GGA functionals, TD-DFT gradient, OOMP2, MP2 Hessian
   Martin Krupicka        : Initial AUTO-CI
   Lucas Lang             : DCDCAS
   Marvin Lechner         : AUTO-CI (C++ implementation), FIC-MRCC
   Dagmar Lenk            : GEPOL surface, SMD
   Dimitrios Liakos       : Extrapolation schemes; Compound Job, initial MDCI parallelization
   Dimitrios Manganas     : Further ROCIS development; embedding schemes
   Dimitrios Pantazis     : SARC Basis sets
   Anastasios Papadopoulos: AUTO-CI, single reference methods and gradients
   Taras Petrenko         : DFT Hessian,TD-DFT gradient, ASA, ECA, R-Raman, ABS, FL, XAS/XES, NRVS
   Peter Pinski           : DLPNO-MP2, DLPNO-MP2 Gradient
   Christoph Reimann      : Effective Core Potentials
   Marius Retegan         : Local ZFS, SOC
   Christoph Riplinger    : Optimizer, TS searches, QM/MM, DLPNO-CCSD(T), (RO)-DLPNO pert. Triples
   Tobias Risthaus        : Range-separated hybrids, TD-DFT gradient, RPA, STAB
   Michael Roemelt        : Original ROCIS implementation
   Masaaki Saitow         : Open-shell DLPNO-CCSD energy and density
   Barbara Sandhoefer     : DKH picture change effects
   Avijit Sen             : IP-ROCIS
   Kantharuban Sivalingam : CASSCF convergence, NEVPT2, FIC-MRCI
   Bernardo de Souza      : ESD, SOC TD-DFT
   Georgi Stoychev        : AutoAux, RI-MP2 NMR, DLPNO-MP2 response
   Willem Van den Heuvel  : Paramagnetic NMR
   Boris Wezisla          : Elementary symmetry handling
   Frank Wennmohs         : Technical directorship


 We gratefully acknowledge several colleagues who have allowed us to
 interface, adapt or use parts of their codes:
   Stefan Grimme, W. Hujo, H. Kruse, P. Pracht,  : VdW corrections, initial TS optimization,
                  C. Bannwarth, S. Ehlert          DFT functionals, gCP, sTDA/sTD-DF
   Ed Valeev, F. Pavosevic, A. Kumar             : LibInt (2-el integral package), F12 methods
   Garnet Chan, S. Sharma, J. Yang, R. Olivares  : DMRG
   Ulf Ekstrom                                   : XCFun DFT Library
   Mihaly Kallay                                 : mrcc  (arbitrary order and MRCC methods)
   Jiri Pittner, Ondrej Demel                    : Mk-CCSD
   Frank Weinhold                                : gennbo (NPA and NBO analysis)
   Christopher J. Cramer and Donald G. Truhlar   : smd solvation model
   Lars Goerigk                                  : TD-DFT with DH, B97 family of functionals
   V. Asgeirsson, H. Jonsson                     : NEB implementation
   FAccTs GmbH                                   : IRC, NEB, NEB-TS, DLPNO-Multilevel, CI-OPT
                                                   MM, QMMM, 2- and 3-layer-ONIOM, Crystal-QMMM,
                                                   LR-CPCM, SF, NACMEs, symmetry and pop. for TD-DFT,
                                                   nearIR, NL-DFT gradient (VV10), updates on ESD,
                                                   ML-optimized integration grids
   S Lehtola, MJT Oliveira, MAL Marques          : LibXC Library
   Liviu Ungur et al                             : ANISO software


 Your calculation uses the libint2 library for the computation of 2-el integrals
 For citations please refer to: http://libint.valeyev.net

 Your ORCA version has been built with support for libXC version: 5.1.0
 For citations please refer to: https://tddft.org/programs/libxc/

 This ORCA versions uses:
   CBLAS   interface :  Fast vector & matrix operations
   LAPACKE interface :  Fast linear algebra routines
   SCALAPACK package :  Parallel linear algebra routines
   Shared memory     :  Shared parallel matrices
   BLAS/LAPACK       :  OpenBLAS 0.3.15  USE64BITINT DYNAMIC_ARCH NO_AFFINITY Sandybridge SINGLE_THREADED
        Core in use  :  Sandybridge
   Copyright (c) 2011-2014, The OpenBLAS Project


Your calculation utilizes the DFT-NL dispersion correction.
Cite in your paper:
Vydrov, O. A.; Van Voorhis, T. J. Chem. Phys. 2010, 133, 244103
Hujo, W.; Grimme, S. J. Chem. Theory Comput. 2011, 7, 3866 
   

================================================================================

----- Orbital basis set information -----
Your calculation utilizes the basis: 6-311G(d)
   H, Li - Ne  : R. Krishnan, J. S. Binkley, R. Seeger and J. A. Pople, J. Chem. Phys. 72, 650 (1980).
   Na - Ar     : A. D. McLean and G. S. Chandler J. Chem. Phys. 72, 5639, (1980).
   K  - Ca     : J.-P. Blaudeau, M. P. McGrath, L. A. Curtiss and L. Radom, J. Chem. Phys. 107, 5016 (1997).
   Ga - Kr     : L. A. Curtiss, M. P. McGrath, J.-P. Blandeau, N. E. Davis, R. C. Binning and L. Radom, J. Chem. Phys. 103, 6104 (1995).
   Pol./Diff.
   H, Li - Cl  : T. Clark, J. Chandrasekhar and P. v. R. Schleyer, J. Comp. Chem. 4, 294 (1983).
   H - Ne      : M. J. Frisch, J. A. Pople and J. S. Binkley, J. Chem. Phys. 80, 3265 (1984).

----- AuxJ basis set information -----
Your calculation utilizes the auxiliary basis: def2/J
   F. Weigend, Phys. Chem. Chem. Phys. 8, 1057 (2006).

================================================================================
                                        WARNINGS
                       Please study these warnings very carefully!
================================================================================

Using LibXC functional ID 531 : wB97M-V exchange-correlation functional
[ 1]  N. Mardirossian and M. Head-Gordon, J. Chem. Phys. 144, 214110 (2016)
Using LibXC functional ID 531 : wB97M-V exchange-correlation functional
[ 1]  N. Mardirossian and M. Head-Gordon, J. Chem. Phys. 144, 214110 (2016)

WARNING: B97M-V or wB97M-V functional requested.
  ===> : libXC variant has now been activated.
         Any manually given DFX/HFX/RangeSep scaling parameters are IGNORED!

Your calculation utilizes LibXC
 by S Lehtola, C Steigemann, MJT Oliveira & MAL Marques
Please cite in your paper:
 S Lehtola, C Steigemann, MJT Oliveira & MAL Marques, SoftwareX, 7, (2018), 1.
   


WARNING: your system is open-shell and RHF/RKS was chosen
  ===> : WILL SWITCH to UHF/UKS


WARNING: Geometry Optimization
  ===> : Switching off AutoStart
         For restart on a previous wavefunction, please use MOREAD

WARNING: Analytic gradients for DFT-NL dispersion can only be done using the self-consistent method,
  ===>   Switching to SCNL

WARNING: Self-consistent DFT-NL dispersion not compatible with AutoTRAH.
  ===>   Switching AutoTRAH off


INFO   : the flag for use of the SHARK integral package has been found!

================================================================================
                                       INPUT FILE
================================================================================
NAME = CURCUMIN-OPT-FREQ-Prod-1-wB97XM-V-6-311G-D-298.inp
|  1> # avogadro generated ORCA input file
|  2> # Basic Mode
|  3> #
|  4> ! Opt NumFreq wb97M-V 6-311G(d) CPCM RIJDX
|  5> %maxcore 2000
|  6> %cpcm
|  7> epsilon 7 # Dielectric constant
|  8> refrac 1.85341 # Refractive index
|  9> end
| 10> 
| 11> * xyz 0 2
| 12>  C                  2.21655900    0.88978800    0.80945900
| 13>  H                  1.78896400    1.88775800    0.80674100
| 14>  C                  1.50343500   -0.10719400    1.36778200
| 15>  H                  1.87234700   -1.12513800    1.43184800
| 16>  C                  0.16630600    0.04774100    1.96627300
| 17>  O                 -0.41718700   -0.93316200    2.40409300
| 18>  C                  3.55115700    0.83508500    0.21412600
| 19>  C                  4.28220300    2.03146300    0.14290500
| 20>  C                  4.21546300   -0.31361800   -0.25618700
| 21>  C                  5.58234700    2.07640800   -0.34008600
| 22>  H                  3.81510100    2.94743300    0.48706400
| 23>  C                  5.51757700   -0.31078300   -0.74241800
| 24>  H                  5.14074900   -0.93515700    3.03497600
| 25>  C                  6.21294300    0.91544300   -0.78315300
| 26>  H                  6.11170300    3.02372300   -0.38580500
| 27>  O                  7.46582900    0.89253300   -1.29292400
| 28>  H                  7.84049600    1.78511200   -1.29035400
| 29>  O                  6.04441900   -1.45500000   -1.25354100
| 30>  C                  7.12298300   -2.04441100   -0.49597300
| 31>  H                  6.79963300   -2.25293100    0.52628600
| 32>  H                  7.36083900   -2.97852100   -1.00200900
| 33>  H                  7.99831600   -1.39405200   -0.49135300
| 34>  C                 -3.12653400    0.50901900    0.91772900
| 35>  H                 -2.72914600    0.06289800    1.82503300
| 36>  C                 -2.38882600    1.44840900    0.28705500
| 37>  H                 -2.72657200    1.90624400   -0.63831500
| 38>  C                 -1.07923300    1.93207300    0.72961200
| 39>  O                 -0.45670600    2.74076900    0.05264300
| 40>  C                 -4.42034200   -0.01755400    0.50622500
| 41>  C                 -5.02108400   -1.02106400    1.28282200
| 42>  C                 -5.11255000    0.43515200   -0.63456400
| 43>  C                 -6.25229300   -1.55949300    0.93095300
| 44>  H                 -4.51286500   -1.38944000    2.16799100
| 45>  C                 -6.33965800   -0.09156500   -0.99766100
| 46>  H                 -4.69605400    1.20724500   -1.27145400
| 47>  C                 -6.91972900   -1.11053800   -0.20888200
| 48>  H                 -6.69894100   -2.34392700    1.53616300
| 49>  O                 -8.11066600   -1.61860500   -0.61448500
| 50>  H                 -8.39786600   -2.30864400    0.00014100
| 51>  O                 -6.93810300    0.33945600   -2.15191600
| 52>  C                 -8.14369200    1.10086600   -1.98134800
| 53>  H                 -7.95424000    1.99228200   -1.37445200
| 54>  H                 -8.45228700    1.40473600   -2.98123300
| 55>  H                 -8.93380900    0.50316600   -1.52333000
| 56>  C                 -0.48526500    1.43188400    2.05601500
| 57>  H                 -1.25869100    1.36434800    2.82078900
| 58>  H                  0.24514600    2.17648800    2.37368500
| 59>  O                  3.85626400   -2.50798400    0.40551600
| 60>  O                  2.63746700   -1.70336600   -1.19960500
| 61>  N                  3.51236900   -1.61381500   -0.35428800
| 62> *
| 63> 
| 64> 
| 65>                          ****END OF INPUT****
================================================================================

                       *****************************
                       * Geometry Optimization Run *
                       *****************************

Geometry optimization settings:
Update method            Update   .... BFGS
Choice of coordinates    CoordSys .... Z-matrix Internals
Initial Hessian          InHess   .... Almoef's Model

Convergence Tolerances:
Energy Change            TolE     ....  5.0000e-06 Eh
Max. Gradient            TolMAXG  ....  3.0000e-04 Eh/bohr
RMS Gradient             TolRMSG  ....  1.0000e-04 Eh/bohr
Max. Displacement        TolMAXD  ....  4.0000e-03 bohr
RMS Displacement         TolRMSD  ....  2.0000e-03 bohr
Strict Convergence                ....  False
------------------------------------------------------------------------------
                        ORCA OPTIMIZATION COORDINATE SETUP
------------------------------------------------------------------------------

The optimization will be done in new redundant internal coordinates
Making redundant internal coordinates   ...  (new redundants) done
Evaluating the initial hessian          ...  (Almloef) done
Evaluating the coordinates              ...  done
Calculating the B-matrix                .... done
Calculating the G-matrix                .... done
Diagonalizing the G-matrix              .... done
Small eigenvalue found = 1.164e-03
Small eigenvalue found = 1.830e-03
Small eigenvalue found = 3.769e-03
Small eigenvalue found = 9.356e-03
Small eigenvalue found = 1.089e-02
Small eigenvalue found = 2.402e-02
The first mode is                       ....  482
The number of degrees of freedom        ....  144

    -----------------------------------------------------------------
                    Redundant Internal Coordinates


    -----------------------------------------------------------------
         Definition                    Initial Value    Approx d2E/dq
    -----------------------------------------------------------------
      1. B(H   1,C   0)                  1.0857         0.365806   
      2. B(C   2,C   0)                  1.3469         0.731881   
      3. B(H   3,C   2)                  1.0846         0.367282   
      4. B(C   4,C   2)                  1.4731         0.460374   
      5. B(O   5,C   4)                  1.2224         1.035695   
      6. B(C   6,C   0)                  1.4624         0.478911   
      7. B(C   7,C   6)                  1.4039         0.593782   
      8. B(C   8,C   6)                  1.4078         0.585160   
      9. B(C   9,C   7)                  1.3877         0.630128   
     10. B(H  10,C   7)                  1.0843         0.367767   
     11. B(C  11,C   8)                  1.3899         0.624937   
     12. B(H  12,H   3)                  3.6453         0.000006   
     13. B(H  12,C   2)                  4.0860         0.000006   
     14. B(H  12,C   0)                  4.1030         0.000006   
     15. B(H  12,C   8)                  3.4748         0.000056   
     16. B(H  12,C  11)                  3.8471         0.000014   
     17. B(H  12,C   7)                  4.2311         0.000004   
     18. B(H  12,C   6)                  3.6902         0.000026   
     19. B(C  13,C  11)                  1.4103         0.579990   
     20. B(C  13,C   9)                  1.3935         0.616849   
     21. B(H  14,C   9)                  1.0861         0.365234   
     22. B(O  15,C  13)                  1.3528         0.641502   
     23. B(H  16,O  15)                  0.9680         0.504845   
     24. B(O  17,C  11)                  1.3594         0.626113   
     25. B(C  18,H  12)                  4.1985         0.000004   
     26. B(C  18,O  17)                  1.4438         0.459208   
     27. B(H  19,H  12)                  3.2836         0.000022   
     28. B(H  19,C  18)                  1.0923         0.357112   
     29. B(H  20,C  18)                  1.0887         0.361859   
     30. B(H  21,C  18)                  1.0905         0.359436   
     31. B(H  23,C  22)                  1.0863         0.364970   
     32. B(C  24,C  22)                  1.3507         0.721812   
     33. B(H  25,C  24)                  1.0863         0.365061   
     34. B(C  26,C  24)                  1.4645         0.475166   
     35. B(O  27,C  26)                  1.2247         1.027186   
     36. B(C  28,C  22)                  1.4562         0.489893   
     37. B(C  29,C  28)                  1.4039         0.593622   
     38. B(C  30,C  28)                  1.4091         0.582512   
     39. B(C  31,C  29)                  1.3891         0.626870   
     40. B(H  32,C  29)                  1.0851         0.366598   
     41. B(C  33,C  30)                  1.3839         0.639053   
     42. B(H  34,C  30)                  1.0841         0.368020   
     43. B(C  35,C  33)                  1.4131         0.573882   
     44. B(C  35,C  31)                  1.3951         0.613239   
     45. B(H  36,C  31)                  1.0868         0.364373   
     46. B(O  37,C  35)                  1.3568         0.632124   
     47. B(H  38,O  37)                  0.9677         0.505493   
     48. B(O  39,C  33)                  1.3698         0.602810   
     49. B(C  40,O  39)                  1.4361         0.472478   
     50. B(H  41,C  40)                  1.0949         0.353657   
     51. B(H  42,C  40)                  1.0897         0.360563   
     52. B(H  43,C  40)                  1.0915         0.358158   
     53. B(C  44,C  26)                  1.5370         0.364107   
     54. B(C  44,C   4)                  1.5325         0.370207   
     55. B(H  45,C  44)                  1.0898         0.360386   
     56. B(H  46,C  44)                  1.0903         0.359645   
     57. B(O  47,H  12)                  3.3223         0.000089   
     58. B(N  49,H  12)                  3.8209         0.000014   
     59. B(N  49,O  48)                  1.2198         0.936432   
     60. B(N  49,O  47)                  1.2227         0.926527   
     61. B(N  49,C   8)                  1.4814         0.400027   
     62. A(C   2,C   0,C   6)          128.6262         0.426932   
     63. A(H   1,C   0,C   2)          118.2218         0.363984   
     64. A(C   2,C   0,H  12)           79.8207         0.111375   
     65. A(H   1,C   0,C   6)          113.1279         0.338815   
     66. A(C   6,C   0,H  12)           63.4968         0.109327   
     67. A(H   1,C   0,H  12)          133.7002         0.105541   
     68. A(H   3,C   2,H  12)           58.8647         0.105791   
     69. A(C   0,C   2,H   3)          122.6214         0.364234   
     70. A(H   3,C   2,C   4)          112.5468         0.336819   
     71. A(C   4,C   2,H  12)          131.5715         0.109433   
     72. A(C   0,C   2,H  12)           81.2464         0.111693   
     73. A(C   0,C   2,C   4)          124.8283         0.423926   
     74. A(C   2,H   3,H  12)          106.3809         0.102322   
     75. A(C   2,C   4,O   5)          119.6284         0.448327   
     76. A(C   2,C   4,C  44)          120.3122         0.376047   
     77. A(O   5,C   4,C  44)          120.0555         0.431029   
     78. A(C   0,C   6,C   7)          117.6463         0.411310   
     79. A(C   0,C   6,C   8)          126.6660         0.410245   
     80. A(C   0,C   6,H  12)           95.7318         0.117649   
     81. A(C   7,C   6,C   8)          115.6376         0.426264   
     82. A(C   7,C   6,H  12)          102.9018         0.119078   
     83. A(C   8,C   6,H  12)           70.1654         0.118979   
     84. A(C   6,C   7,H  12)           58.2283         0.108184   
     85. A(C   9,C   7,H  10)          119.1265         0.355145   
     86. A(H  10,C   7,H  12)          117.5663         0.103887   
     87. A(C   6,C   7,H  10)          118.6523         0.351590   
     88. A(C   6,C   7,C   9)          122.2184         0.431963   
     89. A(C   9,C   7,H  12)           94.0428         0.108444   
     90. A(C  11,C   8,H  12)           94.7173         0.125397   
     91. A(C  11,C   8,N  49)          115.0404         0.399471   
     92. A(C   6,C   8,N  49)          120.9511         0.394884   
     93. A(C   6,C   8,C  11)          123.8656         0.430191   
     94. A(H  12,C   8,N  49)           91.8403         0.121631   
     95. A(C   6,C   8,H  12)           87.4314         0.124859   
     96. A(C  13,C   9,H  14)          119.5190         0.353451   
     97. A(C   7,C   9,H  14)          119.9685         0.354729   
     98. A(C   7,C   9,C  13)          120.5085         0.434935   
     99. A(H  12,C  11,C  13)          102.5784         0.115259   
    100. A(C   8,C  11,H  12)           64.1784         0.115706   
    101. A(C  13,C  11,O  17)          121.9989         0.426848   
    102. A(H  12,C  11,O  17)          105.6955         0.115497   
    103. A(C   8,C  11,O  17)          119.5294         0.432604   
    104. A(C   8,C  11,C  13)          118.2813         0.429506   
    105. A(C   0,H  12,C  18)           89.8755         0.090243   
    106. A(C   7,H  12,C   8)           34.2229         0.091040   
    107. A(C   6,H  12,C   8)           22.4032         0.092198   
    108. A(C  11,H  12,H  19)           42.7343         0.090810   
    109. A(C   0,H  12,C  11)           57.6587         0.090665   
    110. A(C  18,H  12,H  19)            9.2172         0.090351   
    111. A(H   3,H  12,C   8)           49.7623         0.090826   
    112. A(C   6,H  12,H  19)           79.9866         0.091062   
    113. A(C   2,H  12,C   8)           48.7186         0.091301   
    114. A(C   0,H  12,C   8)           38.4552         0.091269   
    115. A(H   3,H  12,O  47)           43.9968         0.090998   
    116. A(C   2,H  12,O  47)           55.1676         0.091518   
    117. A(C   6,H  12,C   7)           18.8699         0.090705   
    118. A(H   3,H  12,C  11)           70.3958         0.090340   
    119. A(C   7,H  12,C  11)           40.0881         0.090497   
    120. A(H   3,H  12,C   7)           63.5133         0.089974   
    121. A(C   2,H  12,C   7)           53.0145         0.090227   
    122. A(C   8,H  12,H  19)           58.8474         0.091467   
    123. A(H   3,H  12,C  18)           92.2746         0.090000   
    124. A(C   0,H  12,C   7)           34.1837         0.090210   
    125. A(C   0,H  12,O  47)           60.3778         0.091483   
    126. A(C   2,H  12,C   6)           37.5738         0.090924   
    127. A(C   0,H  12,C   6)           20.7714         0.090897   
    128. A(C   2,H  12,H   3)           14.7544         0.090098   
    129. A(C   0,H  12,H   3)           31.3101         0.090083   
    130. A(C  11,H  12,C  18)           33.9913         0.090538   
    131. A(C   0,H  12,C   2)           18.9329         0.090365   
    132. A(O  47,H  12,N  49)           18.0285         0.092026   
    133. A(C  18,H  12,N  49)           53.7212         0.090515   
    134. A(C   8,H  12,C  18)           51.4219         0.091096   
    135. A(C   6,H  12,C  18)           71.7744         0.090752   
    136. A(C   8,H  12,N  49)           22.7992         0.091765   
    137. A(C   6,H  12,N  49)           39.0650         0.091312   
    138. A(H  19,H  12,N  49)           57.7459         0.090783   
    139. A(C   2,H  12,N  49)           45.1442         0.090664   
    140. A(C   0,H  12,N  49)           45.0995         0.090640   
    141. A(C   8,H  12,C  11)           21.1043         0.091807   
    142. A(H   3,H  12,N  49)           38.6057         0.090320   
    143. A(H  19,H  12,O  47)           53.1770         0.091699   
    144. A(C  18,H  12,O  47)           52.5435         0.091293   
    145. A(C   8,H  12,O  47)           39.8342         0.093186   
    146. A(C   7,H  12,O  47)           73.2916         0.091232   
    147. A(C   6,H  12,O  47)           57.0138         0.092500   
    148. A(C  11,H  12,N  49)           36.8337         0.091029   
    149. A(C   6,H  12,C  11)           38.1669         0.091347   
    150. A(C   7,H  12,N  49)           55.3714         0.090475   
    151. A(C   7,H  12,H  19)           82.0491         0.090315   
    152. A(H   3,H  12,H  19)           95.5122         0.090177   
    153. A(C   2,H  12,H  19)          102.6688         0.090484   
    154. A(C   0,H  12,H  19)           97.1318         0.090463   
    155. A(H   3,H  12,C   6)           45.7826         0.090526   
    156. A(C   2,H  12,C  18)           97.5084         0.090261   
    157. A(C   7,H  12,C  18)           72.9141         0.090117   
    158. A(C  11,H  12,O  47)           48.5166         0.092072   
    159. A(C   2,H  12,C  11)           69.7374         0.090689   
    160. A(C  11,C  13,O  15)          116.9244         0.428710   
    161. A(C   9,C  13,O  15)          123.5748         0.433480   
    162. A(C   9,C  13,C  11)          119.4788         0.428503   
    163. A(C  13,O  15,H  16)          109.9887         0.370409   
    164. A(C  11,O  17,C  18)          115.8382         0.406819   
    165. A(H  20,C  18,H  21)          109.7739         0.290978   
    166. A(H  12,C  18,H  20)          136.1173         0.104240   
    167. A(H  12,C  18,H  19)           28.7853         0.104195   
    168. A(H  12,C  18,O  17)           88.8956         0.107444   
    169. A(H  19,C  18,H  21)          110.3352         0.290375   
    170. A(O  17,C  18,H  21)          111.0011         0.333441   
    171. A(H  19,C  18,H  20)          109.6275         0.290682   
    172. A(O  17,C  18,H  20)          105.6401         0.333813   
    173. A(O  17,C  18,H  19)          110.3562         0.333082   
    174. A(H  12,C  18,H  21)          102.5824         0.104217   
    175. A(H  12,H  19,C  18)          141.9975         0.106883   
    176. A(C  24,C  22,C  28)          127.2142         0.427607   
    177. A(H  23,C  22,C  28)          114.3634         0.339970   
    178. A(H  23,C  22,C  24)          118.4106         0.362981   
    179. A(H  25,C  24,C  26)          113.3446         0.338256   
    180. A(C  22,C  24,C  26)          125.2380         0.425276   
    181. A(C  22,C  24,H  25)          121.4040         0.362996   
    182. A(C  24,C  26,O  27)          120.3703         0.450233   
    183. A(O  27,C  26,C  44)          119.7025         0.429110   
    184. A(C  24,C  26,C  44)          119.9256         0.377024   
    185. A(C  29,C  28,C  30)          117.8577         0.425898   
    186. A(C  22,C  28,C  30)          123.3031         0.411566   
    187. A(C  22,C  28,C  29)          118.8379         0.412949   
    188. A(C  31,C  29,H  32)          119.3510         0.354641   
    189. A(C  28,C  29,H  32)          119.5690         0.351385   
    190. A(C  28,C  29,C  31)          121.0778         0.431540   
    191. A(C  33,C  30,H  34)          117.2328         0.356035   
    192. A(C  28,C  30,H  34)          121.0456         0.350494   
    193. A(C  28,C  30,C  33)          121.7184         0.431568   
    194. A(C  35,C  31,H  36)          119.3834         0.352959   
    195. A(C  29,C  31,H  36)          120.1972         0.354275   
    196. A(C  29,C  31,C  35)          120.4154         0.434070   
    197. A(C  35,C  33,O  39)          121.1928         0.423158   
    198. A(C  30,C  33,O  39)          119.2581         0.431393   
    199. A(C  30,C  33,C  35)          119.4711         0.430413   
    200. A(C  33,C  35,O  37)          117.6097         0.426769   
    201. A(C  31,C  35,O  37)          122.9335         0.431878   
    202. A(C  31,C  35,C  33)          119.4534         0.427241   
    203. A(C  35,O  37,H  38)          109.7339         0.369554   
    204. A(C  33,O  39,C  40)          115.6920         0.406140   
    205. A(H  41,C  40,H  43)          109.7849         0.289771   
    206. A(O  39,C  40,H  43)          111.5441         0.334824   
    207. A(H  41,C  40,H  42)          109.3045         0.290075   
    208. A(O  39,C  40,H  42)          106.0587         0.335196   
    209. A(O  39,C  40,H  41)          110.6243         0.334121   
    210. A(H  42,C  40,H  43)          109.4365         0.290651   
    211. A(H  45,C  44,H  46)          108.2575         0.290818   
    212. A(C  26,C  44,H  46)          106.7423         0.322889   
    213. A(C   4,C  44,H  46)          110.4292         0.323770   
    214. A(C  26,C  44,H  45)          110.5803         0.322998   
    215. A(C   4,C  44,H  45)          106.6709         0.323879   
    216. A(C   4,C  44,C  26)          114.0610         0.361203   
    217. A(H  12,O  47,N  49)          104.7347         0.131822   
    218. A(O  47,N  49,O  48)          125.3548         0.490260   
    219. A(C   8,N  49,O  48)          116.7907         0.423600   
    220. A(C   8,N  49,O  47)          117.8530         0.422796   
    221. A(H  12,N  49,O  48)          158.9691         0.117357   
    222. A(H  12,N  49,O  47)           57.2368         0.117289   
    223. A(C   8,N  49,H  12)           65.3605         0.112590   
    224. D(H  12,C   2,C   0,C   6)     43.6297         0.044532   
    225. D(H  12,C   2,C   0,H   1)   -134.4486         0.044532   
    226. D(C   4,C   2,C   0,C   6)    178.9260         0.044532   
    227. D(C   4,C   2,C   0,H  12)    135.2963         0.044532   
    228. D(H   3,C   2,C   0,H   1)   -178.4195         0.044532   
    229. D(H   3,C   2,C   0,H  12)    -43.9709         0.044532   
    230. D(H   3,C   2,C   0,C   6)     -0.3411         0.044532   
    231. D(C   4,C   2,C   0,H   1)      0.8476         0.044532   
    232. D(H  12,H   3,C   2,C   0)     53.2918         0.127460   
    233. D(H  12,H   3,C   2,C   4)   -126.0568         0.127460   
    234. D(C  44,C   4,C   2,H   3)    175.9532         0.015626   
    235. D(O   5,C   4,C   2,H   3)     -3.3261         0.015626   
    236. D(O   5,C   4,C   2,H  12)    -70.9862         0.015626   
    237. D(C  44,C   4,C   2,H  12)    108.2931         0.015626   
    238. D(O   5,C   4,C   2,C   0)    177.3423         0.015626   
    239. D(C  44,C   4,C   2,C   0)     -3.3785         0.015626   
    240. D(C   8,C   6,C   0,H  12)     69.4878         0.018131   
    241. D(C   8,C   6,C   0,H   1)   -161.7195         0.018131   
    242. D(H  12,C   6,C   0,H   1)    128.7928         0.018131   
    243. D(H  12,C   6,C   0,C   2)    -49.3661         0.018131   
    244. D(C   7,C   6,C   0,H   1)     20.9803         0.018131   
    245. D(C   7,C   6,C   0,C   2)   -157.1785         0.018131   
    246. D(C   7,C   6,C   0,H  12)   -107.8124         0.018131   
    247. D(C   8,C   6,C   0,C   2)     20.1217         0.018131   
    248. D(H  12,C   7,C   6,C   8)    -73.9681         0.028338   
    249. D(H  10,C   7,C   6,C   0)     -2.7432         0.028338   
    250. D(C   9,C   7,C   6,C   8)     -0.9625         0.028338   
    251. D(H  12,C   7,C   6,C   0)    103.6300         0.028338   
    252. D(H  10,C   7,C   6,H  12)   -106.3732         0.028338   
    253. D(H  10,C   7,C   6,C   8)    179.6587         0.028338   
    254. D(C   9,C   7,C   6,C   0)    176.6356         0.028338   
    255. D(C   9,C   7,C   6,H  12)     73.0056         0.028338   
    256. D(C  11,C   8,C   6,C   7)      1.2148         0.027473   
    257. D(H  12,C   8,C   6,C   0)    -82.1739         0.027473   
    258. D(H  12,C   8,C   6,C   7)     95.1734         0.027473   
    259. D(C  11,C   8,C   6,H  12)    -93.9586         0.027473   
    260. D(N  49,C   8,C   6,C   0)      8.4323         0.027473   
    261. D(N  49,C   8,C   6,H  12)     90.6062         0.027473   
    262. D(N  49,C   8,C   6,C   7)   -174.2203         0.027473   
    263. D(C  11,C   8,C   6,C   0)   -176.1325         0.027473   
    264. D(H  14,C   9,C   7,H  12)   -125.8573         0.029922   
    265. D(H  14,C   9,C   7,H  10)     -1.0744         0.029922   
    266. D(H  14,C   9,C   7,C   6)    179.5496         0.029922   
    267. D(C  13,C   9,C   7,C   6)      0.2847         0.029922   
    268. D(C  13,C   9,C   7,H  12)     54.8777         0.029922   
    269. D(C  13,C   9,C   7,H  10)    179.6606         0.029922   
    270. D(O  17,C  11,C   8,H  12)     94.0887         0.031604   
    271. D(O  17,C  11,C   8,C   6)   -175.8412         0.031604   
    272. D(C  13,C  11,C   8,N  49)    174.9255         0.031604   
    273. D(C  13,C  11,C   8,H  12)    -90.8241         0.031604   
    274. D(C  13,C  11,C   8,C   6)     -0.7540         0.031604   
    275. D(O  17,C  11,C   8,N  49)     -0.1617         0.031604   
    276. D(H  12,C  11,C   8,C   6)     90.0700         0.031604   
    277. D(H  12,C  11,C   8,N  49)    -94.2505         0.031604   
    278. D(C   2,H  12,C   6,C   8)   -108.3049         0.001500   
    279. D(C   0,H  12,C   6,C   8)   -126.9984         0.001500   
    280. D(C   0,H  12,C   6,C   7)    120.0935         0.001500   
    281. D(C   6,H  12,C   0,C   2)    142.9616         0.001500   
    282. D(C   2,H  12,C   6,C   7)    138.7871         0.001500   
    283. D(C   2,H  12,C   6,C   0)     18.6935         0.001500   
    284. D(C   7,H  12,C   0,H   1)    -67.6320         0.001500   
    285. D(H   3,H  12,C   6,C   7)    157.3464         0.001500   
    286. D(C  18,H  12,H   3,C   2)   -111.2644         0.001500   
    287. D(C   6,H  12,C   0,H   1)    -97.5028         0.001500   
    288. D(H   3,H  12,C   0,H   1)    139.0965         0.001500   
    289. D(H  19,H  12,C  11,C  13)   -111.0355         0.001500   
    290. D(C   6,H  12,H   3,C   2)    -49.6486         0.001500   
    291. D(C   2,H  12,C   0,C   6)   -142.9616         0.001500   
    292. D(H   3,H  12,C   0,C   6)   -123.4007         0.001500   
    293. D(C   2,H  12,C   0,H   1)    119.5356         0.001500   
    294. D(C   7,H  12,C  11,C  13)     54.7506         0.001500   
    295. D(N  49,H  12,C   2,C   0)    -80.3105         0.001500   
    296. D(O  47,H  12,C   2,H   3)     36.9617         0.001500   
    297. D(H   3,H  12,C  11,C   8)     11.0161         0.001500   
    298. D(C   2,H  12,C  11,O  17)   -120.3125         0.001500   
    299. D(H  19,H  12,C   2,C   4)    155.7752         0.001500   
    300. D(H  19,H  12,C   2,C   0)    -74.7438         0.001500   
    301. D(C  18,H  12,C   2,C   4)    163.5354         0.001500   
    302. D(O  47,H  12,C   8,N  49)     11.7750         0.001500   
    303. D(N  49,H  12,C   8,C   6)    120.9072         0.001500   
    304. D(C  18,H  12,C   8,C  11)    -28.5027         0.001500   
    305. D(C  11,H  12,C   2,C   0)    -47.0550         0.001500   
    306. D(C  18,H  12,C   8,C   6)   -152.2824         0.001500   
    307. D(C   8,H  12,C   2,C   4)   -178.7711         0.001500   
    308. D(C   7,H  12,C   8,C   6)    -31.9854         0.001500   
    309. D(H  19,H  12,C   8,N  49)     80.1423         0.001500   
    310. D(C   7,H  12,C   2,C   4)   -134.5158         0.001500   
    311. D(H   3,H  12,C   8,N  49)    -51.0476         0.001500   
    312. D(O  47,H  12,C   8,C  11)   -103.5381         0.001500   
    313. D(H   3,H  12,C   8,C   6)     69.8596         0.001500   
    314. D(C   7,H  12,C   2,C   0)     -5.0348         0.001500   
    315. D(C   6,H  12,C   8,N  49)   -120.9072         0.001500   
    316. D(C   7,H  12,C   8,C  11)     91.7942         0.001500   
    317. D(C  11,H  12,C   2,H   3)     89.8522         0.001500   
    318. D(C   2,H  12,C   8,C  11)    174.1681         0.001500   
    319. D(C  11,H  12,C   8,N  49)    115.3132         0.001500   
    320. D(C  18,H  12,C   2,C   0)    -66.9836         0.001500   
    321. D(C   7,H  12,C   8,N  49)   -152.8926         0.001500   
    322. D(C   6,H  12,C   2,C   4)   -149.9877         0.001500   
    323. D(N  49,H  12,C   8,C  11)   -115.3132         0.001500   
    324. D(C   0,H  12,C  11,C  13)     94.5564         0.001500   
    325. D(H  19,H  12,C   2,H   3)     62.1634         0.001500   
    326. D(C   0,H  12,C   8,C  11)    150.8724         0.001500   
    327. D(O  47,H  12,C   2,C   0)    -99.9455         0.001500   
    328. D(C   6,H  12,C  11,C   8)    -30.8392         0.001500   
    329. D(O  47,H  12,C   2,C   4)    130.5735         0.001500   
    330. D(C   7,H  12,C  11,O  17)   -176.4450         0.001500   
    331. D(N  49,H  12,C   2,H   3)     56.5967         0.001500   
    332. D(N  49,H  12,C   2,C   4)    150.2085         0.001500   
    333. D(C   0,H  12,H   3,C   2)    -25.2489         0.001500   
    334. D(H  19,H  12,C  11,O  17)     17.7688         0.001500   
    335. D(C   7,H  12,H   3,C   2)    -41.6484         0.001500   
    336. D(C   8,H  12,H   3,C   2)    -79.5995         0.001500   
    337. D(C  11,H  12,H   3,C   2)    -84.7706         0.001500   
    338. D(H   3,H  12,C   0,C   2)     19.5609         0.001500   
    339. D(H  19,H  12,H   3,C   2)   -119.9155         0.001500   
    340. D(O  47,H  12,H   3,C   2)   -134.7219         0.001500   
    341. D(N  49,H  12,H   3,C   2)   -108.4786         0.001500   
    342. D(C   0,H  12,C   8,C   6)     27.0927         0.001500   
    343. D(N  49,H  12,C   7,H  10)    134.4680         0.001500   
    344. D(N  49,H  12,C   7,C   9)    -99.5636         0.001500   
    345. D(H   3,H  12,C   6,C   0)     37.2528         0.001500   
    346. D(O  47,H  12,C   7,H  10)    136.6730         0.001500   
    347. D(C   7,H  12,C   2,H   3)    131.8723         0.001500   
    348. D(H   3,H  12,C   6,C   8)    -89.7456         0.001500   
    349. D(C   7,H  12,C   0,C   2)    172.8324         0.001500   
    350. D(H   3,H  12,C   2,C   4)     93.6118         0.001500   
    351. D(C   6,H  12,C   2,H   3)    116.4005         0.001500   
    352. D(H  19,H  12,C   7,C   9)    -43.5096         0.001500   
    353. D(H   3,H  12,C   2,C   0)   -136.9072         0.001500   
    354. D(H  19,H  12,C   7,C   6)     82.2872         0.001500   
    355. D(C  18,H  12,C   7,H  10)   -168.2181         0.001500   
    356. D(C  18,H  12,C   7,C   6)     83.5469         0.001500   
    357. D(N  49,H  12,C   0,C   6)    -62.3866         0.001500   
    358. D(C  11,H  12,C   7,C   9)    -53.1952         0.001500   
    359. D(N  49,H  12,C   0,H   1)   -159.8894         0.001500   
    360. D(C  11,H  12,C   7,C   6)     72.6015         0.001500   
    361. D(C   8,H  12,C   7,H  10)    146.8590         0.001500   
    362. D(N  49,H  12,C   0,C   2)     80.5750         0.001500   
    363. D(C   8,H  12,C   7,C   6)     38.6241         0.001500   
    364. D(O  47,H  12,C   0,C   6)    -74.5198         0.001500   
    365. D(O  47,H  12,C   0,C   2)     68.4419         0.001500   
    366. D(H   3,H  12,C   7,C   9)   -143.7605         0.001500   
    367. D(C   2,H  12,C   7,H  10)     78.0387         0.001500   
    368. D(O  47,H  12,C   0,H   1)   -172.0226         0.001500   
    369. D(H  19,H  12,C   0,C   6)    -34.5134         0.001500   
    370. D(C   2,H  12,C   7,C   9)   -155.9930         0.001500   
    371. D(H  19,H  12,C   0,H   1)   -132.0162         0.001500   
    372. D(C   2,H  12,C   7,C   6)    -30.1963         0.001500   
    373. D(C   0,H  12,C   7,C   9)   -158.8981         0.001500   
    374. D(C   0,H  12,C   7,H  10)     75.1336         0.001500   
    375. D(H   3,H  12,C   7,C   6)    -17.9637         0.001500   
    376. D(H  19,H  12,C   0,C   2)    108.4482         0.001500   
    377. D(H   3,H  12,C   7,H  10)     90.2712         0.001500   
    378. D(C   6,H  12,C   7,C   9)   -125.7967         0.001500   
    379. D(C   6,H  12,C   7,H  10)    108.2349         0.001500   
    380. D(C  18,H  12,C   0,C   6)    -28.8152         0.001500   
    381. D(C   8,H  12,C   7,C   9)    -87.1726         0.001500   
    382. D(N  49,H  12,C   6,C   8)    -31.8417         0.001500   
    383. D(N  49,H  12,C   6,C   7)   -144.7497         0.001500   
    384. D(N  49,H  12,C   6,C   0)     95.1567         0.001500   
    385. D(C  11,H  12,C   7,H  10)   -179.1635         0.001500   
    386. D(C   0,H  12,C   7,C   6)    -33.1013         0.001500   
    387. D(C  18,H  12,C   7,C   9)    -42.2498         0.001500   
    388. D(C   0,H  12,C   2,H   3)    136.9072         0.001500   
    389. D(C   0,H  12,C   2,C   4)   -129.4810         0.001500   
    390. D(C   8,H  12,C   0,C   2)    113.6579         0.001500   
    391. D(H  19,H  12,C   7,H  10)   -169.4779         0.001500   
    392. D(O  47,H  12,C   7,C   6)     28.4381         0.001500   
    393. D(O  47,H  12,C   7,C   9)    -97.3586         0.001500   
    394. D(C  11,H  12,C   6,C   7)    -83.9408         0.001500   
    395. D(N  49,H  12,C   7,C   6)     26.2331         0.001500   
    396. D(C   6,H  12,C   2,C   0)    -20.5067         0.001500   
    397. D(C   0,H  12,C   8,N  49)    -93.8145         0.001500   
    398. D(C  11,H  12,C   6,C   8)     28.9672         0.001500   
    399. D(H  19,H  12,C   6,C   8)     18.1878         0.001500   
    400. D(C  18,H  12,C   0,H   1)   -126.3180         0.001500   
    401. D(C   2,H  12,C   8,C   6)     50.3884         0.001500   
    402. D(C  18,H  12,C   6,C   0)    149.5063         0.001500   
    403. D(C   2,H  12,C   8,N  49)    -70.5187         0.001500   
    404. D(C  18,H  12,C   6,C   8)     22.5079         0.001500   
    405. D(H   3,H  12,C   8,C  11)   -166.3608         0.001500   
    406. D(C  18,H  12,C   6,C   7)    -90.4001         0.001500   
    407. D(C   6,H  12,C   8,C  11)    123.7797         0.001500   
    408. D(C   8,H  12,C   2,C   0)    -49.2901         0.001500   
    409. D(C  18,H  12,C   2,H   3)     69.9236         0.001500   
    410. D(C   8,H  12,C   2,H   3)     87.6171         0.001500   
    411. D(O  47,H  12,C   8,C   6)    132.6822         0.001500   
    412. D(C  11,H  12,C   2,C   4)   -176.5360         0.001500   
    413. D(H  19,H  12,C   8,C   6)   -158.9506         0.001500   
    414. D(C  11,H  12,C   0,H   1)   -114.8339         0.001500   
    415. D(C   8,H  12,C   0,C   6)    -29.3038         0.001500   
    416. D(C  18,H  12,C   8,N  49)     86.8104         0.001500   
    417. D(H  19,H  12,C   6,C   7)    -94.7203         0.001500   
    418. D(H  19,H  12,C   8,C  11)    -35.1709         0.001500   
    419. D(C  11,H  12,C   8,C   6)   -123.7797         0.001500   
    420. D(C  11,H  12,C   0,C   6)    -17.3311         0.001500   
    421. D(C  11,H  12,C   0,C   2)    125.6305         0.001500   
    422. D(O  47,H  12,C   6,C   7)   -147.0603         0.001500   
    423. D(C  11,H  12,C   6,C   0)    155.9656         0.001500   
    424. D(O  47,H  12,C   6,C   0)     92.8462         0.001500   
    425. D(C   0,H  12,C  11,C   8)    -20.9956         0.001500   
    426. D(H  19,H  12,C   6,C   0)    145.1862         0.001500   
    427. D(C   0,H  12,C  11,O  17)   -136.6393         0.001500   
    428. D(C   2,H  12,C  11,C   8)     -4.6687         0.001500   
    429. D(C   2,H  12,C  11,C  13)    110.8832         0.001500   
    430. D(C   8,H  12,C   6,C   7)   -112.9080         0.001500   
    431. D(C   8,H  12,C   6,C   0)    126.9984         0.001500   
    432. D(H   3,H  12,C  11,C  13)    126.5680         0.001500   
    433. D(H   3,H  12,C  11,O  17)   -104.6276         0.001500   
    434. D(C  18,H  12,C   0,C   2)    114.1464         0.001500   
    435. D(C   6,H  12,C  11,C  13)     84.7128         0.001500   
    436. D(C   6,H  12,C  11,O  17)   -146.4829         0.001500   
    437. D(C   7,H  12,C  11,C   8)    -60.8013         0.001500   
    438. D(C   7,H  12,C   6,C   8)    112.9080         0.001500   
    439. D(C   7,H  12,C   0,C   6)     29.8708         0.001500   
    440. D(C   8,H  12,C  11,C  13)    115.5519         0.001500   
    441. D(C   8,H  12,C  11,O  17)   -115.6437         0.001500   
    442. D(C  18,H  12,C  11,C   8)    138.1422         0.001500   
    443. D(C  18,H  12,C  11,C  13)   -106.3059         0.001500   
    444. D(C  18,H  12,C  11,O  17)     22.4985         0.001500   
    445. D(H  19,H  12,C  11,C   8)    133.4125         0.001500   
    446. D(C   7,H  12,C   6,C   0)   -120.0935         0.001500   
    447. D(O  47,H  12,C   6,C   8)    -34.1522         0.001500   
    448. D(O  47,H  12,C  11,C   8)     56.2329         0.001500   
    449. D(O  47,H  12,C  11,C  13)    171.7848         0.001500   
    450. D(O  47,H  12,C  11,O  17)    -59.4108         0.001500   
    451. D(N  49,H  12,C  11,C   8)     35.7549         0.001500   
    452. D(N  49,H  12,C  11,C  13)    151.3069         0.001500   
    453. D(N  49,H  12,C  11,O  17)    -79.8888         0.001500   
    454. D(C   8,H  12,C   0,H   1)   -126.8066         0.001500   
    455. D(O  15,C  13,C  11,H  12)    114.3898         0.025096   
    456. D(O  15,C  13,C  11,O  17)     -3.4020         0.025096   
    457. D(O  15,C  13,C  11,C   8)   -178.3612         0.025096   
    458. D(C   9,C  13,C  11,H  12)    -67.2571         0.025096   
    459. D(C   9,C  13,C  11,O  17)    174.9511         0.025096   
    460. D(C   9,C  13,C  11,C   8)     -0.0080         0.025096   
    461. D(O  15,C  13,C   9,H  14)     -0.8001         0.026314   
    462. D(O  15,C  13,C   9,C   7)    178.4681         0.026314   
    463. D(C  11,C  13,C   9,H  14)   -179.0377         0.026314   
    464. D(C  11,C  13,C   9,C   7)      0.2305         0.026314   
    465. D(H  16,O  15,C  13,C  11)    178.8038         0.030349   
    466. D(H  16,O  15,C  13,C   9)      0.5246         0.030349   
    467. D(C  18,O  17,C  11,H  12)    -43.7247         0.031793   
    468. D(C  18,O  17,C  11,C  13)     72.5273         0.031793   
    469. D(C  18,O  17,C  11,C   8)   -112.5746         0.031793   
    470. D(O  17,C  18,H  12,H  19)    139.2548         0.001500   
    471. D(O  17,C  18,H  12,C  11)    -20.2992         0.001500   
    472. D(O  17,C  18,H  12,C   8)     -2.4002         0.001500   
    473. D(O  17,C  18,H  12,C   7)    -32.9323         0.001500   
    474. D(O  17,C  18,H  12,C   6)    -13.1562         0.001500   
    475. D(O  17,C  18,H  12,H   3)     28.4372         0.001500   
    476. D(O  17,C  18,H  12,C   2)     14.5867         0.001500   
    477. D(O  17,C  18,H  12,O  47)     48.8221         0.001500   
    478. D(O  17,C  18,H  12,C   0)     -2.7888         0.001500   
    479. D(H  12,C  18,O  17,C  11)     37.5787         0.018000   
    480. D(H  21,C  18,O  17,C  11)    -65.4822         0.018000   
    481. D(H  19,C  18,O  17,C  11)     57.1651         0.018000   
    482. D(H  21,C  18,H  12,N  49)    137.5640         0.001500   
    483. D(H  21,C  18,H  12,O  47)    160.1048         0.001500   
    484. D(H  21,C  18,H  12,C  11)     90.9835         0.001500   
    485. D(H  21,C  18,H  12,C   8)    108.8825         0.001500   
    486. D(H  21,C  18,H  12,C   7)     78.3504         0.001500   
    487. D(H  21,C  18,H  12,H   3)    139.7199         0.001500   
    488. D(H  21,C  18,H  12,C   2)    125.8694         0.001500   
    489. D(H  21,C  18,H  12,C   0)    108.4939         0.001500   
    490. D(H  20,C  18,H  12,N  49)    -85.3694         0.001500   
    491. D(H  20,C  18,H  12,O  47)    -62.8287         0.001500   
    492. D(H  20,C  18,H  12,H  19)     27.6040         0.001500   
    493. D(H  20,C  18,H  12,C  11)   -131.9500         0.001500   
    494. D(H  20,C  18,H  12,C   8)   -114.0510         0.001500   
    495. D(H  20,C  18,H  12,C   7)   -144.5831         0.001500   
    496. D(H  20,C  18,H  12,C   6)   -124.8070         0.001500   
    497. D(H  20,C  18,H  12,H   3)    -83.2136         0.001500   
    498. D(H  20,C  18,H  12,C   2)    -97.0641         0.001500   
    499. D(H  20,C  18,H  12,C   0)   -114.4396         0.001500   
    500. D(H  19,C  18,H  12,N  49)   -112.9735         0.001500   
    501. D(H  21,C  18,H  12,C   6)     98.1265         0.001500   
    502. D(H  19,C  18,H  12,O  47)    -90.4327         0.001500   
    503. D(H  19,C  18,H  12,C  11)   -159.5540         0.001500   
    504. D(H  19,C  18,H  12,C   8)   -141.6550         0.001500   
    505. D(H  21,C  18,H  12,H  19)   -109.4625         0.001500   
    506. D(H  19,C  18,H  12,C   7)   -172.1871         0.001500   
    507. D(H  19,C  18,H  12,C   6)   -152.4110         0.001500   
    508. D(H  19,C  18,H  12,H   3)   -110.8176         0.001500   
    509. D(H  20,C  18,O  17,C  11)    175.5848         0.018000   
    510. D(H  19,C  18,H  12,C   2)   -124.6681         0.001500   
    511. D(H  19,C  18,H  12,C   0)   -142.0436         0.001500   
    512. D(O  17,C  18,H  12,N  49)     26.2814         0.001500   
    513. D(H  12,H  19,C  18,H  21)     78.9259         0.129826   
    514. D(H  12,H  19,C  18,H  20)   -160.0618         0.129826   
    515. D(H  12,H  19,C  18,O  17)    -44.1105         0.129826   
    516. D(C  18,H  19,H  12,N  49)     61.3587         0.001500   
    517. D(C  18,H  19,H  12,O  47)     82.5833         0.001500   
    518. D(C  18,H  19,H  12,C  11)     16.7258         0.001500   
    519. D(C  18,H  19,H  12,C   8)     34.5223         0.001500   
    520. D(C  18,H  19,H  12,C   7)      7.5389         0.001500   
    521. D(C  18,H  19,H  12,C   6)     26.5319         0.001500   
    522. D(C  18,H  19,H  12,H   3)     69.7712         0.001500   
    523. D(C  18,H  19,H  12,C   2)     56.6947         0.001500   
    524. D(C  18,H  19,H  12,C   0)     38.3056         0.001500   
    525. D(C  26,C  24,C  22,C  28)   -178.9693         0.036892   
    526. D(C  26,C  24,C  22,H  23)     -0.3000         0.036892   
    527. D(H  25,C  24,C  22,C  28)     -0.3918         0.036892   
    528. D(H  25,C  24,C  22,H  23)    178.2776         0.036892   
    529. D(C  44,C  26,C  24,H  25)    177.2198         0.015373   
    530. D(C  44,C  26,C  24,C  22)     -4.1025         0.015373   
    531. D(O  27,C  26,C  24,H  25)     -2.3058         0.015373   
    532. D(O  27,C  26,C  24,C  22)    176.3719         0.015373   
    533. D(C  30,C  28,C  22,C  24)     -1.8927         0.016342   
    534. D(C  30,C  28,C  22,H  23)    179.3921         0.016342   
    535. D(C  29,C  28,C  22,C  24)    178.5262         0.016342   
    536. D(C  29,C  28,C  22,H  23)     -0.1890         0.016342   
    537. D(H  32,C  29,C  28,C  30)   -179.9310         0.024265   
    538. D(H  32,C  29,C  28,C  22)     -0.3270         0.024265   
    539. D(C  31,C  29,C  28,C  30)      0.6039         0.024265   
    540. D(C  31,C  29,C  28,C  22)   -179.7921         0.024265   
    541. D(H  34,C  30,C  28,C  29)   -179.9362         0.023322   
    542. D(H  34,C  30,C  28,C  22)      0.4788         0.023322   
    543. D(C  33,C  30,C  28,C  29)     -0.6043         0.023322   
    544. D(C  33,C  30,C  28,C  22)    179.8108         0.023322   
    545. D(H  36,C  31,C  29,H  32)     -0.1742         0.027229   
    546. D(H  36,C  31,C  29,C  28)    179.2921         0.027229   
    547. D(C  35,C  31,C  29,H  32)   -179.4468         0.027229   
    548. D(C  35,C  31,C  29,C  28)      0.0195         0.027229   
    549. D(O  39,C  33,C  30,H  34)      2.5100         0.028369   
    550. D(O  39,C  33,C  30,C  28)   -176.8463         0.028369   
    551. D(C  35,C  33,C  30,H  34)    179.3379         0.028369   
    552. D(C  35,C  33,C  30,C  28)     -0.0184         0.028369   
    553. D(O  37,C  35,C  33,O  39)     -1.9309         0.022605   
    554. D(O  37,C  35,C  33,C  30)   -178.6957         0.022605   
    555. D(C  31,C  35,C  33,O  39)    177.4195         0.022605   
    556. D(C  31,C  35,C  33,C  30)      0.6547         0.022605   
    557. D(O  37,C  35,C  31,H  36)     -0.6217         0.025988   
    558. D(O  37,C  35,C  31,C  29)    178.6568         0.025988   
    559. D(C  33,C  35,C  31,H  36)   -179.9359         0.025988   
    560. D(C  33,C  35,C  31,C  29)     -0.6574         0.025988   
    561. D(H  38,O  37,C  35,C  33)    179.5542         0.029401   
    562. D(H  38,O  37,C  35,C  31)      0.2281         0.029401   
    563. D(C  40,O  39,C  33,C  35)     70.8306         0.026556   
    564. D(C  40,O  39,C  33,C  30)   -112.3979         0.026556   
    565. D(H  43,C  40,O  39,C  33)    -63.8915         0.017599   
    566. D(H  42,C  40,O  39,C  33)    177.0351         0.017599   
    567. D(H  41,C  40,O  39,C  33)     58.6168         0.017599   
    568. D(H  46,C  44,C  26,O  27)     21.6417         0.009951   
    569. D(H  46,C  44,C  26,C  24)   -157.8871         0.009951   
    570. D(H  45,C  44,C  26,O  27)    139.1844         0.009951   
    571. D(H  45,C  44,C  26,C  24)    -40.3444         0.009951   
    572. D(C   4,C  44,C  26,O  27)   -100.6007         0.009951   
    573. D(C   4,C  44,C  26,C  24)     79.8704         0.009951   
    574. D(H  46,C  44,C   4,O   5)    136.5224         0.010262   
    575. D(H  46,C  44,C   4,C   2)    -42.7537         0.010262   
    576. D(H  45,C  44,C   4,O   5)     19.1014         0.010262   
    577. D(H  45,C  44,C   4,C   2)   -160.1747         0.010262   
    578. D(C  26,C  44,C   4,O   5)   -103.2812         0.010262   
    579. D(C  26,C  44,C   4,C   2)     77.4427         0.010262   
    580. D(N  49,O  47,H  12,H  19)    -98.4123         0.001500   
    581. D(N  49,O  47,H  12,C  18)    -86.8698         0.001500   
    582. D(N  49,O  47,H  12,C  11)    -42.6617         0.001500   
    583. D(N  49,O  47,H  12,C   8)    -14.8038         0.001500   
    584. D(N  49,O  47,H  12,C   7)     -5.8714         0.001500   
    585. D(N  49,O  47,H  12,C   6)      4.7089         0.001500   
    586. D(N  49,O  47,H  12,H   3)     63.0595         0.001500   
    587. D(N  49,O  47,H  12,C   2)     50.3238         0.001500   
    588. D(N  49,O  47,H  12,C   0)     28.7540         0.001500   
    589. D(O  48,N  49,O  47,H  12)   -154.7378         0.090586   
    590. D(C   8,N  49,O  47,H  12)     25.7357         0.090586   
    591. D(O  48,N  49,H  12,O  47)    104.1000         0.001500   
    592. D(O  48,N  49,H  12,H  19)    173.5506         0.001500   
    593. D(O  48,N  49,H  12,C  11)   -133.7690         0.001500   
    594. D(O  48,N  49,H  12,C   8)   -100.8845         0.001500   
    595. D(O  48,N  49,H  12,C   7)    -82.7384         0.001500   
    596. D(O  48,N  49,H  12,H   3)      7.0470         0.001500   
    597. D(O  48,N  49,H  12,C   2)    -12.8750         0.001500   
    598. D(O  48,N  49,H  12,C   0)    -39.7167         0.001500   
    599. D(O  47,N  49,H  12,C  18)     79.4933         0.001500   
    600. D(O  47,N  49,H  12,C  11)    122.1309         0.001500   
    601. D(O  47,N  49,H  12,C   8)    155.0155         0.001500   
    602. D(O  47,N  49,H  12,C   7)    173.1615         0.001500   
    603. D(O  47,N  49,H  12,C   6)   -173.7269         0.001500   
    604. D(O  47,N  49,H  12,H   3)    -97.0530         0.001500   
    605. D(O  47,N  49,H  12,C   2)   -116.9750         0.001500   
    606. D(O  47,N  49,H  12,C   0)   -143.8168         0.001500   
    607. D(C   8,N  49,H  12,O  47)   -155.0155         0.001500   
    608. D(C   8,N  49,H  12,H  19)    -85.5649         0.001500   
    609. D(C   8,N  49,H  12,C  18)    -75.5222         0.001500   
    610. D(C   8,N  49,H  12,C  11)    -32.8846         0.001500   
    611. D(C   8,N  49,H  12,C   7)     18.1460         0.001500   
    612. D(C   8,N  49,H  12,C   6)     31.2576         0.001500   
    613. D(O  47,N  49,H  12,H  19)     69.4506         0.001500   
    614. D(C   8,N  49,H  12,H   3)    107.9315         0.001500   
    615. D(C   8,N  49,H  12,C   2)     88.0095         0.001500   
    616. D(C   8,N  49,H  12,C   0)     61.1678         0.001500   
    617. D(O  48,N  49,H  12,C   6)    -69.6269         0.001500   
    618. D(H  12,N  49,C   8,C  11)     96.0749         0.014624   
    619. D(H  12,N  49,C   8,C   6)    -88.1080         0.014624   
    620. D(O  48,N  49,C   8,H  12)    156.7469         0.014624   
    621. D(O  48,N  49,H  12,C  18)   -176.4067         0.001500   
    622. D(O  48,N  49,C   8,C  11)   -107.1782         0.014624   
    623. D(O  48,N  49,C   8,C   6)     68.6389         0.014624   
    624. D(O  47,N  49,C   8,H  12)    -23.6857         0.014624   
    625. D(O  47,N  49,C   8,C  11)     72.3892         0.014624   
    626. D(O  47,N  49,C   8,C   6)   -111.7937         0.014624   
    -----------------------------------------------------------------

Number of atoms                         .... 50
Number of degrees of freedom            .... 626

         *************************************************************
         *                GEOMETRY OPTIMIZATION CYCLE   1            *
         *************************************************************
---------------------------------
CARTESIAN COORDINATES (ANGSTROEM)
---------------------------------
  C      2.216559    0.889788    0.809459
  H      1.788964    1.887758    0.806741
  C      1.503435   -0.107194    1.367782
  H      1.872347   -1.125138    1.431848
  C      0.166306    0.047741    1.966273
  O     -0.417187   -0.933162    2.404093
  C      3.551157    0.835085    0.214126
  C      4.282203    2.031463    0.142905
  C      4.215463   -0.313618   -0.256187
  C      5.582347    2.076408   -0.340086
  H      3.815101    2.947433    0.487064
  C      5.517577   -0.310783   -0.742418
  H      5.140749   -0.935157    3.034976
  C      6.212943    0.915443   -0.783153
  H      6.111703    3.023723   -0.385805
  O      7.465829    0.892533   -1.292924
  H      7.840496    1.785112   -1.290354
  O      6.044419   -1.455000   -1.253541
  C      7.122983   -2.044411   -0.495973
  H      6.799633   -2.252931    0.526286
  H      7.360839   -2.978521   -1.002009
  H      7.998316   -1.394052   -0.491353
  C     -3.126534    0.509019    0.917729
  H     -2.729146    0.062898    1.825033
  C     -2.388826    1.448409    0.287055
  H     -2.726572    1.906244   -0.638315
  C     -1.079233    1.932073    0.729612
  O     -0.456706    2.740769    0.052643
  C     -4.420342   -0.017554    0.506225
  C     -5.021084   -1.021064    1.282822
  C     -5.112550    0.435152   -0.634564
  C     -6.252293   -1.559493    0.930953
  H     -4.512865   -1.389440    2.167991
  C     -6.339658   -0.091565   -0.997661
  H     -4.696054    1.207245   -1.271454
  C     -6.919729   -1.110538   -0.208882
  H     -6.698941   -2.343927    1.536163
  O     -8.110666   -1.618605   -0.614485
  H     -8.397866   -2.308644    0.000141
  O     -6.938103    0.339456   -2.151916
  C     -8.143692    1.100866   -1.981348
  H     -7.954240    1.992282   -1.374452
  H     -8.452287    1.404736   -2.981233
  H     -8.933809    0.503166   -1.523330
  C     -0.485265    1.431884    2.056015
  H     -1.258691    1.364348    2.820789
  H      0.245146    2.176488    2.373685
  O      3.856264   -2.507984    0.405516
  O      2.637467   -1.703366   -1.199605
  N      3.512369   -1.613815   -0.354288

----------------------------
CARTESIAN COORDINATES (A.U.)
----------------------------
  NO LB      ZA    FRAG     MASS         X           Y           Z
   0 C     6.0000    0    12.011    4.188689    1.681456    1.529656
   1 H     1.0000    0     1.008    3.380652    3.567346    1.524520
   2 C     6.0000    0    12.011    2.841080   -0.202567    2.584733
   3 H     1.0000    0     1.008    3.538223   -2.126203    2.705801
   4 C     6.0000    0    12.011    0.314273    0.090217    3.715717
   5 O     8.0000    0    15.999   -0.788369   -1.763421    4.543077
   6 C     6.0000    0    12.011    6.710714    1.578082    0.404639
   7 C     6.0000    0    12.011    8.092191    3.838909    0.270051
   8 C     6.0000    0    12.011    7.966071   -0.592652   -0.484123
   9 C     6.0000    0    12.011   10.549107    3.923842   -0.642669
  10 H     1.0000    0     1.008    7.209496    5.569841    0.920418
  11 C     6.0000    0    12.011   10.426709   -0.587295   -1.402967
  12 H     1.0000    0     1.008    9.714608   -1.767191    5.735273
  13 C     6.0000    0    12.011   11.740761    1.729937   -1.479945
  14 H     1.0000    0     1.008   11.549445    5.714008   -0.729066
  15 O     8.0000    0    15.999   14.108372    1.686643   -2.443272
  16 H     1.0000    0     1.008   14.816390    3.373373   -2.438416
  17 O     8.0000    0    15.999   11.422297   -2.749552   -2.368849
  18 C     6.0000    0    12.011   13.460487   -3.863377   -0.937253
  19 H     1.0000    0     1.008   12.849444   -4.257423    0.994536
  20 H     1.0000    0     1.008   13.909970   -5.628589   -1.893523
  21 H     1.0000    0     1.008   15.114627   -2.634376   -0.928523
  22 C     6.0000    0    12.011   -5.908293    0.961907    1.734256
  23 H     1.0000    0     1.008   -5.157339    0.118860    3.448813
  24 C     6.0000    0    12.011   -4.514227    2.737096    0.542455
  25 H     1.0000    0     1.008   -5.152474    3.602279   -1.206241
  26 C     6.0000    0    12.011   -2.039455    3.651089    1.378767
  27 O     8.0000    0    15.999   -0.863049    5.179303    0.099481
  28 C     6.0000    0    12.011   -8.353236   -0.033172    0.956627
  29 C     6.0000    0    12.011   -9.488474   -1.929531    2.424182
  30 C     6.0000    0    12.011   -9.661319    0.822318   -1.199152
  31 C     6.0000    0    12.011  -11.815121   -2.947015    1.759246
  32 H     1.0000    0     1.008   -8.528079   -2.625661    4.096909
  33 C     6.0000    0    12.011  -11.980217   -0.173033   -1.885306
  34 H     1.0000    0     1.008   -8.874256    2.281362   -2.402700
  35 C     6.0000    0    12.011  -13.076393   -2.098613   -0.394730
  36 H     1.0000    0     1.008  -12.659164   -4.429380    2.902927
  37 O     8.0000    0    15.999  -15.326938   -3.058720   -1.161208
  38 H     1.0000    0     1.008  -15.869667   -4.362705    0.000266
  39 O     8.0000    0    15.999  -13.111115    0.641479   -4.066532
  40 C     6.0000    0    12.011  -15.389348    2.080335   -3.744205
  41 H     1.0000    0     1.008  -15.031335    3.764867   -2.597338
  42 H     1.0000    0     1.008  -15.972508    2.654566   -5.633714
  43 H     1.0000    0     1.008  -16.882452    0.950846   -2.878677
  44 C     6.0000    0    12.011   -0.917018    2.705869    3.885305
  45 H     1.0000    0     1.008   -2.378581    2.578244    5.330519
  46 H     1.0000    0     1.008    0.463259    4.112966    4.485615
  47 O     8.0000    0    15.999    7.287283   -4.739403    0.766314
  48 O     8.0000    0    15.999    4.984090   -3.218895   -2.266925
  49 N     7.0000    0    14.007    6.637415   -3.049668   -0.669507

--------------------------------
INTERNAL COORDINATES (ANGSTROEM)
--------------------------------
 C      0   0   0     0.000000000000     0.00000000     0.00000000
 H      1   0   0     1.085720494625     0.00000000     0.00000000
 C      1   2   0     1.346938573220   118.22177297     0.00000000
 H      3   1   2     1.084624590924   122.62136564   181.58050910
 C      3   1   2     1.473129421995   124.82828934     0.84763408
 O      5   3   1     1.222424283487   119.62837665   177.34229442
 C      1   2   3     1.462383540902   113.12793690   181.63236983
 C      7   1   2     1.403859324805   117.64628532    20.98034495
 C      7   1   2     1.407840673448   126.66596899   198.28054852
 C      8   7   1     1.387686845020   122.21842245   176.63562828
 H      8   7   1     1.084265067493   118.65225106   357.25682132
 C      9   7   1     1.389938664683   123.86557344   183.86749301
 H      9   7   1     3.474797663589    87.43135041   277.82612036
 C     10   8   7     1.393484629599   120.50846595     0.28466615
 H     10   8   7     1.086146265897   119.96851155   179.54959628
 O     14  10   8     1.352817308263   123.57483395   178.46808031
 H     16  14  10     0.968028531103   109.98873653     0.52460037
 O     12   9   7     1.359426995900   119.52941247   184.15875296
 C     18  12   9     1.443819553698   115.83823689   247.42535173
 H     19  18  12     1.092267950633   110.35619371    57.16509379
 H     19  18  12     1.088673230190   105.64011798   175.58477690
 H     19  18  12     1.090502652069   111.00107053   294.51782139
 C      6   5   3     3.410238282535    83.32570496   221.56290764
 H     23   6   5     1.086343277975    34.07442368   229.98861590
 C     23   6   5     1.350709576349    93.65292436     9.15002231
 H     25  23   6     1.086275694583   121.40396969   153.66089275
 C     25  23   6     1.464520873458   125.23800609   335.08333487
 O     27  25  23     1.224669797581   120.37028739   176.37189212
 C     23   6   5     1.456212143614   132.54077026   160.92543846
 C     29  23   6     1.403932395478   118.83789891    34.87084429
 C     29  23   6     1.409075647444   123.30312819   214.45195697
 C     30  29  23     1.389097974544   121.07784852   180.20787075
 H     30  29  23     1.085132060119   119.56900634   359.67304308
 C     31  29  23     1.383858472952   121.71843408   179.81076892
 H     31  29  23     1.084078129456   121.04556118     0.47881438
 C     32  30  29     1.395082518472   120.41540605     0.00000000
 H     32  30  29     1.086788976922   120.19724007   179.29212780
 O     36  32  30     1.356826005082   122.93350291   178.65682866
 H     38  36  32     0.967679069422   109.73394763     0.22813864
 O     34  31  29     1.369751848143   119.25812980   183.15367643
 C     40  34  31     1.436065272766   115.69201627   247.60214513
 H     41  40  34     1.094914288963   110.62429943    58.61681279
 H     41  40  34     1.089650340316   106.05867566   177.03513060
 H     41  40  34     1.091471782509   111.54407731   296.10847857
 C      5   3   1     1.532465412025   120.31220903   356.62151512
 H     45   5   3     1.089783538070   106.67087393   199.82526134
 H     45   5   3     1.090343787361   110.42920337   317.24626227
 O      9   7   1     2.319938991389   127.11559418   335.57046377
 O     48   9   7     2.170089785648    61.65910292    87.22395985
 N     49  48   9     1.219849876704    27.35767938   359.69627467

---------------------------
INTERNAL COORDINATES (A.U.)
---------------------------
 C      0   0   0     0.000000000000     0.00000000     0.00000000
 H      1   0   0     2.051714392827     0.00000000     0.00000000
 C      1   2   0     2.545345022601   118.22177297     0.00000000
 H      3   1   2     2.049643434962   122.62136564   181.58050910
 C      3   1   2     2.783811167392   124.82828934     0.84763408
 O      5   3   1     2.310047115245   119.62837665   177.34229442
 C      1   2   3     2.763504395059   113.12793690   181.63236983
 C      7   1   2     2.652909654432   117.64628532    20.98034495
 C      7   1   2     2.660433313012   126.66596899   198.28054852
 C      8   7   1     2.622348096733   122.21842245   176.63562828
 H      8   7   1     2.048964034139   118.65225106   357.25682132
 C      9   7   1     2.626603419200   123.86557344   183.86749301
 H      9   7   1     6.566415954973    87.43135041   277.82612036
 C     10   8   7     2.633304321772   120.50846595     0.28466615
 H     10   8   7     2.052518983927   119.96851155   179.54959628
 O     14  10   8     2.556454221846   123.57483395   178.46808031
 H     16  14  10     1.829308813607   109.98873653     0.52460037
 O     12   9   7     2.568944721310   119.52941247   184.15875296
 C     18  12   9     2.728423543290   115.83823689   247.42535173
 H     19  18  12     2.064087291557   110.35619371    57.16509379
 H     19  18  12     2.057294254390   105.64011798   175.58477690
 H     19  18  12     2.060751360726   111.00107053   294.51782139
 C      6   5   3     6.444416405405    83.32570496   221.56290764
 H     23   6   5     2.052891282799    34.07442368   229.98861590
 C     23   6   5     2.552471185764    93.65292436     9.15002231
 H     25  23   6     2.052763568696   121.40396969   153.66089275
 C     25  23   6     2.767543368247   125.23800609   335.08333487
 O     27  25  23     2.314290521912   120.37028739   176.37189212
 C     23   6   5     2.751842144321   132.54077026   160.92543846
 C     29  23   6     2.653047737994   118.83789891    34.87084429
 C     29  23   6     2.662767075648   123.30312819   214.45195697
 C     30  29  23     2.625014745073   121.07784852   180.20787075
 H     30  29  23     2.050602412763   119.56900634   359.67304308
 C     31  29  23     2.615113521986   121.71843408   179.81076892
 H     31  29  23     2.048610772446   121.04556118     0.47881438
 C     32  30  29     2.636323894133   120.41540605     0.00000000
 H     32  30  29     2.053733531748   120.19724007   179.29212780
 O     36  32  30     2.564029560988   122.93350291   178.65682866
 H     38  36  32     1.828648426735   109.73394763     0.22813864
 O     34  31  29     2.588455864423   119.25812980   183.15367643
 C     40  34  31     2.713770075963   115.69201627   247.60214513
 H     41  40  34     2.069088146258   110.62429943    58.61681279
 H     41  40  34     2.059140724931   106.05867566   177.03513060
 H     41  40  34     2.062582751845   111.54407731   296.10847857
 C      5   3   1     2.895939938435   120.31220903   356.62151512
 H     45   5   3     2.059392432208   106.67087393   199.82526134
 H     45   5   3     2.060451149935   110.42920337   317.24626227
 O      9   7   1     4.384049341130   127.11559418   335.57046377
 O     48   9   7     4.100875380895    61.65910292    87.22395985
 N     49  48   9     2.305182191468    27.35767938   359.69627467

---------------------
BASIS SET INFORMATION
---------------------
There are 4 groups of distinct atoms

 Group   1 Type C   : 11s5p1d contracted to 4s3p1d pattern {6311/311/1}
 Group   2 Type H   : 5s contracted to 3s pattern {311}
 Group   3 Type O   : 11s5p1d contracted to 4s3p1d pattern {6311/311/1}
 Group   4 Type N   : 11s5p1d contracted to 4s3p1d pattern {6311/311/1}

Atom   0C    basis set group =>   1
Atom   1H    basis set group =>   2
Atom   2C    basis set group =>   1
Atom   3H    basis set group =>   2
Atom   4C    basis set group =>   1
Atom   5O    basis set group =>   3
Atom   6C    basis set group =>   1
Atom   7C    basis set group =>   1
Atom   8C    basis set group =>   1
Atom   9C    basis set group =>   1
Atom  10H    basis set group =>   2
Atom  11C    basis set group =>   1
Atom  12H    basis set group =>   2
Atom  13C    basis set group =>   1
Atom  14H    basis set group =>   2
Atom  15O    basis set group =>   3
Atom  16H    basis set group =>   2
Atom  17O    basis set group =>   3
Atom  18C    basis set group =>   1
Atom  19H    basis set group =>   2
Atom  20H    basis set group =>   2
Atom  21H    basis set group =>   2
Atom  22C    basis set group =>   1
Atom  23H    basis set group =>   2
Atom  24C    basis set group =>   1
Atom  25H    basis set group =>   2
Atom  26C    basis set group =>   1
Atom  27O    basis set group =>   3
Atom  28C    basis set group =>   1
Atom  29C    basis set group =>   1
Atom  30C    basis set group =>   1
Atom  31C    basis set group =>   1
Atom  32H    basis set group =>   2
Atom  33C    basis set group =>   1
Atom  34H    basis set group =>   2
Atom  35C    basis set group =>   1
Atom  36H    basis set group =>   2
Atom  37O    basis set group =>   3
Atom  38H    basis set group =>   2
Atom  39O    basis set group =>   3
Atom  40C    basis set group =>   1
Atom  41H    basis set group =>   2
Atom  42H    basis set group =>   2
Atom  43H    basis set group =>   2
Atom  44C    basis set group =>   1
Atom  45H    basis set group =>   2
Atom  46H    basis set group =>   2
Atom  47O    basis set group =>   3
Atom  48O    basis set group =>   3
Atom  49N    basis set group =>   4
---------------------------------
AUXILIARY/J BASIS SET INFORMATION
---------------------------------
There are 4 groups of distinct atoms

 Group   1 Type C   : 12s5p4d2f1g contracted to 6s4p3d1f1g pattern {711111/2111/211/2/1}
 Group   2 Type H   : 5s2p1d contracted to 3s1p1d pattern {311/2/1}
 Group   3 Type O   : 12s5p4d2f1g contracted to 6s4p3d1f1g pattern {711111/2111/211/2/1}
 Group   4 Type N   : 12s5p4d2f1g contracted to 6s4p3d1f1g pattern {711111/2111/211/2/1}

Atom   0C    basis set group =>   1
Atom   1H    basis set group =>   2
Atom   2C    basis set group =>   1
Atom   3H    basis set group =>   2
Atom   4C    basis set group =>   1
Atom   5O    basis set group =>   3
Atom   6C    basis set group =>   1
Atom   7C    basis set group =>   1
Atom   8C    basis set group =>   1
Atom   9C    basis set group =>   1
Atom  10H    basis set group =>   2
Atom  11C    basis set group =>   1
Atom  12H    basis set group =>   2
Atom  13C    basis set group =>   1
Atom  14H    basis set group =>   2
Atom  15O    basis set group =>   3
Atom  16H    basis set group =>   2
Atom  17O    basis set group =>   3
Atom  18C    basis set group =>   1
Atom  19H    basis set group =>   2
Atom  20H    basis set group =>   2
Atom  21H    basis set group =>   2
Atom  22C    basis set group =>   1
Atom  23H    basis set group =>   2
Atom  24C    basis set group =>   1
Atom  25H    basis set group =>   2
Atom  26C    basis set group =>   1
Atom  27O    basis set group =>   3
Atom  28C    basis set group =>   1
Atom  29C    basis set group =>   1
Atom  30C    basis set group =>   1
Atom  31C    basis set group =>   1
Atom  32H    basis set group =>   2
Atom  33C    basis set group =>   1
Atom  34H    basis set group =>   2
Atom  35C    basis set group =>   1
Atom  36H    basis set group =>   2
Atom  37O    basis set group =>   3
Atom  38H    basis set group =>   2
Atom  39O    basis set group =>   3
Atom  40C    basis set group =>   1
Atom  41H    basis set group =>   2
Atom  42H    basis set group =>   2
Atom  43H    basis set group =>   2
Atom  44C    basis set group =>   1
Atom  45H    basis set group =>   2
Atom  46H    basis set group =>   2
Atom  47O    basis set group =>   3
Atom  48O    basis set group =>   3
Atom  49N    basis set group =>   4
------------------------------------------------------------------------------
                           ORCA GTO INTEGRAL CALCULATION
                           -- RI-GTO INTEGRALS CHOSEN --
------------------------------------------------------------------------------
------------------------------------------------------------------------------
                   ___                                                        
                  /   \      - P O W E R E D   B Y -                         
                 /     \                                                     
                 |  |  |   _    _      __       _____    __    __             
                 |  |  |  | |  | |    /  \     |  _  \  |  |  /  |          
                  \  \/   | |  | |   /    \    | | | |  |  | /  /          
                 / \  \   | |__| |  /  /\  \   | |_| |  |  |/  /          
                |  |  |   |  __  | /  /__\  \  |    /   |      \           
                |  |  |   | |  | | |   __   |  |    \   |  |\   \          
                \     /   | |  | | |  |  |  |  | |\  \  |  | \   \       
                 \___/    |_|  |_| |__|  |__|  |_| \__\ |__|  \__/        
                                                                              
                      - O R C A' S   B I G   F R I E N D -                    
                                      &                                       
                       - I N T E G R A L  F E E D E R -                       
                                                                              
 v1 FN, 2020, v2 2021                                                         
------------------------------------------------------------------------------


Reading SHARK input file CURCUMIN-OPT-FREQ-Prod-1-wB97XM-V-6-311G-D-298.SHARKINP.tmp ... ok
----------------------
SHARK INTEGRAL PACKAGE
----------------------

Number of atoms                             ...     50
Number of basis functions                   ...    600
Number of shells                            ...    300
Maximum angular momentum                    ...      2
Integral batch strategy                     ... SHARK/LIBINT Hybrid
RI-J (if used) integral strategy            ... SPLIT-RIJ (Revised 2003 algorithm where possible)
Printlevel                                  ...      1
Contraction scheme used                     ... SEGMENTED contraction
Coulomb Range Separation                    ... NOT USED
Exchange Range Separation                   ... Long Range
   Mu parameter                             ...  0.300000
   Scaling (regular/separated)              ...  0.150000  0.850000
Finite Nucleus Model                        ... NOT USED
Auxiliary Coulomb fitting basis             ... AVAILABLE
   # of basis functions in Aux-J            ...   1690
   # of shells in Aux-J                     ...    550
   Maximum angular momentum in Aux-J        ...      4
[...]
 52:    574.63   0.010238   51.74  0.005560  (-0.071411  0.004209  0.021041)
 53:    576.88   0.008599   43.46  0.004652  ( 0.057565  0.035412  0.009169)
 54:    595.47   0.000568    2.87  0.000298  ( 0.015816 -0.006895 -0.000225)
 55:    610.34   0.006030   30.47  0.003083  ( 0.055323 -0.003867 -0.002752)
 56:    618.97   0.001857    9.38  0.000936  (-0.022794 -0.018743  0.008079)
 57:    631.96   0.001811    9.15  0.000894  (-0.008389 -0.027897 -0.006751)
 58:    659.04   0.001005    5.08  0.000476  (-0.006218  0.018252  0.010208)
 59:    683.11   0.003317   16.76  0.001515  ( 0.038187  0.004620  0.005962)
 60:    725.13   0.002714   13.72  0.001168  ( 0.001495 -0.014292 -0.031008)
 61:    735.09   0.000640    3.23  0.000272  (-0.011085 -0.010931  0.005403)
 62:    751.18   0.000585    2.95  0.000243  (-0.001596  0.004323  0.014886)
 63:    764.60   0.000950    4.80  0.000388  ( 0.016761 -0.003256 -0.009804)
 64:    770.34   0.001760    8.89  0.000713  ( 0.010931 -0.003560  0.024097)
 65:    786.82   0.003552   17.95  0.001409  (-0.029291  0.001383  0.023430)
 66:    820.29   0.006017   30.41  0.002289  ( 0.039964  0.021328  0.015390)
 67:    830.73   0.010556   53.34  0.003965  ( 0.019760 -0.001112 -0.059779)
 68:    836.48   0.011679   59.02  0.004357  (-0.047219  0.043337 -0.015788)
 69:    838.86   0.016668   84.23  0.006201  (-0.038107 -0.065354 -0.021850)
 70:    860.09   0.001096    5.54  0.000398  (-0.010654 -0.003952  0.016387)
 71:    880.01   0.003067   15.50  0.001088  (-0.006798 -0.023990  0.021581)
 72:    898.09   0.001294    6.54  0.000450  (-0.001587  0.008604  0.019314)
 73:    922.37   0.001784    9.02  0.000604  (-0.011159  0.016324  0.014580)
 74:    942.82   0.000405    2.04  0.000134  (-0.007115  0.009095 -0.000761)
 75:    957.90   0.000976    4.93  0.000318  ( 0.003394  0.006831 -0.016122)
 76:    960.96   0.000407    2.06  0.000132  (-0.004965  0.010235 -0.001664)
 77:    963.94   0.000506    2.56  0.000164  ( 0.011266  0.004882 -0.003623)
 78:    972.59   0.007908   39.96  0.002537  (-0.020444  0.012897  0.044192)
 79:    992.91   0.008607   43.50  0.002705  ( 0.049957  0.011464 -0.008834)
 80:   1018.65   0.035340  178.60  0.010827  ( 0.102366 -0.017650  0.006019)
 81:   1030.35   0.015715   79.42  0.004760  ( 0.066213 -0.007139  0.018011)
 82:   1031.36   0.014152   71.52  0.004282  ( 0.012284 -0.043130 -0.047654)
 83:   1060.07   0.022687  114.65  0.006679  ( 0.073481 -0.032403  0.015141)
 84:   1098.78   0.025740  130.08  0.007310  (-0.024086  0.081737 -0.007013)
 85:   1136.92   0.009094   45.96  0.002496  (-0.000205 -0.001127  0.049949)
 86:   1145.64   0.039823  201.25  0.010848  (-0.054435 -0.088633  0.005347)
 87:   1175.93   0.000277    1.40  0.000073  ( 0.000885 -0.007106 -0.004709)
 88:   1178.02   0.002924   14.78  0.000775  (-0.023535 -0.011097 -0.009874)
 89:   1185.72   0.023840  120.48  0.006274  (-0.069964 -0.016136  0.033452)
 90:   1189.88   0.006038   30.51  0.001584  ( 0.019269  0.033836  0.008210)
 91:   1192.43   0.005658   28.59  0.001481  ( 0.030101  0.010726 -0.021438)
 92:   1204.11   0.007488   37.84  0.001941  (-0.027427  0.001542 -0.034439)
 93:   1216.86   0.018958   95.80  0.004862  (-0.060526  0.007360  0.033824)
 94:   1221.16   0.068805  347.71  0.017583  ( 0.124173  0.046345  0.004010)
 95:   1233.44   0.086974  439.53  0.022005  (-0.146840 -0.018369 -0.010256)
 96:   1252.13   0.044371  224.23  0.011059  (-0.103568  0.017912 -0.003358)
 97:   1272.78   0.009687   48.95  0.002375  (-0.027924  0.016386 -0.036425)
 98:   1290.20   0.017729   89.59  0.004288  ( 0.040518  0.004351  0.051259)
 99:   1294.04   0.089871  454.17  0.021673  (-0.134080  0.059150  0.014029)
100:   1301.84   0.061498  310.78  0.014742  (-0.111093 -0.015843 -0.046355)
101:   1312.08   0.014506   73.31  0.003450  ( 0.047805 -0.022189 -0.025932)
102:   1322.61   0.048762  246.42  0.011505  (-0.069246 -0.056541 -0.059272)
103:   1325.85   0.024691  124.78  0.005811  (-0.004104  0.029657  0.070108)
104:   1337.68   0.039812  201.19  0.009288  (-0.091339  0.014997  0.026830)
105:   1346.28   0.000345    1.75  0.000080  (-0.000894 -0.000585 -0.008884)
106:   1364.22   0.035864  181.24  0.008204  ( 0.076909 -0.010379 -0.046703)
107:   1369.52   0.012209   61.70  0.002782  ( 0.045354  0.026899 -0.001204)
108:   1378.50   0.005610   28.35  0.001270  ( 0.026534 -0.022340 -0.008169)
109:   1384.75   0.038709  195.62  0.008723  (-0.080501 -0.021668 -0.042113)
110:   1467.57   0.006616   33.44  0.001407  (-0.015435 -0.030748 -0.014939)
111:   1468.23   0.000845    4.27  0.000180  (-0.005045  0.007616 -0.009807)
112:   1479.62   0.033042  166.98  0.006969  (-0.027017 -0.078768 -0.005862)
113:   1484.11   0.002842   14.36  0.000598  (-0.013523 -0.019585  0.005578)
114:   1485.91   0.003013   15.22  0.000633  (-0.020086 -0.013273  0.007285)
115:   1487.04   0.004957   25.05  0.001040  ( 0.007896  0.000587 -0.031266)
116:   1495.21   0.003823   19.32  0.000798  (-0.006707  0.019601  0.019204)
117:   1496.68   0.006944   35.09  0.001448  (-0.032368  0.004226 -0.019551)
118:   1501.49   0.001185    5.99  0.000246  (-0.002759 -0.001913 -0.015331)
119:   1510.93   0.005192   26.24  0.001072  (-0.031347 -0.007527  0.005746)
120:   1558.24   0.054740  276.63  0.010963  (-0.085251  0.025352  0.055246)
121:   1563.90   0.068660  346.98  0.013700  (-0.098105 -0.032649 -0.054863)
122:   1653.17   0.105292  532.10  0.019876  ( 0.104412 -0.048570  0.081331)
123:   1664.07   0.002988   15.10  0.000560  ( 0.004962  0.020553 -0.010644)
124:   1665.83   0.019464   98.36  0.003646  ( 0.042386 -0.035359  0.024483)
125:   1678.88   0.065389  330.45  0.012154  ( 0.083897  0.071482 -0.002453)
126:   1684.55   0.041068  207.54  0.007608  (-0.054829 -0.035321  0.057914)
127:   1714.14   0.034430  174.00  0.006268  ( 0.069285  0.035002  0.015573)
128:   1724.08   0.010330   52.21  0.001870  ( 0.023863 -0.035019 -0.008605)
129:   1742.30   0.270733  1368.18  0.048491  (-0.149446 -0.138949  0.082766)
130:   1769.04   0.016436   83.06  0.002899  ( 0.031572  0.029587 -0.032051)
131:   3044.00   0.013737   69.42  0.001408  (-0.025928  0.027078 -0.001681)
132:   3064.19   0.010446   52.79  0.001064  (-0.021938  0.021608 -0.010753)
133:   3102.14   0.000315    1.59  0.000032  ( 0.000382  0.003408  0.004468)
134:   3118.53   0.010039   50.73  0.001005  ( 0.022843  0.021032  0.006359)
135:   3144.26   0.006629   33.50  0.000658  (-0.020620 -0.008010  0.012981)
136:   3158.12   0.002146   10.84  0.000212  (-0.013800 -0.004505  0.001141)
137:   3163.33   0.008047   40.67  0.000794  (-0.004409  0.004941 -0.027387)
138:   3178.10   0.005895   29.79  0.000579  (-0.001259  0.018385  0.015467)
139:   3180.80   0.000368    1.86  0.000036  (-0.005816  0.001505  0.000038)
140:   3182.51   0.002675   13.52  0.000262  ( 0.012749  0.009582  0.002822)
141:   3185.40   0.000547    2.76  0.000054  ( 0.004877 -0.002764  0.004709)
142:   3188.31   0.001399    7.07  0.000137  ( 0.007033 -0.000505  0.009338)
143:   3192.80   0.001903    9.62  0.000186  (-0.012051 -0.001918  0.006092)
144:   3197.48   0.000746    3.77  0.000073  (-0.005714  0.006251 -0.001042)
145:   3199.94   0.002843   14.37  0.000277  ( 0.000495  0.009619 -0.013581)
146:   3206.04   0.001024    5.18  0.000100  ( 0.002667 -0.004780  0.008350)
147:   3209.81   0.000818    4.13  0.000079  ( 0.002216  0.008564  0.001111)
148:   3802.43   0.043209  218.36  0.003546  ( 0.048290  0.032148 -0.013444)
149:   3805.27   0.038489  194.51  0.003156  (-0.038534 -0.039120  0.011881)

* The epsilon (eps) is given for a Dirac delta lineshape.
** The dipole moment derivative (T) already includes vibrational overlap.

The first frequency considered to be a vibration is 7
The total number of vibrations considered is 143


--------------------------
THERMOCHEMISTRY AT 298.15K
--------------------------

Temperature         ... 298.15 K
Pressure            ... 1.00 atm
Total Mass          ... 414.39 AMU

Throughout the following assumptions are being made:
  (1) The electronic state is orbitally nondegenerate
      but the spin degeneracy is treated
  (2) There are no thermally accessible electronically excited states
  (3) Hindered rotations indicated by low frequency modes are not
      treated as such but are treated as vibrations and this may
      cause some error
  (4) All equations used are the standard statistical mechanics
      equations for an ideal gas
  (5) All vibrations are strictly harmonic

freq.      10.47  E(vib)   ...       0.58 
freq.      20.81  E(vib)   ...       0.56 
freq.      35.93  E(vib)   ...       0.54 
freq.      37.79  E(vib)   ...       0.54 
freq.      43.66  E(vib)   ...       0.53 
freq.      51.04  E(vib)   ...       0.52 
freq.      61.05  E(vib)   ...       0.51 
freq.      67.40  E(vib)   ...       0.50 
freq.      79.44  E(vib)   ...       0.49 
freq.      83.99  E(vib)   ...       0.48 
freq.      86.53  E(vib)   ...       0.48 
freq.      89.34  E(vib)   ...       0.47 
freq.     108.30  E(vib)   ...       0.45 
freq.     119.51  E(vib)   ...       0.44 
freq.     126.27  E(vib)   ...       0.43 
freq.     140.47  E(vib)   ...       0.41 
freq.     145.38  E(vib)   ...       0.41 
freq.     159.03  E(vib)   ...       0.39 
freq.     161.26  E(vib)   ...       0.39 
freq.     175.03  E(vib)   ...       0.38 
freq.     181.08  E(vib)   ...       0.37 
freq.     186.39  E(vib)   ...       0.37 
freq.     196.86  E(vib)   ...       0.35 
freq.     220.99  E(vib)   ...       0.33 
freq.     231.50  E(vib)   ...       0.32 
freq.     250.21  E(vib)   ...       0.31 
freq.     272.42  E(vib)   ...       0.29 
freq.     295.43  E(vib)   ...       0.27 
freq.     304.18  E(vib)   ...       0.26 
freq.     316.38  E(vib)   ...       0.25 
freq.     323.64  E(vib)   ...       0.25 
freq.     340.10  E(vib)   ...       0.23 
freq.     385.27  E(vib)   ...       0.20 
freq.     388.49  E(vib)   ...       0.20 
freq.     392.73  E(vib)   ...       0.20 
freq.     399.80  E(vib)   ...       0.19 
freq.     407.56  E(vib)   ...       0.19 
freq.     431.58  E(vib)   ...       0.18 
freq.     458.68  E(vib)   ...       0.16 
freq.     466.61  E(vib)   ...       0.16 
freq.     469.38  E(vib)   ...       0.16 
freq.     484.57  E(vib)   ...       0.15 
freq.     505.09  E(vib)   ...       0.14 
freq.     536.09  E(vib)   ...       0.12 
freq.     563.30  E(vib)   ...       0.11 
freq.     574.63  E(vib)   ...       0.11 
freq.     576.88  E(vib)   ...       0.11 
freq.     595.47  E(vib)   ...       0.10 
freq.     610.34  E(vib)   ...       0.10 
freq.     618.97  E(vib)   ...       0.09 
freq.     631.96  E(vib)   ...       0.09 
freq.     659.04  E(vib)   ...       0.08 
freq.     683.11  E(vib)   ...       0.08 
freq.     725.13  E(vib)   ...       0.06 
freq.     735.09  E(vib)   ...       0.06 
freq.     751.18  E(vib)   ...       0.06 
freq.     764.60  E(vib)   ...       0.06 
freq.     770.34  E(vib)   ...       0.05 
freq.     786.82  E(vib)   ...       0.05 
freq.     820.29  E(vib)   ...       0.05 
freq.     830.73  E(vib)   ...       0.04 
freq.     836.48  E(vib)   ...       0.04 
freq.     838.86  E(vib)   ...       0.04 
freq.     860.09  E(vib)   ...       0.04 
freq.     880.01  E(vib)   ...       0.04 
freq.     898.09  E(vib)   ...       0.03 
freq.     922.37  E(vib)   ...       0.03 
freq.     942.82  E(vib)   ...       0.03 
freq.     957.90  E(vib)   ...       0.03 
freq.     960.96  E(vib)   ...       0.03 
freq.     963.94  E(vib)   ...       0.03 
freq.     972.59  E(vib)   ...       0.03 
freq.     992.91  E(vib)   ...       0.02 
freq.    1018.65  E(vib)   ...       0.02 
freq.    1030.35  E(vib)   ...       0.02 
freq.    1031.36  E(vib)   ...       0.02 
freq.    1060.07  E(vib)   ...       0.02 
freq.    1098.78  E(vib)   ...       0.02 
freq.    1136.92  E(vib)   ...       0.01 
freq.    1145.64  E(vib)   ...       0.01 
freq.    1175.93  E(vib)   ...       0.01 
freq.    1178.02  E(vib)   ...       0.01 
freq.    1185.72  E(vib)   ...       0.01 
freq.    1189.88  E(vib)   ...       0.01 
freq.    1192.43  E(vib)   ...       0.01 
freq.    1204.11  E(vib)   ...       0.01 
freq.    1216.86  E(vib)   ...       0.01 
freq.    1221.16  E(vib)   ...       0.01 
freq.    1233.44  E(vib)   ...       0.01 
freq.    1252.13  E(vib)   ...       0.01 
freq.    1272.78  E(vib)   ...       0.01 
freq.    1290.20  E(vib)   ...       0.01 
freq.    1294.04  E(vib)   ...       0.01 
freq.    1301.84  E(vib)   ...       0.01 
freq.    1312.08  E(vib)   ...       0.01 
freq.    1322.61  E(vib)   ...       0.01 
freq.    1325.85  E(vib)   ...       0.01 
freq.    1337.68  E(vib)   ...       0.01 
freq.    1346.28  E(vib)   ...       0.01 
freq.    1364.22  E(vib)   ...       0.01 
freq.    1369.52  E(vib)   ...       0.01 
freq.    1378.50  E(vib)   ...       0.01 
freq.    1384.75  E(vib)   ...       0.00 
freq.    1467.57  E(vib)   ...       0.00 
freq.    1468.23  E(vib)   ...       0.00 
freq.    1479.62  E(vib)   ...       0.00 
freq.    1484.11  E(vib)   ...       0.00 
freq.    1485.91  E(vib)   ...       0.00 
freq.    1487.04  E(vib)   ...       0.00 
freq.    1495.21  E(vib)   ...       0.00 
freq.    1496.68  E(vib)   ...       0.00 
freq.    1501.49  E(vib)   ...       0.00 
freq.    1510.93  E(vib)   ...       0.00 
freq.    1558.24  E(vib)   ...       0.00 
freq.    1563.90  E(vib)   ...       0.00 
freq.    1653.17  E(vib)   ...       0.00 
freq.    1664.07  E(vib)   ...       0.00 
freq.    1665.83  E(vib)   ...       0.00 
freq.    1678.88  E(vib)   ...       0.00 
freq.    1684.55  E(vib)   ...       0.00 
freq.    1714.14  E(vib)   ...       0.00 
freq.    1724.08  E(vib)   ...       0.00 
freq.    1742.30  E(vib)   ...       0.00 
freq.    1769.04  E(vib)   ...       0.00 
freq.    3044.00  E(vib)   ...       0.00 
freq.    3064.19  E(vib)   ...       0.00 
freq.    3102.14  E(vib)   ...       0.00 
freq.    3118.53  E(vib)   ...       0.00 
freq.    3144.26  E(vib)   ...       0.00 
freq.    3158.12  E(vib)   ...       0.00 
freq.    3163.33  E(vib)   ...       0.00 
freq.    3178.10  E(vib)   ...       0.00 
freq.    3180.80  E(vib)   ...       0.00 
freq.    3182.51  E(vib)   ...       0.00 
freq.    3185.40  E(vib)   ...       0.00 
freq.    3188.31  E(vib)   ...       0.00 
freq.    3192.80  E(vib)   ...       0.00 
freq.    3197.48  E(vib)   ...       0.00 
freq.    3199.94  E(vib)   ...       0.00 
freq.    3206.04  E(vib)   ...       0.00 
freq.    3209.81  E(vib)   ...       0.00 
freq.    3802.43  E(vib)   ...       0.00 
freq.    3805.27  E(vib)   ...       0.00 

------------
INNER ENERGY
------------

The inner energy is: U= E(el) + E(ZPE) + E(vib) + E(rot) + E(trans)
    E(el)   - is the total energy from the electronic structure calculation
              = E(kin-el) + E(nuc-el) + E(el-el) + E(nuc-nuc)
    E(ZPE)  - the the zero temperature vibrational energy from the frequency calculation
    E(vib)  - the the finite temperature correction to E(ZPE) due to population
              of excited vibrational states
    E(rot)  - is the rotational thermal energy
    E(trans)- is the translational thermal energy

Summary of contributions to the inner energy U:
Electronic energy                ...  -1468.43280926 Eh
Zero point energy                ...      0.37467409 Eh     235.11 kcal/mol
Thermal vibrational correction   ...      0.02741908 Eh      17.21 kcal/mol
Thermal rotational correction    ...      0.00141627 Eh       0.89 kcal/mol
Thermal translational correction ...      0.00141627 Eh       0.89 kcal/mol
-----------------------------------------------------------------------
Total thermal energy                  -1468.02788354 Eh


Summary of corrections to the electronic energy:
(perhaps to be used in another calculation)
Total thermal correction                  0.03025162 Eh      18.98 kcal/mol
Non-thermal (ZPE) correction              0.37467409 Eh     235.11 kcal/mol
-----------------------------------------------------------------------
Total correction                          0.40492571 Eh     254.09 kcal/mol


--------
ENTHALPY
--------

The enthalpy is H = U + kB*T
                kB is Boltzmann's constant
Total free energy                 ...  -1468.02788354 Eh 
Thermal Enthalpy correction       ...      0.00094421 Eh       0.59 kcal/mol
-----------------------------------------------------------------------
Total Enthalpy                    ...  -1468.02693933 Eh


Note: Only C1 symmetry has been detected, increase convergence thresholds 
      if your molecule has a higher symmetry. Symmetry factor of 1.0 is   
      used for the rotational entropy correction. 
 

Note: Rotational entropy computed according to Herzberg 
Infrared and Raman Spectra, Chapter V,1, Van Nostrand Reinhold, 1945 
Point Group:  C1, Symmetry Number:   1  
Rotational constants in cm-1:     0.010802     0.001685     0.001640 

Vibrational entropy computed according to the QRRHO of S. Grimme
Chem.Eur.J. 2012 18 9955


-------
ENTROPY
-------

The entropy contributions are T*S = T*(S(el)+S(vib)+S(rot)+S(trans))
     S(el)   - electronic entropy
     S(vib)  - vibrational entropy
     S(rot)  - rotational entropy
     S(trans)- translational entropy
The entropies will be listed as multiplied by the temperature to get
units of energy

Electronic entropy                ...      0.00065446 Eh      0.41 kcal/mol
Vibrational entropy               ...      0.05021187 Eh     31.51 kcal/mol
Rotational entropy                ...      0.01769075 Eh     11.10 kcal/mol
Translational entropy             ...      0.02088467 Eh     13.11 kcal/mol
-----------------------------------------------------------------------
Final entropy term                ...      0.08944175 Eh     56.13 kcal/mol

In case the symmetry of your molecule has not been determined correctly
or in case you have a reason to use a different symmetry number we print 
out the resulting rotational entropy values for sn=1,12 :
 --------------------------------------------------------
|  sn= 1 | S(rot)=       0.01769075 Eh     11.10 kcal/mol|
|  sn= 2 | S(rot)=       0.01703630 Eh     10.69 kcal/mol|
|  sn= 3 | S(rot)=       0.01665346 Eh     10.45 kcal/mol|
|  sn= 4 | S(rot)=       0.01638184 Eh     10.28 kcal/mol|
|  sn= 5 | S(rot)=       0.01617115 Eh     10.15 kcal/mol|
|  sn= 6 | S(rot)=       0.01599901 Eh     10.04 kcal/mol|
|  sn= 7 | S(rot)=       0.01585346 Eh      9.95 kcal/mol|
|  sn= 8 | S(rot)=       0.01572738 Eh      9.87 kcal/mol|
|  sn= 9 | S(rot)=       0.01561617 Eh      9.80 kcal/mol|
|  sn=10 | S(rot)=       0.01551670 Eh      9.74 kcal/mol|
|  sn=11 | S(rot)=       0.01542671 Eh      9.68 kcal/mol|
|  sn=12 | S(rot)=       0.01534455 Eh      9.63 kcal/mol|
 --------------------------------------------------------


-------------------
GIBBS FREE ENERGY
-------------------

The Gibbs free energy is G = H - T*S

Total enthalpy                    ...  -1468.02693933 Eh 
Total entropy correction          ...     -0.08944175 Eh    -56.13 kcal/mol
-----------------------------------------------------------------------
Final Gibbs free energy         ...  -1468.11638108 Eh

For completeness - the Gibbs free energy minus the electronic energy
G-E(el)                           ...      0.31642818 Eh    198.56 kcal/mol



Timings for individual modules:

Sum of individual times         ...   449576.056 sec (=7492.934 min)
GTO integral calculation        ...       59.405 sec (=   0.990 min)   0.0 %
SCF iterations                  ...    39662.750 sec (= 661.046 min)   8.8 %
SCF Gradient evaluation         ...    11077.150 sec (= 184.619 min)   2.5 %
Geometry relaxation             ...       17.558 sec (=   0.293 min)   0.0 %
Numerical frequency calculation ...   398759.193 sec (=6645.987 min)  88.7 %
                             ****ORCA TERMINATED NORMALLY****
TOTAL RUN TIME: 5 days 4 hours 42 minutes 3 seconds 194 msec
