 Entering Gaussian System, Link 0=g16
 Initial command:
 /sw/cluster/pub/apps//g16/l1.exe "/data/natrosa/25352/Gau-1033108.inp" -scrdir="/data/natrosa/25352/"
 Entering Link 1 = /sw/cluster/pub/apps//g16/l1.exe PID=   1033109.
  
 Copyright (c) 1988,1990,1992,1993,1995,1998,2003,2009,2016,
            Gaussian, Inc.  All Rights Reserved.
  
 This is part of the Gaussian(R) 16 program.  It is based on
 the Gaussian(R) 09 system (copyright 2009, Gaussian, Inc.),
 the Gaussian(R) 03 system (copyright 2003, Gaussian, Inc.),
 the Gaussian(R) 98 system (copyright 1998, Gaussian, Inc.),
 the Gaussian(R) 94 system (copyright 1995, Gaussian, Inc.),
 the Gaussian 92(TM) system (copyright 1992, Gaussian, Inc.),
 the Gaussian 90(TM) system (copyright 1990, Gaussian, Inc.),
 the Gaussian 88(TM) system (copyright 1988, Gaussian, Inc.),
 the Gaussian 86(TM) system (copyright 1986, Carnegie Mellon
 University), and the Gaussian 82(TM) system (copyright 1983,
 Carnegie Mellon University). Gaussian is a federally registered
 trademark of Gaussian, Inc.
  
 This software contains proprietary and confidential information,
 including trade secrets, belonging to Gaussian, Inc.
  
 This software is provided under written license and may be
 used, copied, transmitted, or stored only in accord with that
 written license.
  
 The following legend is applicable only to US Government
 contracts under FAR:
  
                    RESTRICTED RIGHTS LEGEND
  
 Use, reproduction and disclosure by the US Government is
 subject to restrictions as set forth in subparagraphs (a)
 and (c) of the Commercial Computer Software - Restricted
 Rights clause in FAR 52.227-19.
  
 Gaussian, Inc.
 340 Quinnipiac St., Bldg. 40, Wallingford CT 06492
  
  
 ---------------------------------------------------------------
 Warning -- This program may not be used in any manner that
 competes with the business of Gaussian, Inc. or will provide
 assistance to any competitor of Gaussian, Inc.  The licensee
 of this program is prohibited from giving any competitor of
 Gaussian, Inc. access to this program.  By using this program,
 the user acknowledges that Gaussian, Inc. is engaged in the
 business of creating and licensing software in the field of
 computational chemistry and represents and warrants to the
 licensee that it is not a competitor of Gaussian, Inc. and that
 it will not use this program in any manner prohibited above.
 ---------------------------------------------------------------
  

 Cite this work as:
 Gaussian 16, Revision A.03,
 M. J. Frisch, G. W. Trucks, H. B. Schlegel, G. E. Scuseria, 
 M. A. Robb, J. R. Cheeseman, G. Scalmani, V. Barone, 
 G. A. Petersson, H. Nakatsuji, X. Li, M. Caricato, A. V. Marenich, 
 J. Bloino, B. G. Janesko, R. Gomperts, B. Mennucci, H. P. Hratchian, 
 J. V. Ortiz, A. F. Izmaylov, J. L. Sonnenberg, D. Williams-Young, 
 F. Ding, F. Lipparini, F. Egidi, J. Goings, B. Peng, A. Petrone, 
 T. Henderson, D. Ranasinghe, V. G. Zakrzewski, J. Gao, N. Rega, 
 G. Zheng, W. Liang, M. Hada, M. Ehara, K. Toyota, R. Fukuda, 
 J. Hasegawa, M. Ishida, T. Nakajima, Y. Honda, O. Kitao, H. Nakai, 
 T. Vreven, K. Throssell, J. A. Montgomery, Jr., J. E. Peralta, 
 F. Ogliaro, M. J. Bearpark, J. J. Heyd, E. N. Brothers, K. N. Kudin, 
 V. N. Staroverov, T. A. Keith, R. Kobayashi, J. Normand, 
 K. Raghavachari, A. P. Rendell, J. C. Burant, S. S. Iyengar, 
 J. Tomasi, M. Cossi, J. M. Millam, M. Klene, C. Adamo, R. Cammi, 
 J. W. Ochterski, R. L. Martin, K. Morokuma, O. Farkas, 
 J. B. Foresman, and D. J. Fox, Gaussian, Inc., Wallingford CT, 2016.
 
 ******************************************
 Gaussian 16:  ES64L-G16RevA.03 25-Dec-2016
                 4-Nov-2024 
 ******************************************
 %oldchk=/home/natrosa/MOSSRI/REACAO-1/B3LYP-6-311G/CURCUMIN-OPT-FREQ-Reag-1-B3LY
 P-6-311G-D-298.chk
 %chk=CURCUMIN-OPT-FREQ-Reag-1-B3LYP-6-311G-D-363.chk
 Copying data from "/home/natrosa/MOSSRI/REACAO-1/B3LYP-6-311G/CURCUMIN-OPT-FREQ-Reag-1-B3LYP-6-311G-D-298.chk" to current chk file "CURCUMIN-OPT-FREQ-Reag-1-B3LYP-6-311G-D-363.chk"
 IOpt=  2 FromEx=T IUOpen= 4 IOptOp= 5 NList=   0 IFRang= 0 IUIn= 4 IUOut= 2.
 ----------------------------------------------------------------------
 # opt=(calcfc) freq=noraman b3lyp/6-311g(d) scrf=(smd,solvent=generic,
 read) temperature=363.15 Geom=Check Guess=Read
 ----------------------------------------------------------------------
 1/10=4,18=20,19=15,26=3,29=2,38=1,40=2,112=363150/1,3;
 2/9=110,12=2,40=1/2;
 3/5=4,6=6,7=1,11=2,14=-4,25=1,30=1,70=32203,71=2,72=-2,74=-5,116=-2,140=1/1,2,3;
 4/5=1/1;
 5/5=2,38=6/2;
 8/6=4,10=90,11=11/1;
 11/6=1,8=1,9=11,15=111,16=1/1,2,10;
 10/6=1,13=1/2;
 6/7=2,8=2,9=2,10=2,28=1/1;
 7/10=1,18=20,25=1/1,2,3,16;
 1/10=4,18=20,19=15,26=3/3(2);
 2/9=110/2;
 99//99;
 2/9=110/2;
 3/5=4,6=6,7=1,11=2,14=-2,25=1,30=1,70=32205,71=1,72=-2,74=-5/1,2,3;
 4/5=5,16=3,69=1/1;
 5/5=2,38=5/2;
 7//1,2,3,16;
 1/18=20,19=15,26=3/3(-5);
 2/9=110/2;
 6/7=2,8=2,9=2,10=2,19=2,28=1/1;
 99/9=1/99;
 --------------------
 Reagente 1 - 363.15K
 --------------------
 Structure from the checkpoint file:  "CURCUMIN-OPT-FREQ-Reag-1-B3LYP-6-311G-D-363.chk"
 Charge =  0 Multiplicity = 2
 Redundant internal coordinates found in file.  (old form).
 C,0,2.192579339,0.8940216676,0.9100899168
 H,0,1.7598671153,1.8898971955,0.8779218164
 C,0,1.4531399997,-0.1164914081,1.4450445068
 H,0,1.8225479221,-1.1361467784,1.465104399
 C,0,0.1128132534,0.029666184,2.0117792507
 O,0,-0.4943829983,-0.9542570186,2.4205577335
 C,0,3.5115024077,0.8110099712,0.362548783
 C,0,4.1503714471,1.9562678166,-0.0929556819
 C,0,4.2559348833,-0.4881571166,0.2722133639
 C,0,5.4855482902,1.9557429257,-0.4928615607
 H,0,3.6061551071,2.8950055978,-0.0900060199
 C,0,5.7113994571,-0.4029379614,-0.0361062508
 H,0,4.0830629515,-1.1418263946,1.1271063212
 C,0,6.2839207375,0.7917691583,-0.4220116722
 H,0,5.9477160176,2.8818259128,-0.8212732091
 O,0,7.619102476,0.843612724,-0.7005355037
 H,0,7.8642275713,1.7477478269,-0.9400316984
 O,0,6.2950271744,-1.6099264916,0.0903869757
 C,0,7.494473356,-1.953810132,-0.6334930476
 H,0,8.3630451064,-1.4448250129,-0.2208348607
 H,0,7.5964146465,-3.030221436,-0.5082367525
 H,0,7.3830180841,-1.7133704152,-1.6913872053
 C,0,-3.180230624,0.5056605346,0.9667279762
 H,0,-2.7906369944,0.0581902778,1.8768006618
 C,0,-2.435197648,1.4408355725,0.3391259149
 H,0,-2.767224658,1.8981740125,-0.5886007411
 C,0,-1.1263912793,1.9236417173,0.7881232869
 O,0,-0.5039451153,2.7349560173,0.1132897665
 C,0,-4.4731882577,-0.0168669712,0.5456477876
 C,0,-5.0828181062,-1.0171190705,1.3191867984
 C,0,-5.1548823262,0.4346334474,-0.6018783467
 C,0,-6.3117811057,-1.5543810423,0.9576987407
 H,0,-4.5823793737,-1.3843384598,2.2091942975
 C,0,-6.3795708134,-0.0914162563,-0.9750173738
 H,0,-4.7323823578,1.2053266379,-1.2366716427
 C,0,-6.9682302528,-1.1077697784,-0.1893180197
 H,0,-6.7647495539,-2.3366308351,1.5609236849
 O,0,-8.1561759092,-1.616424477,-0.6042704204
 H,0,-8.4490810035,-2.3039054928,0.010473734
 O,0,-6.9660221311,0.3381934544,-2.1360758528
 C,0,-8.1757588319,1.0960862427,-1.979924581
 H,0,-7.9974670859,1.9854141518,-1.3665652566
 H,0,-8.4703681167,1.4035390941,-2.9829415969
 H,0,-8.9710769331,0.4946315108,-1.5360895358
 C,0,-0.5342683485,1.41898139,2.1111471601
 H,0,-1.3074516974,1.3501922824,2.8760916712
 H,0,0.1971676303,2.1611408497,2.4313057459
 O,0,2.8235785429,-2.2352667505,-0.5932639109
 O,0,3.9062444436,-1.0615460339,-2.0567486811
 N,0,3.600373562,-1.3555388407,-0.9165818714
 Recover connectivity data from disk.

 GradGradGradGradGradGradGradGradGradGradGradGradGradGradGradGradGradGrad
 Berny optimization.
 Initialization pass.
                           ----------------------------
                           !    Initial Parameters    !
                           ! (Angstroms and Degrees)  !
 --------------------------                            --------------------------
 ! Name  Definition              Value          Derivative Info.                !
 --------------------------------------------------------------------------------
 ! R1    R(1,2)                  1.0863         calculate D2E/DX2 analytically  !
 ! R2    R(1,3)                  1.3616         calculate D2E/DX2 analytically  !
 ! R3    R(1,7)                  1.4305         calculate D2E/DX2 analytically  !
 ! R4    R(3,4)                  1.0847         calculate D2E/DX2 analytically  !
 ! R5    R(3,5)                  1.4625         calculate D2E/DX2 analytically  !
 ! R6    R(5,6)                  1.2263         calculate D2E/DX2 analytically  !
 ! R7    R(5,45)                 1.5358         calculate D2E/DX2 analytically  !
 ! R8    R(7,8)                  1.3883         calculate D2E/DX2 analytically  !
 ! R9    R(7,9)                  1.5001         calculate D2E/DX2 analytically  !
 ! R10   R(8,10)                 1.3938         calculate D2E/DX2 analytically  !
 ! R11   R(8,11)                 1.0851         calculate D2E/DX2 analytically  !
 ! R12   R(9,12)                 1.4902         calculate D2E/DX2 analytically  !
 ! R13   R(9,13)                 1.09           calculate D2E/DX2 analytically  !
 ! R14   R(9,50)                 1.611          calculate D2E/DX2 analytically  !
 ! R15   R(10,14)                1.4132         calculate D2E/DX2 analytically  !
 ! R16   R(10,15)                1.0859         calculate D2E/DX2 analytically  !
 ! R17   R(12,14)                1.3799         calculate D2E/DX2 analytically  !
 ! R18   R(12,18)                1.3466         calculate D2E/DX2 analytically  !
 ! R19   R(14,16)                1.3649         calculate D2E/DX2 analytically  !
 ! R20   R(16,17)                0.9669         calculate D2E/DX2 analytically  !
 ! R21   R(18,19)                1.4425         calculate D2E/DX2 analytically  !
 ! R22   R(19,20)                1.088          calculate D2E/DX2 analytically  !
 ! R23   R(19,21)                1.0885         calculate D2E/DX2 analytically  !
 ! R24   R(19,22)                1.0906         calculate D2E/DX2 analytically  !
 ! R25   R(23,24)                1.0864         calculate D2E/DX2 analytically  !
 ! R26   R(23,25)                1.3504         calculate D2E/DX2 analytically  !
 ! R27   R(23,29)                1.4567         calculate D2E/DX2 analytically  !
 ! R28   R(25,26)                1.0863         calculate D2E/DX2 analytically  !
 ! R29   R(25,27)                1.4655         calculate D2E/DX2 analytically  !
 ! R30   R(27,28)                1.2252         calculate D2E/DX2 analytically  !
 ! R31   R(27,45)                1.5348         calculate D2E/DX2 analytically  !
 ! R32   R(29,30)                1.4038         calculate D2E/DX2 analytically  !
 ! R33   R(29,31)                1.409          calculate D2E/DX2 analytically  !
 ! R34   R(30,32)                1.3891         calculate D2E/DX2 analytically  !
 ! R35   R(30,33)                1.0851         calculate D2E/DX2 analytically  !
 ! R36   R(31,34)                1.3841         calculate D2E/DX2 analytically  !
 ! R37   R(31,35)                1.0842         calculate D2E/DX2 analytically  !
 ! R38   R(32,36)                1.395          calculate D2E/DX2 analytically  !
 ! R39   R(32,37)                1.0867         calculate D2E/DX2 analytically  !
 ! R40   R(34,36)                1.4131         calculate D2E/DX2 analytically  !
 ! R41   R(34,40)                1.3699         calculate D2E/DX2 analytically  !
 ! R42   R(36,38)                1.3573         calculate D2E/DX2 analytically  !
 ! R43   R(38,39)                0.9676         calculate D2E/DX2 analytically  !
 ! R44   R(40,41)                1.4361         calculate D2E/DX2 analytically  !
 ! R45   R(41,42)                1.0949         calculate D2E/DX2 analytically  !
 ! R46   R(41,43)                1.0897         calculate D2E/DX2 analytically  !
 ! R47   R(41,44)                1.0915         calculate D2E/DX2 analytically  !
 ! R48   R(45,46)                1.0898         calculate D2E/DX2 analytically  !
 ! R49   R(45,47)                1.0901         calculate D2E/DX2 analytically  !
 ! R50   R(48,50)                1.2173         calculate D2E/DX2 analytically  !
 ! R51   R(49,50)                1.2165         calculate D2E/DX2 analytically  !
 ! A1    A(2,1,3)              118.403          calculate D2E/DX2 analytically  !
 ! A2    A(2,1,7)              114.1508         calculate D2E/DX2 analytically  !
 ! A3    A(3,1,7)              127.446          calculate D2E/DX2 analytically  !
 ! A4    A(1,3,4)              121.3289         calculate D2E/DX2 analytically  !
 ! A5    A(1,3,5)              125.1517         calculate D2E/DX2 analytically  !
 ! A6    A(4,3,5)              113.5083         calculate D2E/DX2 analytically  !
 ! A7    A(3,5,6)              120.1817         calculate D2E/DX2 analytically  !
 ! A8    A(3,5,45)             120.1051         calculate D2E/DX2 analytically  !
 ! A9    A(6,5,45)             119.71           calculate D2E/DX2 analytically  !
 ! A10   A(1,7,8)              120.1342         calculate D2E/DX2 analytically  !
 ! A11   A(1,7,9)              122.0649         calculate D2E/DX2 analytically  !
 ! A12   A(8,7,9)              117.797          calculate D2E/DX2 analytically  !
 ! A13   A(7,8,10)             122.3221         calculate D2E/DX2 analytically  !
 ! A14   A(7,8,11)             118.816          calculate D2E/DX2 analytically  !
 ! A15   A(10,8,11)            118.7874         calculate D2E/DX2 analytically  !
 ! A16   A(7,9,12)             116.5919         calculate D2E/DX2 analytically  !
 ! A17   A(7,9,13)             113.1699         calculate D2E/DX2 analytically  !
 ! A18   A(7,9,50)             107.9868         calculate D2E/DX2 analytically  !
 ! A19   A(12,9,13)            110.5779         calculate D2E/DX2 analytically  !
 ! A20   A(12,9,50)            105.9952         calculate D2E/DX2 analytically  !
 ! A21   A(13,9,50)            101.0311         calculate D2E/DX2 analytically  !
 ! A22   A(8,10,14)            121.8094         calculate D2E/DX2 analytically  !
 ! A23   A(8,10,15)            119.6161         calculate D2E/DX2 analytically  !
 ! A24   A(14,10,15)           118.4994         calculate D2E/DX2 analytically  !
 ! A25   A(9,12,14)            120.8382         calculate D2E/DX2 analytically  !
 ! A26   A(9,12,18)            110.6466         calculate D2E/DX2 analytically  !
 ! A27   A(14,12,18)           128.4971         calculate D2E/DX2 analytically  !
 ! A28   A(10,14,12)           119.5201         calculate D2E/DX2 analytically  !
 ! A29   A(10,14,16)           120.7375         calculate D2E/DX2 analytically  !
 ! A30   A(12,14,16)           119.7245         calculate D2E/DX2 analytically  !
 ! A31   A(14,16,17)           109.5151         calculate D2E/DX2 analytically  !
 ! A32   A(12,18,19)           121.7955         calculate D2E/DX2 analytically  !
 ! A33   A(18,19,20)           111.2191         calculate D2E/DX2 analytically  !
 ! A34   A(18,19,21)           104.8255         calculate D2E/DX2 analytically  !
 ! A35   A(18,19,22)           110.4405         calculate D2E/DX2 analytically  !
 ! A36   A(20,19,21)           110.1343         calculate D2E/DX2 analytically  !
 ! A37   A(20,19,22)           110.2646         calculate D2E/DX2 analytically  !
 ! A38   A(21,19,22)           109.8298         calculate D2E/DX2 analytically  !
 ! A39   A(24,23,25)           118.4715         calculate D2E/DX2 analytically  !
 ! A40   A(24,23,29)           114.3743         calculate D2E/DX2 analytically  !
 ! A41   A(25,23,29)           127.1396         calculate D2E/DX2 analytically  !
 ! A42   A(23,25,26)           121.3213         calculate D2E/DX2 analytically  !
 ! A43   A(23,25,27)           125.3447         calculate D2E/DX2 analytically  !
 ! A44   A(26,25,27)           113.3234         calculate D2E/DX2 analytically  !
 ! A45   A(25,27,28)           120.2074         calculate D2E/DX2 analytically  !
 ! A46   A(25,27,45)           120.0211         calculate D2E/DX2 analytically  !
 ! A47   A(28,27,45)           119.7707         calculate D2E/DX2 analytically  !
 ! A48   A(23,29,30)           118.8009         calculate D2E/DX2 analytically  !
 ! A49   A(23,29,31)           123.3588         calculate D2E/DX2 analytically  !
 ! A50   A(30,29,31)           117.8396         calculate D2E/DX2 analytically  !
 ! A51   A(29,30,32)           121.0915         calculate D2E/DX2 analytically  !
 ! A52   A(29,30,33)           119.5274         calculate D2E/DX2 analytically  !
 ! A53   A(32,30,33)           119.3785         calculate D2E/DX2 analytically  !
 ! A54   A(29,31,34)           121.7247         calculate D2E/DX2 analytically  !
 ! A55   A(29,31,35)           121.0701         calculate D2E/DX2 analytically  !
 ! A56   A(34,31,35)           117.202          calculate D2E/DX2 analytically  !
 ! A57   A(30,32,36)           120.4283         calculate D2E/DX2 analytically  !
 ! A58   A(30,32,37)           120.1796         calculate D2E/DX2 analytically  !
 ! A59   A(36,32,37)           119.3877         calculate D2E/DX2 analytically  !
 ! A60   A(31,34,36)           119.4754         calculate D2E/DX2 analytically  !
 ! A61   A(31,34,40)           119.2152         calculate D2E/DX2 analytically  !
 ! A62   A(36,34,40)           121.2307         calculate D2E/DX2 analytically  !
 ! A63   A(32,36,34)           119.4334         calculate D2E/DX2 analytically  !
 ! A64   A(32,36,38)           122.9066         calculate D2E/DX2 analytically  !
 ! A65   A(34,36,38)           117.6566         calculate D2E/DX2 analytically  !
 ! A66   A(36,38,39)           109.6925         calculate D2E/DX2 analytically  !
 ! A67   A(34,40,41)           115.7211         calculate D2E/DX2 analytically  !
 ! A68   A(40,41,42)           110.6339         calculate D2E/DX2 analytically  !
 ! A69   A(40,41,43)           106.0561         calculate D2E/DX2 analytically  !
 ! A70   A(40,41,44)           111.545          calculate D2E/DX2 analytically  !
 ! A71   A(42,41,43)           109.2983         calculate D2E/DX2 analytically  !
 ! A72   A(42,41,44)           109.7817         calculate D2E/DX2 analytically  !
 ! A73   A(43,41,44)           109.4378         calculate D2E/DX2 analytically  !
 ! A74   A(5,45,27)            113.8416         calculate D2E/DX2 analytically  !
 ! A75   A(5,45,46)            106.6921         calculate D2E/DX2 analytically  !
 ! A76   A(5,45,47)            110.6203         calculate D2E/DX2 analytically  !
 ! A77   A(27,45,46)           110.6154         calculate D2E/DX2 analytically  !
 ! A78   A(27,45,47)           106.7485         calculate D2E/DX2 analytically  !
 ! A79   A(46,45,47)           108.2321         calculate D2E/DX2 analytically  !
 ! A80   A(9,50,48)            116.9217         calculate D2E/DX2 analytically  !
 ! A81   A(9,50,49)            117.3335         calculate D2E/DX2 analytically  !
 ! A82   A(48,50,49)           125.733          calculate D2E/DX2 analytically  !
 ! D1    D(2,1,3,4)            177.5302         calculate D2E/DX2 analytically  !
 ! D2    D(2,1,3,5)             -1.1774         calculate D2E/DX2 analytically  !
 ! D3    D(7,1,3,4)             -2.3134         calculate D2E/DX2 analytically  !
 ! D4    D(7,1,3,5)            178.9789         calculate D2E/DX2 analytically  !
 ! D5    D(2,1,7,8)              2.9654         calculate D2E/DX2 analytically  !
 ! D6    D(2,1,7,9)           -177.7608         calculate D2E/DX2 analytically  !
 ! D7    D(3,1,7,8)           -177.1854         calculate D2E/DX2 analytically  !
 ! D8    D(3,1,7,9)              2.0885         calculate D2E/DX2 analytically  !
 ! D9    D(1,3,5,6)            176.9935         calculate D2E/DX2 analytically  !
 ! D10   D(1,3,5,45)            -3.6598         calculate D2E/DX2 analytically  !
 ! D11   D(4,3,5,6)             -1.8027         calculate D2E/DX2 analytically  !
 ! D12   D(4,3,5,45)           177.544          calculate D2E/DX2 analytically  !
 ! D13   D(3,5,45,27)           79.046          calculate D2E/DX2 analytically  !
 ! D14   D(3,5,45,46)         -158.6512         calculate D2E/DX2 analytically  !
 ! D15   D(3,5,45,47)          -41.1465         calculate D2E/DX2 analytically  !
 ! D16   D(6,5,45,27)         -101.6041         calculate D2E/DX2 analytically  !
 ! D17   D(6,5,45,46)           20.6987         calculate D2E/DX2 analytically  !
 ! D18   D(6,5,45,47)          138.2033         calculate D2E/DX2 analytically  !
 ! D19   D(1,7,8,10)           172.5485         calculate D2E/DX2 analytically  !
 ! D20   D(1,7,8,11)            -4.2722         calculate D2E/DX2 analytically  !
 ! D21   D(9,7,8,10)            -6.7558         calculate D2E/DX2 analytically  !
 ! D22   D(9,7,8,11)           176.4235         calculate D2E/DX2 analytically  !
 ! D23   D(1,7,9,12)          -167.1297         calculate D2E/DX2 analytically  !
 ! D24   D(1,7,9,13)           -37.2047         calculate D2E/DX2 analytically  !
 ! D25   D(1,7,9,50)            73.7589         calculate D2E/DX2 analytically  !
 ! D26   D(8,7,9,12)            12.1604         calculate D2E/DX2 analytically  !
 ! D27   D(8,7,9,13)           142.0854         calculate D2E/DX2 analytically  !
 ! D28   D(8,7,9,50)          -106.9511         calculate D2E/DX2 analytically  !
 ! D29   D(7,8,10,14)           -1.8583         calculate D2E/DX2 analytically  !
 ! D30   D(7,8,10,15)         -178.6594         calculate D2E/DX2 analytically  !
 ! D31   D(11,8,10,14)         174.9632         calculate D2E/DX2 analytically  !
 ! D32   D(11,8,10,15)          -1.8379         calculate D2E/DX2 analytically  !
 ! D33   D(7,9,12,14)           -9.8053         calculate D2E/DX2 analytically  !
 ! D34   D(7,9,12,18)          171.6191         calculate D2E/DX2 analytically  !
 ! D35   D(13,9,12,14)        -140.9474         calculate D2E/DX2 analytically  !
 ! D36   D(13,9,12,18)          40.477          calculate D2E/DX2 analytically  !
 ! D37   D(50,9,12,14)         110.3755         calculate D2E/DX2 analytically  !
 ! D38   D(50,9,12,18)         -68.2001         calculate D2E/DX2 analytically  !
 ! D39   D(7,9,50,48)         -100.4217         calculate D2E/DX2 analytically  !
 ! D40   D(7,9,50,49)           78.4017         calculate D2E/DX2 analytically  !
 ! D41   D(12,9,50,48)         133.9408         calculate D2E/DX2 analytically  !
 ! D42   D(12,9,50,49)         -47.2358         calculate D2E/DX2 analytically  !
 ! D43   D(13,9,50,48)          18.5748         calculate D2E/DX2 analytically  !
 ! D44   D(13,9,50,49)        -162.6019         calculate D2E/DX2 analytically  !
 ! D45   D(8,10,14,12)           4.6058         calculate D2E/DX2 analytically  !
 ! D46   D(8,10,14,16)        -173.8534         calculate D2E/DX2 analytically  !
 ! D47   D(15,10,14,12)       -178.5586         calculate D2E/DX2 analytically  !
 ! D48   D(15,10,14,16)          2.9823         calculate D2E/DX2 analytically  !
 ! D49   D(9,12,14,10)           1.603          calculate D2E/DX2 analytically  !
 ! D50   D(9,12,14,16)        -179.922          calculate D2E/DX2 analytically  !
 ! D51   D(18,12,14,10)        179.8999         calculate D2E/DX2 analytically  !
 ! D52   D(18,12,14,16)         -1.6252         calculate D2E/DX2 analytically  !
 ! D53   D(9,12,18,19)         154.2733         calculate D2E/DX2 analytically  !
 ! D54   D(14,12,18,19)        -24.164          calculate D2E/DX2 analytically  !
 ! D55   D(10,14,16,17)         -0.6436         calculate D2E/DX2 analytically  !
 ! D56   D(12,14,16,17)       -179.0996         calculate D2E/DX2 analytically  !
 ! D57   D(12,18,19,20)         73.2465         calculate D2E/DX2 analytically  !
 ! D58   D(12,18,19,21)       -167.7581         calculate D2E/DX2 analytically  !
 ! D59   D(12,18,19,22)        -49.5199         calculate D2E/DX2 analytically  !
 ! D60   D(24,23,25,26)        178.2743         calculate D2E/DX2 analytically  !
 ! D61   D(24,23,25,27)         -0.4588         calculate D2E/DX2 analytically  !
 ! D62   D(29,23,25,26)         -0.2507         calculate D2E/DX2 analytically  !
 ! D63   D(29,23,25,27)       -178.9838         calculate D2E/DX2 analytically  !
 ! D64   D(24,23,29,30)         -0.1005         calculate D2E/DX2 analytically  !
 ! D65   D(24,23,29,31)        179.5845         calculate D2E/DX2 analytically  !
 ! D66   D(25,23,29,30)        178.476          calculate D2E/DX2 analytically  !
 ! D67   D(25,23,29,31)         -1.839          calculate D2E/DX2 analytically  !
 ! D68   D(23,25,27,28)        176.8011         calculate D2E/DX2 analytically  !
 ! D69   D(23,25,27,45)         -3.5288         calculate D2E/DX2 analytically  !
 ! D70   D(26,25,27,28)         -2.0203         calculate D2E/DX2 analytically  !
 ! D71   D(26,25,27,45)        177.6498         calculate D2E/DX2 analytically  !
 ! D72   D(25,27,45,5)          79.5384         calculate D2E/DX2 analytically  !
 ! D73   D(25,27,45,46)        -40.5777         calculate D2E/DX2 analytically  !
 ! D74   D(25,27,45,47)       -158.1125         calculate D2E/DX2 analytically  !
 ! D75   D(28,27,45,5)        -100.79           calculate D2E/DX2 analytically  !
 ! D76   D(28,27,45,46)        139.0939         calculate D2E/DX2 analytically  !
 ! D77   D(28,27,45,47)         21.559          calculate D2E/DX2 analytically  !
 ! D78   D(23,29,30,32)       -179.6438         calculate D2E/DX2 analytically  !
 ! D79   D(23,29,30,33)         -0.2395         calculate D2E/DX2 analytically  !
 ! D80   D(31,29,30,32)          0.6538         calculate D2E/DX2 analytically  !
 ! D81   D(31,29,30,33)       -179.942          calculate D2E/DX2 analytically  !
 ! D82   D(23,29,31,34)        179.6291         calculate D2E/DX2 analytically  !
 ! D83   D(23,29,31,35)          0.2914         calculate D2E/DX2 analytically  !
 ! D84   D(30,29,31,34)         -0.6831         calculate D2E/DX2 analytically  !
 ! D85   D(30,29,31,35)        179.9792         calculate D2E/DX2 analytically  !
 ! D86   D(29,30,32,36)          0.0327         calculate D2E/DX2 analytically  !
 ! D87   D(29,30,32,37)        179.2678         calculate D2E/DX2 analytically  !
 ! D88   D(33,30,32,36)       -179.3724         calculate D2E/DX2 analytically  !
 ! D89   D(33,30,32,37)         -0.1373         calculate D2E/DX2 analytically  !
 ! D90   D(29,31,34,36)          0.0255         calculate D2E/DX2 analytically  !
 ! D91   D(29,31,34,40)       -176.7897         calculate D2E/DX2 analytically  !
 ! D92   D(35,31,34,36)        179.3877         calculate D2E/DX2 analytically  !
 ! D93   D(35,31,34,40)          2.5724         calculate D2E/DX2 analytically  !
 ! D94   D(30,32,36,34)         -0.7068         calculate D2E/DX2 analytically  !
 ! D95   D(30,32,36,38)        178.5987         calculate D2E/DX2 analytically  !
 ! D96   D(37,32,36,34)       -179.948          calculate D2E/DX2 analytically  !
 ! D97   D(37,32,36,38)         -0.6425         calculate D2E/DX2 analytically  !
 ! D98   D(31,34,36,32)          0.6758         calculate D2E/DX2 analytically  !
 ! D99   D(31,34,36,38)       -178.6659         calculate D2E/DX2 analytically  !
 ! D100  D(40,34,36,32)        177.425          calculate D2E/DX2 analytically  !
 ! D101  D(40,34,36,38)         -1.9167         calculate D2E/DX2 analytically  !
 ! D102  D(31,34,40,41)       -112.7159         calculate D2E/DX2 analytically  !
 ! D103  D(36,34,40,41)         70.5266         calculate D2E/DX2 analytically  !
 ! D104  D(32,36,38,39)          0.281          calculate D2E/DX2 analytically  !
 ! D105  D(34,36,38,39)        179.5981         calculate D2E/DX2 analytically  !
 ! D106  D(34,40,41,42)         58.3261         calculate D2E/DX2 analytically  !
 ! D107  D(34,40,41,43)        176.7407         calculate D2E/DX2 analytically  !
 ! D108  D(34,40,41,44)        -64.1854         calculate D2E/DX2 analytically  !
 --------------------------------------------------------------------------------
 Trust Radius=3.00D-01 FncErr=1.00D-07 GrdErr=1.00D-06 EigMax=2.50D+02 EigMin=1.00D-04
 Number of steps in this run=    251 maximum allowed number of steps=    300.
 GradGradGradGradGradGradGradGradGradGradGradGradGradGradGradGradGradGrad

                          Input orientation:                          
 ---------------------------------------------------------------------
 Center     Atomic      Atomic             Coordinates (Angstroms)
 Number     Number       Type             X           Y           Z
 ---------------------------------------------------------------------
      1          6           0        2.192579    0.894022    0.910090
      2          1           0        1.759867    1.889897    0.877922
      3          6           0        1.453140   -0.116491    1.445045
      4          1           0        1.822548   -1.136147    1.465104
      5          6           0        0.112813    0.029666    2.011779
      6          8           0       -0.494383   -0.954257    2.420558
      7          6           0        3.511502    0.811010    0.362549
      8          6           0        4.150371    1.956268   -0.092956
      9          6           0        4.255935   -0.488157    0.272213
     10          6           0        5.485548    1.955743   -0.492862
     11          1           0        3.606155    2.895006   -0.090006
     12          6           0        5.711399   -0.402938   -0.036106
     13          1           0        4.083063   -1.141826    1.127106
     14          6           0        6.283921    0.791769   -0.422012
     15          1           0        5.947716    2.881826   -0.821273
     16          8           0        7.619102    0.843613   -0.700536
     17          1           0        7.864228    1.747748   -0.940032
     18          8           0        6.295027   -1.609926    0.090387
     19          6           0        7.494473   -1.953810   -0.633493
     20          1           0        8.363045   -1.444825   -0.220835
     21          1           0        7.596415   -3.030221   -0.508237
     22          1           0        7.383018   -1.713370   -1.691387
     23          6           0       -3.180231    0.505661    0.966728
     24          1           0       -2.790637    0.058190    1.876801
     25          6           0       -2.435198    1.440836    0.339126
     26          1           0       -2.767225    1.898174   -0.588601
     27          6           0       -1.126391    1.923642    0.788123
     28          8           0       -0.503945    2.734956    0.113290
     29          6           0       -4.473188   -0.016867    0.545648
     30          6           0       -5.082818   -1.017119    1.319187
     31          6           0       -5.154882    0.434633   -0.601878
     32          6           0       -6.311781   -1.554381    0.957699
     33          1           0       -4.582379   -1.384338    2.209194
     34          6           0       -6.379571   -0.091416   -0.975017
     35          1           0       -4.732382    1.205327   -1.236672
     36          6           0       -6.968230   -1.107770   -0.189318
     37          1           0       -6.764750   -2.336631    1.560924
     38          8           0       -8.156176   -1.616424   -0.604270
     39          1           0       -8.449081   -2.303905    0.010474
     40          8           0       -6.966022    0.338193   -2.136076
     41          6           0       -8.175759    1.096086   -1.979925
     42          1           0       -7.997467    1.985414   -1.366565
     43          1           0       -8.470368    1.403539   -2.982942
     44          1           0       -8.971077    0.494632   -1.536090
     45          6           0       -0.534268    1.418981    2.111147
     46          1           0       -1.307452    1.350192    2.876092
     47          1           0        0.197168    2.161141    2.431306
     48          8           0        2.823579   -2.235267   -0.593264
     49          8           0        3.906244   -1.061546   -2.056749
     50          7           0        3.600374   -1.355539   -0.916582
 ---------------------------------------------------------------------
                    Distance matrix (angstroms):
                    1          2          3          4          5
     1  C    0.000000
     2  H    1.086298   0.000000
     3  C    1.361647   2.107440   0.000000
     4  H    2.136948   3.083124   1.084694   0.000000
     5  C    2.507241   2.731095   1.462541   2.140366   0.000000
     6  O    3.594080   3.943423   2.333736   2.512796   1.226333
     7  C    1.430472   2.120810   2.503779   2.803501   3.857661
     8  C    2.442830   2.580992   3.733207   4.172450   4.944045
     9  C    2.564126   3.500340   3.060936   2.786441   4.523239
    10  C    3.733520   3.970401   4.930512   5.177932   6.232919
    11  H    2.646191   2.314283   4.007614   4.674378   4.983082
    12  C    3.867750   4.659093   4.517591   4.232540   5.977052
    13  H    2.786701   3.827621   2.840579   2.285652   4.232957
    14  C    4.303955   4.833505   5.258068   5.213628   6.677328
    15  H    4.588032   4.627015   5.858952   6.195857   7.085696
    16  O    5.660725   6.157668   6.598819   6.496883   8.022689
    17  H    6.026557   6.370901   7.089853   7.113608   8.470503
    18  O    4.875628   5.782444   5.244932   4.702912   6.678307
    19  C    6.213121   7.067119   6.647839   6.102739   8.088297
    20  H    6.695061   7.478609   7.230934   6.761344   8.673236
    21  H    6.827355   7.758498   7.074246   6.388985   8.468629
    22  H    6.364498   7.155747   6.895700   6.419926   8.343111
    23  C    5.387125   5.131137   4.699360   5.288828   3.487526
    24  H    5.144472   5.005996   4.269259   4.783034   2.906726
    25  C    4.694819   4.253296   4.332146   5.102653   3.358799
    26  H    5.277694   4.758710   5.099614   5.872889   4.306729
    27  C    3.477148   2.887852   3.353755   4.303121   2.572956
    28  O    3.360829   2.534489   3.706009   4.714383   3.362030
    29  C    6.737581   6.526648   5.995015   6.460223   4.814885
    30  C    7.533341   7.447671   6.598918   6.907933   5.345094
    31  C    7.515469   7.219513   6.939711   7.444750   5.894389
    32  C    8.849920   8.776156   7.911955   8.160863   6.700426
    33  H    7.264892   7.260647   6.214407   6.452779   4.907465
    34  C    8.832127   8.579594   8.198090   8.620928   7.147494
    35  H    7.256762   6.862175   6.870189   7.466539   5.950675
    36  C    9.441202   9.290032   8.635581   8.945150   7.501984
    37  H    9.544341   9.539346   8.513293   8.671333   7.287215
    38  O   10.756038  10.621633   9.939238  10.202348   8.827769
    39  H   11.148138  11.070821  10.241912  10.439635   9.097077
    40  O    9.667888   9.361256   9.160429   9.611511   8.210347
    41  C   10.765475  10.368900  10.291572  10.808202   9.261284
    42  H   10.498159  10.012613  10.081524  10.686215   9.000823
    43  H   11.362823  10.945343  10.972400  11.496923  10.025256
    44  H   11.435494  11.087262  10.859325  11.321172   9.763228
    45  C    3.025528   2.646821   2.598300   3.535624   1.535834
    46  H    4.040232   3.700326   3.438012   4.239064   2.123200
    47  H    2.810935   2.220046   2.781688   3.800988   2.174006
    48  O    3.528552   4.506978   3.243765   2.539096   4.389125
    49  O    3.945000   4.682974   4.378745   4.092775   5.668667
    50  N    3.221667   4.140116   3.423906   2.980139   4.759955
                    6          7          8          9         10
     6  O    0.000000
     7  C    4.837219   0.000000
     8  C    6.030145   1.388256   0.000000
     9  C    5.234324   1.500058   2.473804   0.000000
    10  C    7.260557   2.437006   1.393780   2.840763   0.000000
    11  H    6.159072   2.134667   1.085085   3.463987   2.139305
    12  C    6.697080   2.544041   2.829469   1.490201   2.413091
    13  H    4.760379   2.173660   3.330356   1.089959   3.766457
    14  C    7.554747   2.881355   2.452828   2.496575   1.413242
    15  H    8.168576   3.409523   2.148849   3.926146   1.085856
    16  O    8.877061   4.243064   3.693135   3.745764   2.414957
    17  H    9.405358   4.639010   3.814937   4.414588   2.429267
    18  O    7.208029   3.699056   4.165442   2.334379   3.702625
    19  C    8.610932   4.949787   5.173385   3.668320   4.397745
    20  H    9.255898   5.382062   5.415755   4.245782   4.462942
    21  H    8.851467   5.674490   6.075586   4.269660   5.414410
    22  H    8.918396   5.057646   5.145020   3.890440   4.301075
    23  C    3.385079   6.725887   7.547511   7.534360   8.906675
    24  H    2.567782   6.525079   7.460579   7.247577   8.815398
    25  C    3.719622   5.980006   6.619825   6.963960   7.980949
    26  H    4.728341   6.442750   6.935573   7.467285   8.253529
    27  C    3.368468   4.788436   5.349915   5.920504   6.734961
    28  O    4.351307   4.459542   4.723511   5.750667   6.070307
    29  C    4.497208   8.029582   8.869434   8.746112  10.205201
    30  C    4.719185   8.838527   9.802396   9.412134  11.127075
    31  C    5.725766   8.728001   9.442570   9.496266  10.749159
    32  C    6.028451  10.121570  11.085358  10.643465  12.393630
    33  H    4.115988   8.587233   9.629148   9.092350  10.946251
    34  C    6.849077  10.021815  10.763398  10.715735  12.050078
    35  H    5.999981   8.406820   8.987509   9.270085  10.272414
    36  C    6.981813  10.668227  11.533469  11.250725  12.828634
    37  H    6.478227  10.814116  11.845006  11.248694  13.142005
    38  O    8.263844  11.956667  12.824846  12.494067  14.102107
    39  H    8.420646  12.364555  13.300601  12.836778  14.579844
    40  O    8.019691  10.781707  11.417824  11.507173  12.663263
    41  C    9.086896  11.923109  12.499362  12.732987  13.768866
    42  H    8.903945  11.697241  12.214455  12.607538  13.511326
    43  H    9.918334  12.454261  12.959190  13.271524  14.187073
    44  H    9.466186  12.630111  13.281243  13.386175  14.567676
    45  C    2.393655   4.449212   5.205055   5.474021   6.580818
    46  H    2.485775   5.461770   6.242628   6.411785   7.606667
    47  H    3.191248   4.133694   4.694858   5.306039   6.046479
    48  O    4.661864   3.265979   4.424890   2.419316   4.965957
    49  O    6.278798   3.084686   3.608778   2.423865   3.747529
    50  N    5.297599   2.517540   3.456721   1.611008   3.833798
                   11         12         13         14         15
    11  H    0.000000
    12  C    3.912977   0.000000
    13  H    4.243208   2.133190   0.000000
    14  C    3.421149   1.379865   3.313960   0.000000
    15  H    2.453127   3.385559   4.843851   2.154247   0.000000
    16  O    4.548044   2.373749   4.448125   1.364908   2.638640
    17  H    4.491094   3.174460   5.188440   1.918231   2.230079
    18  O    5.249475   1.346641   2.487306   2.455772   4.596476
    19  C    6.239023   2.437504   3.923869   3.008050   5.080462
    20  H    6.440439   2.854974   4.497444   3.060324   4.991418
    21  H    7.155795   3.267845   4.310919   4.041990   6.145608
    22  H    6.169785   2.692860   4.377245   3.015801   4.892139
    23  C    7.271911   8.994015   7.449521   9.569776   9.600131
    24  H    7.268755   8.726768   7.017822   9.389903   9.571381
    25  C    6.228700   8.361061   7.055408   8.776311   8.584650
    26  H    6.470104   8.802695   7.688413   9.120039   8.773363
    27  C    4.910362   7.269643   6.053959   7.593305   7.317873
    28  O    4.118236   6.964137   6.090805   7.080794   6.520653
    29  C    8.611553  10.208492   8.649454  10.830773  10.902575
    30  C    9.632694  10.896292   9.168742  11.640730  11.893529
    31  C    9.114342  10.913189   9.529651  11.445790  11.371217
    32  C   10.920631  12.119007  10.404407  12.886416  13.158265
    33  H    9.521093  10.581418   8.736110  11.390135  11.758690
    34  C   10.460243  12.131371  10.723292  12.706292  12.681712
    35  H    8.584932  10.634870   9.423834  11.054123  10.818859
    36  C   11.307064  12.700129  11.129475  13.389619  13.532846
    37  H   11.732487  12.725721  10.922032  13.564170  13.946825
    38  O   12.608327  13.932157  12.370201  14.640663  14.805442
    39  H   13.128880  14.287584  12.635344  15.060929  15.324861
    40  O   11.067729  12.871525  11.615554  13.368049  13.227373
    41  C   12.067369  14.102435  12.842920  14.546547  14.282993
    42  H   11.709014  13.978819  12.725456  14.362277  13.984600
    43  H   12.507436  14.596908  13.452138  14.987383  14.653986
    44  H   12.885640  14.786166  13.423158  15.298510  15.125477
    45  C    4.915977   6.851164   5.370831   7.300547   7.263272
    46  H    5.943712   7.798630   6.190861   8.295677   8.285763
    47  H    4.303111   6.562726   5.264096   6.860405   6.645861
    48  O    5.213961   3.465164   2.396161   4.600678   5.999738
    49  O    4.428592   2.788431   3.189772   3.429357   4.609142
    50  N    4.330172   2.477724   2.110764   3.472313   4.845035
                   16         17         18         19         20
    16  O    0.000000
    17  H    0.966905   0.000000
    18  O    2.898032   3.846834   0.000000
    19  C    2.801000   3.732588   1.442543   0.000000
    20  H    2.453673   3.310375   2.097812   1.088012   0.000000
    21  H    3.878670   4.804910   2.017225   1.088459   1.784322
    22  H    2.752396   3.574274   2.090250   1.090584   1.787483
    23  C   10.932501  11.276461   9.748035  11.070637  11.766984
    24  H   10.752778  11.149677   9.408676  10.776512  11.448308
    25  C   10.125538  10.383092   9.251262  10.538879  11.191186
    26  H   10.440327  10.638323   9.741263  10.960942  11.627287
    27  C    8.936791   9.156893   8.249266   9.559024  10.119979
    28  O    8.379940   8.491783   8.068739   9.301447   9.808452
    29  C   12.186751  12.551213  10.894933  12.180601  12.938139
    30  C   12.995399  13.430359  11.459351  12.762390  13.540526
    31  C   12.780911  13.089532  11.651604  12.872912  13.653275
    32  C   14.232696  14.678714  12.636729  13.903384  14.722482
    33  H   12.739955  13.215355  11.084142  12.419965  13.171663
    34  C   14.032550  14.362087  12.809621  14.002652  14.823806
    35  H   12.368406  12.611772  11.458206  12.642783  13.399457
    36  C   14.726151  15.123470  13.275707  14.494236  15.335012
    37  H   14.903803  15.392982  13.162384  14.432167  15.258445
    38  O   15.966229  16.373262  14.467891  15.654313  16.524561
    39  H   16.388988  16.835777  14.760648  15.960394  16.835650
    40  O   14.664313  14.945022  13.587043  14.717913  15.550807
    41  C   15.848603  16.086864  14.866484  16.020953  16.825061
    42  H   15.672414  15.869208  14.809611  16.001722  16.755465
    43  H   16.260196  16.465448  15.379962  16.482350  17.294687
    44  H   16.614873  16.892397  15.496081  16.671050  17.491803
    45  C    8.643730   8.941617   7.739317   9.130688   9.633365
    46  H    9.629759   9.941858   8.620913  10.035313  10.531932
    47  H    8.162685   8.385739   7.542197   8.920565   9.312271
    48  O    5.699829   6.433723   3.592963   4.679540   5.607958
    49  O    4.387968   4.980444   3.258404   3.961966   4.835344
    50  N    4.586189   5.273650   2.887881   3.949947   4.814050
                   21         22         23         24         25
    21  H    0.000000
    22  H    1.783110   0.000000
    23  C   11.437398  11.116290   0.000000
    24  H   11.095834  10.925825   1.086391   0.000000
    25  C   11.015517  10.510440   1.350374   2.098211   0.000000
    26  H   11.476086  10.829904   2.128078   3.076409   1.086314
    27  C   10.114774   9.580495   2.502164   2.726691   1.465495
    28  O    9.961897   9.233020   3.586171   3.937513   2.335698
    29  C   12.484642  12.184091   1.456737   2.146760   2.514151
    30  C   12.967459  12.843107   2.462301   2.592550   3.743255
    31  C   13.213991  12.767141   2.522859   3.446043   3.048707
    32  C   14.062894  13.949568   3.748394   3.980401   4.937799
    33  H   12.586357  12.589422   2.661173   2.324159   4.011129
    34  C   14.289249  13.876339   3.789809   4.586469   4.430897
    35  H   13.056405  12.470304   2.784543   3.844477   2.795650
    36  C   14.694435  14.442344   4.276510   4.804227   5.227143
    37  H   14.526029  14.530152   4.613075   4.650647   5.874271
    38  O   15.816199  15.577476   5.633055   6.144026   6.554878
    39  H   16.070300  15.934253   6.047220   6.409420   7.092101
    40  O   15.035313  14.501780   4.897719   5.797881   5.279282
    41  C   16.369292  15.813028   5.829808   6.704558   6.200878
    42  H   16.403124  15.822321   5.553350   6.429984   5.843354
    43  H   16.850042  16.208427   6.662704   7.595157   6.889180
    44  H   16.969468  16.503206   6.308575   7.073623   6.865089
    45  C    9.631437   9.324930   3.024065   2.645349   2.598859
    46  H   10.484300  10.284529   2.804675   2.206284   2.777809
    47  H    9.504736   9.145758   4.036387   3.695518   3.438808
    48  O    4.839333   4.718765   6.781739   6.548327   6.483657
    49  O    4.459925   3.556166   7.862295   7.846964   7.226065
    50  N    4.351971   3.877727   7.279252   7.116645   6.769389
                   26         27         28         29         30
    26  H    0.000000
    27  C    2.142044   0.000000
    28  O    2.513024   1.225182   0.000000
    29  C    2.804321   3.876263   4.849160   0.000000
    30  C    4.183367   4.958167   6.041385   1.403750   0.000000
    31  C    2.800542   4.514199   5.237763   1.409034   2.408998
    32  C    5.184116   6.246092   7.269278   2.431904   1.389127
    33  H    4.679458   4.990594   6.164011   2.156221   1.085082
    34  C    4.142081   5.896187   6.610278   2.439728   2.793182
    35  H    2.182173   4.197492   4.694874   2.176603   3.405067
    36  C    5.181078   6.653715   7.526294   2.820546   2.416316
    37  H    6.207595   7.109024   8.186227   3.415164   2.151381
    38  O    6.433774   7.993041   8.832103   4.176756   3.674831
    39  H    7.092239   8.491094   9.408819   4.617865   3.834094
    40  O    4.739000   6.720556   7.250004   3.678577   4.161991
    41  C    5.641930   7.618433   8.119370   4.618031   4.991598
    42  H    5.288504   7.201262   7.674937   4.481766   4.972288
    43  H    6.205109   8.271967   8.650041   5.517784   5.986935
    44  H    6.430820   8.305608   8.912453   4.982596   5.055349
    45  C    3.536150   1.534824   2.392518   4.475214   5.220258
    46  H    3.799383   2.172841   3.193160   4.161936   4.720329
    47  H    4.239883   2.123267   2.488779   5.487408   6.262299
    48  O    6.952872   5.899747   6.022852   7.711110   8.225112
    49  O    7.446515   6.506310   6.210658   8.836216   9.602196
    50  N    7.158249   6.000113   5.885424   8.313396   8.972793
                   31         32         33         34         35
    31  C    0.000000
    32  C    2.779726   0.000000
    33  H    3.396844   2.141492   0.000000
    34  C    1.384133   2.424923   3.878240   0.000000
    35  H    1.084176   3.863386   4.313103   2.112637   0.000000
    36  C    2.416080   1.395003   3.394354   1.413088   3.383250
    37  H    3.866431   1.086727   2.467763   3.408863   4.950002
    38  O    3.635190   2.417724   4.554280   2.370533   4.481582
    39  H    4.327391   2.455010   4.542175   3.185777   5.261552
    40  O    2.375561   3.685283   5.246927   1.369871   2.559296
    41  C    3.385591   4.373674   6.050917   2.376193   3.524372
    42  H    3.327154   4.557838   5.983654   2.661602   3.359492
    43  H    4.195317   5.379353   7.060240   3.261608   4.130531
    44  H    3.929337   4.182019   6.067812   2.715540   4.308279
    45  C    5.447892   6.599317   4.924979   6.780359   5.373798
    46  H    5.266616   6.095908   4.318282   6.529599   5.354060
    47  H    6.389481   7.638261   5.955151   7.741482   6.218368
    48  O    8.413339   9.291065   7.964048   9.457261   8.327317
    49  O    9.298345  10.664794   9.505746  10.387940   8.968674
    50  N    8.941938  10.089761   8.759495  10.059856   8.723263
                   36         37         38         39         40
    36  C    0.000000
    37  H    2.148220   0.000000
    38  O    1.357251   2.672607   0.000000
    39  H    1.914047   2.289528   0.967643   0.000000
    40  O    2.425011   4.567603   2.753802   3.713196   0.000000
    41  C    3.085673   5.129532   3.041467   3.949219   1.436053
    42  H    3.465981   5.363754   3.685040   4.527522   2.090302
    43  H    4.045667   6.127374   3.857068   4.765095   2.028596
    44  H    2.897046   4.740825   2.447225   3.239776   2.098738
    45  C    7.285086   7.295633   8.641797   8.995386   7.782960
    46  H    6.890771   6.715983   8.235215   8.518631   7.626623
    47  H    8.300384   8.334015   9.657281  10.027696   8.688809
    48  O    9.864783   9.827860  10.997186  11.289024  10.239104
    49  O   11.033750  11.339467  12.162219  12.588524  10.962287
    50  N   10.596494  10.702166  11.763590  12.122219  10.770544
                   41         42         43         44         45
    41  C    0.000000
    42  H    1.094944   0.000000
    43  H    1.089663   1.781821   0.000000
    44  H    1.091452   1.788599   1.780506   0.000000
    45  C    8.673725   8.253161   9.430358   9.237776   0.000000
    46  H    8.415409   7.947323   9.254107   8.884283   1.089809
    47  H    9.523612   9.033645  10.247644  10.127892   1.090092
    48  O   11.576103  11.640755  12.103913  12.143112   5.651770
    49  O   12.273389  12.306855  12.653656  12.981455   6.575905
    50  N   12.075531  12.077846  12.553293  12.721961   5.827553
                   46         47         48         49         50
    46  H    0.000000
    47  H    1.766169   0.000000
    48  O    6.477450   5.947643   0.000000
    49  O    7.571791   6.654742   2.166004   0.000000
    50  N    6.766986   5.929351   1.217319   1.216540   0.000000
 Stoichiometry    C21H20NO8(2)
 Framework group  C1[X(C21H20NO8)]
 Deg. of freedom   144
 Full point group                 C1      NOp   1
 Largest Abelian subgroup         C1      NOp   1
 Largest concise Abelian subgroup C1      NOp   1
                         Standard orientation:                         
 ---------------------------------------------------------------------
 Center     Atomic      Atomic             Coordinates (Angstroms)
 Number     Number       Type             X           Y           Z
 ---------------------------------------------------------------------
      1          6           0        2.205432    0.979520    0.728341
      2          1           0        1.772659    1.960559    0.554237
      3          6           0        1.468544    0.057835    1.407735
      4          1           0        1.837952   -0.948437    1.573614
      5          6           0        0.131040    0.285692    1.953802
      6          8           0       -0.474226   -0.628084    2.503857
      7          6           0        3.521633    0.816942    0.192213
      8          6           0        4.158356    1.883547   -0.427617
      9          6           0        4.265491   -0.482196    0.287564
     10          6           0        5.491546    1.823975   -0.829709
     11          1           0        3.614248    2.813234   -0.558149
     12          6           0        5.719426   -0.443750   -0.036926
     13          1           0        4.096773   -1.004881    1.229023
     14          6           0        6.290150    0.681927   -0.594739
     15          1           0        5.952176    2.692289   -1.291156
     16          8           0        7.623948    0.691767   -0.884325
     17          1           0        7.867974    1.551431   -1.253560
     18          8           0        6.303558   -1.620118    0.260379
     19          6           0        7.499391   -2.066281   -0.411821
     20          1           0        8.370033   -1.503548   -0.081542
     21          1           0        7.601849   -3.113243   -0.132329
     22          1           0        7.382747   -1.981661   -1.492842
     23          6           0       -3.167070    0.607804    0.866807
     24          1           0       -2.773038    0.296686    1.830233
     25          6           0       -2.425052    1.441511    0.106641
     26          1           0       -2.761604    1.759787   -0.875963
     27          6           0       -1.114004    1.983255    0.474529
     28          8           0       -0.494815    2.687661   -0.313816
     29          6           0       -4.462135    0.030793    0.532222
     30          6           0       -5.068039   -0.846255    1.445558
     31          6           0       -5.149434    0.311709   -0.665310
     32          6           0       -6.298818   -1.429257    1.171760
     33          1           0       -4.563254   -1.080968    2.376958
     34          6           0       -6.375995   -0.261891   -0.952282
     35          1           0       -4.729995    0.981890   -1.407177
     36          6           0       -6.960870   -1.153125   -0.024681
     37          1           0       -6.748881   -2.115424    1.884217
     38          8           0       -8.150893   -1.715606   -0.355725
     39          1           0       -8.440829   -2.306464    0.353611
     40          8           0       -6.968120   -0.004673   -2.160492
     41          6           0       -8.177003    0.768826   -2.109988
     42          1           0       -7.995608    1.737536   -1.632917
     43          1           0       -8.476522    0.927854   -3.145538
     44          1           0       -8.970180    0.238712   -1.579783
     45          6           0       -0.515416    1.675256    1.853845
     46          1           0       -1.284827    1.718716    2.624431
     47          1           0        0.217658    2.455400    2.059464
     48          8           0        2.828725   -2.335166   -0.308501
     49          8           0        3.904275   -1.386889   -1.931935
     50          7           0        3.603999   -1.512232   -0.759718
 ---------------------------------------------------------------------
 Rotational constants (GHZ):           0.3757415           0.0449607           0.0441915
 Standard basis: 6-311G(d) (5D, 7F)
 There are   630 symmetry adapted cartesian basis functions of A   symmetry.
 There are   600 symmetry adapted basis functions of A   symmetry.
   600 basis functions,  1060 primitive gaussians,   630 cartesian basis functions
   109 alpha electrons      108 beta electrons
       nuclear repulsion energy      2674.2778789137 Hartrees.
 NAtoms=   50 NActive=   50 NUniq=   50 SFac= 1.00D+00 NAtFMM=   60 NAOKFM=F Big=F
 Integral buffers will be    131072 words long.
 Raffenetti 2 integral format.
 Two-electron integral symmetry is turned on.
 Force inversion solution in PCM.
 Using the following non-standard input for PCM:
 Eps=7
 EpsInf=1.85341
 HbondAcidity=0
 HbondBasicity=0.48
 SurfaceTensionAtInterface=60.62
 CarbonAromaticity=0
 ElectronegativeHalogenicity=0
 --- end of non-standard input.
 Force inversion solution in PCM.
 ------------------------------------------------------------------------------
 Polarizable Continuum Model (PCM)
 =================================
 Model                : PCM.
 Atomic radii         : SMD-Coulomb.
 Polarization charges : Total charges.
 Charge compensation  : None.
 Solution method      : Matrix inversion.
 Cavity type          : VdW (van der Waals Surface) (Alpha=1.000).
 Cavity algorithm     : GePol (No added spheres)
                        Default sphere list used, NSphG=   50.
                        Lebedev-Laikov grids with approx.  5.0 points / Ang**2.
                        Smoothing algorithm: York/Karplus (Gamma=1.0000).
                        Polarization charges: spherical gaussians, with
                                              point-specific exponents (IZeta= 3).
                        Self-potential: point-specific (ISelfS= 7).
                        Self-field    : sphere-specific E.n sum rule (ISelfD= 2).
 1st derivatives      : Analytical E(r).r(x)/FMM algorithm (CHGder, D1EAlg=3).
                        Cavity 1st derivative terms included.
 2nd derivatives      : Analytical E(r).r(xy)/FMM algorithm (CHGder, D2EAlg=3).
                        Cavity 2nd derivative terms included.
 Solvent              : Generic,
                        Eps                           =   7.000000
                        Eps(infinity)                 =   1.853410
                        RSolv                         =   0.000000 Ang.
                        Molar volume                  =   0.000000 cm**3/mol
                        Thermal expansion coefficient =   0.000000 K**-1
                        Absolute temperature          = 298.150000 K
                        Numeral density               =   0.000000 Ang**-3
                        Hydrogen bond acidity         =   0.000000
                        Hydrogen bond basicity        =   0.480000
                        Surface tension at interface  =  60.620000 (cal/mol)*Ang**-2
                        Carbon aromaticity            =   0.000000
                        Electronegative halogenicity  =   0.000000
 ------------------------------------------------------------------------------
 ------------------------------------------------------------------------------
 Atomic radii for non-electrostatic terms: SMD-CDS.
 ------------------------------------------------------------------------------
 Nuclear repulsion after PCM non-electrostatic terms =     2674.2739524113 Hartrees.
 One-electron integrals computed using PRISM.
 NBasis=   600 RedAO= T EigKep=  1.75D-04  NBF=   600
 NBsUse=   600 1.00D-06 EigRej= -1.00D+00 NBFU=   600
 Initial guess from the checkpoint file:  "CURCUMIN-OPT-FREQ-Reag-1-B3LYP-6-311G-D-363.chk"
 B after Tr=    -0.000000    0.000000   -0.000000
         Rot=    1.000000   -0.000000   -0.000000    0.000000 Ang=   0.00 deg.
 Initial guess <Sx>= 0.0000 <Sy>= 0.0000 <Sz>= 0.5000 <S**2>= 0.7861 S= 0.5179
 Requested convergence on RMS density matrix=1.00D-08 within 128 cycles.
 Requested convergence on MAX density matrix=1.00D-06.
 Requested convergence on             energy=1.00D-06.
 No special actions if energy rises.
 Inv3:  Mode=1 IEnd=    50135232.
 Iteration    1 A*A^-1 deviation from unit magnitude is 4.22D-15 for   2951.
 Iteration    1 A*A^-1 deviation from orthogonality  is 1.84D-15 for   3799   2509.
 Iteration    1 A^-1*A deviation from unit magnitude is 3.33D-15 for   2852.
 Iteration    1 A^-1*A deviation from orthogonality  is 2.72D-15 for   1772    758.
 Error on total polarization charges =  0.03478
 SCF Done:  E(UB3LYP) =  -1468.98900681     A.U. after    1 cycles
            NFock=  1  Conv=0.66D-08     -V/T= 2.0034
 <Sx>= 0.0000 <Sy>= 0.0000 <Sz>= 0.5000 <S**2>= 0.7861 S= 0.5179
 <L.S>=  0.00000000000    
 SMD-CDS (non-electrostatic) energy       (kcal/mol) =      -2.46
 (included in total energy above)
 Annihilation of the first spin contaminant:
 S**2 before annihilation     0.7861,   after     0.7508
 DoSCS=F DFT=T ScalE2(SS,OS)=  1.000000  1.000000
 Range of M.O.s used for correlation:     1   600
 NBasis=   600 NAE=   109 NBE=   108 NFC=     0 NFV=     0
 NROrb=    600 NOA=   109 NOB=   108 NVA=   491 NVB=   492

 **** Warning!!: The largest alpha MO coefficient is  0.16640660D+02


 **** Warning!!: The largest beta MO coefficient is  0.16696359D+02


 **** Warning!!: The smallest beta delta epsilon is  0.93634206D-01

 Symmetrizing basis deriv contribution to polar:
 IMax=3 JMax=2 DiffMx= 0.00D+00
 G2DrvN: will do    26 centers at a time, making    2 passes.
 Calling FoFCou, ICntrl=  3107 FMM=F I1Cent=   0 AccDes= 0.00D+00.
 Calling FoFCou, ICntrl=  3107 FMM=F I1Cent=   0 AccDes= 0.00D+00.
 NEqPCM:  Using equilibrium solvation (IEInf=0, Eps=   7.0000, EpsInf=   1.8534)
 G2PCM: DoFxE=T DoFxN=T DoGrad=T DoDP/DQ/DG/TGxP=FFFF NFrqRd=   0 IEInf=0 SqF1=F DoCFld=F IF1Alg=4.
 End of G2Drv F.D. properties file   721 does not exist.
 End of G2Drv F.D. properties file   722 does not exist.
 End of G2Drv F.D. properties file   788 does not exist.
          IDoAtm=11111111111111111111111111111111111111111111111111
 NEqPCM:  Using equilibrium solvation (IEInf=0, Eps=   7.0000, EpsInf=   1.8534)
          Differentiating once with respect to nuclear coordinates.
 CalDSu exits because no D1Ps are significant.
          There are   153 degrees of freedom in the 1st order CPHF.  IDoFFX=6 NUNeed=     0.
    150 vectors produced by pass  0 Test12= 1.07D-13 1.00D-09 XBig12= 3.58D-01 1.74D-01.
 AX will form    50 AO Fock derivatives at one time.
    150 vectors produced by pass  1 Test12= 1.07D-13 1.00D-09 XBig12= 3.93D-02 3.10D-02.
    148 vectors produced by pass  2 Test12= 1.07D-13 1.00D-09 XBig12= 1.56D-03 8.34D-03.
    147 vectors produced by pass  3 Test12= 1.07D-13 1.00D-09 XBig12= 1.35D-05 3.80D-04.
    147 vectors produced by pass  4 Test12= 1.07D-13 1.00D-09 XBig12= 8.43D-08 1.78D-05.
    144 vectors produced by pass  5 Test12= 1.07D-13 1.00D-09 XBig12= 6.45D-10 1.45D-06.
    105 vectors produced by pass  6 Test12= 1.07D-13 1.00D-09 XBig12= 2.88D-12 8.99D-08.
     21 vectors produced by pass  7 Test12= 1.07D-13 1.00D-09 XBig12= 1.18D-14 6.08D-09.
      3 vectors produced by pass  8 Test12= 1.07D-13 1.00D-09 XBig12= 7.72D-16 1.73D-09.
      3 vectors produced by pass  9 Test12= 1.07D-13 1.00D-09 XBig12= 9.33D-15 4.12D-09.
      3 vectors produced by pass 10 Test12= 1.07D-13 1.00D-09 XBig12= 6.24D-15 4.17D-09.
      2 vectors produced by pass 11 Test12= 1.07D-13 1.00D-09 XBig12= 1.31D-15 1.73D-09.
 InvSVY:  IOpt=1 It=  1 EMax= 5.00D-16
 Solved reduced A of dimension  1023 with   153 vectors.
 End of Minotr F.D. properties file   721 does not exist.
 End of Minotr F.D. properties file   722 does not exist.
 End of Minotr F.D. properties file   788 does not exist.

 **********************************************************************

            Population analysis using the SCF density.

 **********************************************************************

 Orbital symmetries:
 Alpha Orbitals:
       Occupied  (A) (A) (A) (A) (A) (A) (A) (A) (A) (A) (A) (A)
                 (A) (A) (A) (A) (A) (A) (A) (A) (A) (A) (A) (A)
                 (A) (A) (A) (A) (A) (A) (A) (A) (A) (A) (A) (A)
                 (A) (A) (A) (A) (A) (A) (A) (A) (A) (A) (A) (A)
                 (A) (A) (A) (A) (A) (A) (A) (A) (A) (A) (A) (A)
                 (A) (A) (A) (A) (A) (A) (A) (A) (A) (A) (A) (A)
                 (A) (A) (A) (A) (A) (A) (A) (A) (A) (A) (A) (A)
                 (A) (A) (A) (A) (A) (A) (A) (A) (A) (A) (A) (A)
                 (A) (A) (A) (A) (A) (A) (A) (A) (A) (A) (A) (A)
                 (A)
       Virtual   (A) (A) (A) (A) (A) (A) (A) (A) (A) (A) (A) (A)
                 (A) (A) (A) (A) (A) (A) (A) (A) (A) (A) (A) (A)
                 (A) (A) (A) (A) (A) (A) (A) (A) (A) (A) (A) (A)
                 (A) (A) (A) (A) (A) (A) (A) (A) (A) (A) (A) (A)
                 (A) (A) (A) (A) (A) (A) (A) (A) (A) (A) (A) (A)
                 (A) (A) (A) (A) (A) (A) (A) (A) (A) (A) (A) (A)
                 (A) (A) (A) (A) (A) (A) (A) (A) (A) (A) (A) (A)
                 (A) (A) (A) (A) (A) (A) (A) (A) (A) (A) (A) (A)
                 (A) (A) (A) (A) (A) (A) (A) (A) (A) (A) (A) (A)
                 (A) (A) (A) (A) (A) (A) (A) (A) (A) (A) (A) (A)
                 (A) (A) (A) (A) (A) (A) (A) (A) (A) (A) (A) (A)
                 (A) (A) (A) (A) (A) (A) (A) (A) (A) (A) (A) (A)
                 (A) (A) (A) (A) (A) (A) (A) (A) (A) (A) (A) (A)
                 (A) (A) (A) (A) (A) (A) (A) (A) (A) (A) (A) (A)
                 (A) (A) (A) (A) (A) (A) (A) (A) (A) (A) (A) (A)
                 (A) (A) (A) (A) (A) (A) (A) (A) (A) (A) (A) (A)
                 (A) (A) (A) (A) (A) (A) (A) (A) (A) (A) (A) (A)
                 (A) (A) (A) (A) (A) (A) (A) (A) (A) (A) (A) (A)
                 (A) (A) (A) (A) (A) (A) (A) (A) (A) (A) (A) (A)
                 (A) (A) (A) (A) (A) (A) (A) (A) (A) (A) (A) (A)
                 (A) (A) (A) (A) (A) (A) (A) (A) (A) (A) (A) (A)
                 (A) (A) (A) (A) (A) (A) (A) (A) (A) (A) (A) (A)
                 (A) (A) (A) (A) (A) (A) (A) (A) (A) (A) (A) (A)
                 (A) (A) (A) (A) (A) (A) (A) (A) (A) (A) (A) (A)
                 (A) (A) (A) (A) (A) (A) (A) (A) (A) (A) (A) (A)
                 (A) (A) (A) (A) (A) (A) (A) (A) (A) (A) (A) (A)
                 (A) (A) (A) (A) (A) (A) (A) (A) (A) (A) (A) (A)
                 (A) (A) (A) (A) (A) (A) (A) (A) (A) (A) (A) (A)
                 (A) (A) (A) (A) (A) (A) (A) (A) (A) (A) (A) (A)
                 (A) (A) (A) (A) (A) (A) (A) (A) (A) (A) (A) (A)
                 (A) (A) (A) (A) (A) (A) (A) (A) (A) (A) (A) (A)
                 (A) (A) (A) (A) (A) (A) (A) (A) (A) (A) (A) (A)
                 (A) (A) (A) (A) (A) (A) (A) (A) (A) (A) (A) (A)
                 (A) (A) (A) (A) (A) (A) (A) (A) (A) (A) (A) (A)
                 (A) (A) (A) (A) (A) (A) (A) (A) (A) (A) (A) (A)
                 (A) (A) (A) (A) (A) (A) (A) (A) (A) (A) (A) (A)
                 (A) (A) (A) (A) (A) (A) (A) (A) (A) (A) (A) (A)
                 (A) (A) (A) (A) (A) (A) (A) (A) (A) (A) (A) (A)
                 (A) (A) (A) (A) (A) (A) (A) (A) (A) (A) (A) (A)
                 (A) (A) (A) (A) (A) (A) (A) (A) (A) (A) (A) (A)
                 (A) (A) (A) (A) (A) (A) (A) (A) (A) (A) (A)
 Beta  Orbitals:
       Occupied  (A) (A) (A) (A) (A) (A) (A) (A) (A) (A) (A) (A)
                 (A) (A) (A) (A) (A) (A) (A) (A) (A) (A) (A) (A)
                 (A) (A) (A) (A) (A) (A) (A) (A) (A) (A) (A) (A)
                 (A) (A) (A) (A) (A) (A) (A) (A) (A) (A) (A) (A)
                 (A) (A) (A) (A) (A) (A) (A) (A) (A) (A) (A) (A)
                 (A) (A) (A) (A) (A) (A) (A) (A) (A) (A) (A) (A)
                 (A) (A) (A) (A) (A) (A) (A) (A) (A) (A) (A) (A)
                 (A) (A) (A) (A) (A) (A) (A) (A) (A) (A) (A) (A)
                 (A) (A) (A) (A) (A) (A) (A) (A) (A) (A) (A) (A)
       Virtual   (A) (A) (A) (A) (A) (A) (A) (A) (A) (A) (A) (A)
                 (A) (A) (A) (A) (A) (A) (A) (A) (A) (A) (A) (A)
                 (A) (A) (A) (A) (A) (A) (A) (A) (A) (A) (A) (A)
                 (A) (A) (A) (A) (A) (A) (A) (A) (A) (A) (A) (A)
                 (A) (A) (A) (A) (A) (A) (A) (A) (A) (A) (A) (A)
                 (A) (A) (A) (A) (A) (A) (A) (A) (A) (A) (A) (A)
                 (A) (A) (A) (A) (A) (A) (A) (A) (A) (A) (A) (A)
                 (A) (A) (A) (A) (A) (A) (A) (A) (A) (A) (A) (A)
                 (A) (A) (A) (A) (A) (A) (A) (A) (A) (A) (A) (A)
                 (A) (A) (A) (A) (A) (A) (A) (A) (A) (A) (A) (A)
                 (A) (A) (A) (A) (A) (A) (A) (A) (A) (A) (A) (A)
                 (A) (A) (A) (A) (A) (A) (A) (A) (A) (A) (A) (A)
                 (A) (A) (A) (A) (A) (A) (A) (A) (A) (A) (A) (A)
                 (A) (A) (A) (A) (A) (A) (A) (A) (A) (A) (A) (A)
                 (A) (A) (A) (A) (A) (A) (A) (A) (A) (A) (A) (A)
                 (A) (A) (A) (A) (A) (A) (A) (A) (A) (A) (A) (A)
                 (A) (A) (A) (A) (A) (A) (A) (A) (A) (A) (A) (A)
                 (A) (A) (A) (A) (A) (A) (A) (A) (A) (A) (A) (A)
                 (A) (A) (A) (A) (A) (A) (A) (A) (A) (A) (A) (A)
                 (A) (A) (A) (A) (A) (A) (A) (A) (A) (A) (A) (A)
                 (A) (A) (A) (A) (A) (A) (A) (A) (A) (A) (A) (A)
                 (A) (A) (A) (A) (A) (A) (A) (A) (A) (A) (A) (A)
                 (A) (A) (A) (A) (A) (A) (A) (A) (A) (A) (A) (A)
                 (A) (A) (A) (A) (A) (A) (A) (A) (A) (A) (A) (A)
                 (A) (A) (A) (A) (A) (A) (A) (A) (A) (A) (A) (A)
                 (A) (A) (A) (A) (A) (A) (A) (A) (A) (A) (A) (A)
                 (A) (A) (A) (A) (A) (A) (A) (A) (A) (A) (A) (A)
                 (A) (A) (A) (A) (A) (A) (A) (A) (A) (A) (A) (A)
                 (A) (A) (A) (A) (A) (A) (A) (A) (A) (A) (A) (A)
                 (A) (A) (A) (A) (A) (A) (A) (A) (A) (A) (A) (A)
                 (A) (A) (A) (A) (A) (A) (A) (A) (A) (A) (A) (A)
                 (A) (A) (A) (A) (A) (A) (A) (A) (A) (A) (A) (A)
                 (A) (A) (A) (A) (A) (A) (A) (A) (A) (A) (A) (A)
                 (A) (A) (A) (A) (A) (A) (A) (A) (A) (A) (A) (A)
                 (A) (A) (A) (A) (A) (A) (A) (A) (A) (A) (A) (A)
                 (A) (A) (A) (A) (A) (A) (A) (A) (A) (A) (A) (A)
                 (A) (A) (A) (A) (A) (A) (A) (A) (A) (A) (A) (A)
                 (A) (A) (A) (A) (A) (A) (A) (A) (A) (A) (A) (A)
                 (A) (A) (A) (A) (A) (A) (A) (A) (A) (A) (A) (A)
                 (A) (A) (A) (A) (A) (A) (A) (A) (A) (A) (A) (A)
                 (A) (A) (A) (A) (A) (A) (A) (A) (A) (A) (A) (A)
 The electronic state is 2-A.
 Alpha  occ. eigenvalues --  -19.16941 -19.16117 -19.16082 -19.16024 -19.15903
 Alpha  occ. eigenvalues --  -19.13408 -19.10022 -19.09989 -14.54388 -10.25731
 Alpha  occ. eigenvalues --  -10.25634 -10.25567 -10.25046 -10.24678 -10.24551
 Alpha  occ. eigenvalues --  -10.23135 -10.21683 -10.20607 -10.20417 -10.19560
 Alpha  occ. eigenvalues --  -10.19315 -10.19232 -10.19098 -10.18664 -10.18138
 Alpha  occ. eigenvalues --  -10.17927 -10.17849 -10.17549 -10.17315 -10.17066
 Alpha  occ. eigenvalues --   -1.23841  -1.09175  -1.08160  -1.07139  -1.06828
 Alpha  occ. eigenvalues --   -1.04902  -1.03790  -1.03360  -0.88508  -0.86721
 Alpha  occ. eigenvalues --   -0.81615  -0.80720  -0.79939  -0.77302  -0.76116
 Alpha  occ. eigenvalues --   -0.75278  -0.72942  -0.71651  -0.69476  -0.68873
 Alpha  occ. eigenvalues --   -0.66065  -0.64281  -0.62750  -0.62107  -0.59561
 Alpha  occ. eigenvalues --   -0.58563  -0.57487  -0.56045  -0.55371  -0.54749
 Alpha  occ. eigenvalues --   -0.54092  -0.52856  -0.52209  -0.51672  -0.51143
 Alpha  occ. eigenvalues --   -0.50745  -0.49515  -0.48981  -0.48150  -0.47799
 Alpha  occ. eigenvalues --   -0.47267  -0.46183  -0.45511  -0.45400  -0.44494
 Alpha  occ. eigenvalues --   -0.44180  -0.43863  -0.43278  -0.42652  -0.42137
 Alpha  occ. eigenvalues --   -0.41735  -0.41458  -0.41119  -0.39525  -0.39182
 Alpha  occ. eigenvalues --   -0.39094  -0.38211  -0.37855  -0.37663  -0.37224
 Alpha  occ. eigenvalues --   -0.36511  -0.36421  -0.36264  -0.35789  -0.35260
 Alpha  occ. eigenvalues --   -0.34104  -0.33300  -0.32367  -0.30931  -0.30796
 Alpha  occ. eigenvalues --   -0.29463  -0.29023  -0.28336  -0.26169  -0.25155
 Alpha  occ. eigenvalues --   -0.24526  -0.23262  -0.21939  -0.19127
 Alpha virt. eigenvalues --   -0.07558  -0.07216  -0.05837  -0.01233   0.00370
 Alpha virt. eigenvalues --    0.01611   0.03497   0.03886   0.04838   0.05849
 Alpha virt. eigenvalues --    0.06419   0.06548   0.07028   0.07467   0.07811
 Alpha virt. eigenvalues --    0.08332   0.08383   0.08654   0.09524   0.10768
 Alpha virt. eigenvalues --    0.11523   0.11754   0.12240   0.12446   0.12843
 Alpha virt. eigenvalues --    0.13502   0.14623   0.14845   0.15901   0.16260
 Alpha virt. eigenvalues --    0.16951   0.17155   0.17307   0.18488   0.19752
 Alpha virt. eigenvalues --    0.21136   0.22245   0.22634   0.23223   0.24102
 Alpha virt. eigenvalues --    0.24594   0.25576   0.26144   0.27163   0.27485
 Alpha virt. eigenvalues --    0.27795   0.28647   0.30116   0.30841   0.31353
 Alpha virt. eigenvalues --    0.31625   0.32393   0.33090   0.33426   0.33815
 Alpha virt. eigenvalues --    0.34317   0.35060   0.35282   0.35856   0.36126
 Alpha virt. eigenvalues --    0.36185   0.36924   0.37298   0.37432   0.37974
 Alpha virt. eigenvalues --    0.38302   0.38704   0.39541   0.40046   0.40196
 Alpha virt. eigenvalues --    0.40407   0.41048   0.41613   0.41818   0.42951
 Alpha virt. eigenvalues --    0.43002   0.43417   0.43481   0.44095   0.44675
 Alpha virt. eigenvalues --    0.44911   0.45558   0.45718   0.46183   0.46320
 Alpha virt. eigenvalues --    0.46825   0.47546   0.48166   0.48624   0.49413
 Alpha virt. eigenvalues --    0.49664   0.50600   0.50894   0.51878   0.52099
 Alpha virt. eigenvalues --    0.52314   0.53181   0.53855   0.54454   0.54983
 Alpha virt. eigenvalues --    0.55451   0.55899   0.56850   0.57734   0.57984
 Alpha virt. eigenvalues --    0.58364   0.58472   0.58773   0.59061   0.59700
 Alpha virt. eigenvalues --    0.60128   0.60515   0.61083   0.61238   0.61857
 Alpha virt. eigenvalues --    0.62114   0.62431   0.63157   0.63365   0.63666
 Alpha virt. eigenvalues --    0.64122   0.64559   0.65139   0.65606   0.66300
 Alpha virt. eigenvalues --    0.66560   0.67230   0.67441   0.68803   0.69057
 Alpha virt. eigenvalues --    0.70028   0.70315   0.71687   0.71978   0.73405
 Alpha virt. eigenvalues --    0.74910   0.75315   0.75495   0.76473   0.77090
 Alpha virt. eigenvalues --    0.77835   0.78187   0.78239   0.78783   0.79377
 Alpha virt. eigenvalues --    0.80028   0.80260   0.80980   0.81304   0.81973
 Alpha virt. eigenvalues --    0.83002   0.83791   0.84258   0.85184   0.85718
 Alpha virt. eigenvalues --    0.86316   0.86837   0.88053   0.88724   0.89103
 Alpha virt. eigenvalues --    0.89581   0.89711   0.90967   0.91565   0.92541
 Alpha virt. eigenvalues --    0.93197   0.93321   0.94178   0.94628   0.95419
 Alpha virt. eigenvalues --    0.96247   0.97501   0.97935   0.98323   0.98829
 Alpha virt. eigenvalues --    0.99778   1.00697   1.01480   1.02348   1.03055
 Alpha virt. eigenvalues --    1.04476   1.05336   1.06649   1.06840   1.08237
 Alpha virt. eigenvalues --    1.09242   1.09647   1.10812   1.12039   1.13530
 Alpha virt. eigenvalues --    1.13944   1.14279   1.15285   1.16897   1.17693
 Alpha virt. eigenvalues --    1.18638   1.19497   1.20203   1.21559   1.23210
 Alpha virt. eigenvalues --    1.23407   1.23663   1.24401   1.24843   1.25149
 Alpha virt. eigenvalues --    1.27283   1.28239   1.29151   1.30648   1.34260
 Alpha virt. eigenvalues --    1.36040   1.37406   1.37983   1.38608   1.41076
 Alpha virt. eigenvalues --    1.42188   1.44411   1.44946   1.46010   1.46674
 Alpha virt. eigenvalues --    1.47231   1.48434   1.49862   1.50227   1.50948
 Alpha virt. eigenvalues --    1.51069   1.52089   1.52480   1.53146   1.54249
 Alpha virt. eigenvalues --    1.54493   1.54973   1.55363   1.56371   1.56609
 Alpha virt. eigenvalues --    1.57310   1.58488   1.59619   1.60143   1.61227
 Alpha virt. eigenvalues --    1.61868   1.62641   1.64317   1.64843   1.65798
 Alpha virt. eigenvalues --    1.66955   1.67885   1.68362   1.68875   1.69269
 Alpha virt. eigenvalues --    1.69642   1.70665   1.71574   1.72299   1.73326
 Alpha virt. eigenvalues --    1.73828   1.75013   1.76240   1.76691   1.77492
 Alpha virt. eigenvalues --    1.78715   1.79095   1.79737   1.79946   1.81342
 Alpha virt. eigenvalues --    1.82756   1.83397   1.83843   1.84351   1.85358
 Alpha virt. eigenvalues --    1.88095   1.89073   1.90912   1.91802   1.94006
 Alpha virt. eigenvalues --    1.95764   1.96461   1.98159   1.99165   2.00699
 Alpha virt. eigenvalues --    2.01687   2.02442   2.04554   2.05389   2.07565
 Alpha virt. eigenvalues --    2.07838   2.09950   2.10977   2.11708   2.12036
 Alpha virt. eigenvalues --    2.14513   2.15709   2.16979   2.18579   2.19445
 Alpha virt. eigenvalues --    2.21097   2.24044   2.24562   2.27058   2.27803
 Alpha virt. eigenvalues --    2.28957   2.29734   2.30684   2.31296   2.31790
 Alpha virt. eigenvalues --    2.32574   2.33272   2.33683   2.34169   2.35634
 Alpha virt. eigenvalues --    2.35975   2.37878   2.39009   2.39880   2.40556
 Alpha virt. eigenvalues --    2.43127   2.44511   2.46131   2.49081   2.50796
 Alpha virt. eigenvalues --    2.51404   2.52470   2.54090   2.54422   2.57860
 Alpha virt. eigenvalues --    2.60102   2.62046   2.63445   2.63978   2.65457
 Alpha virt. eigenvalues --    2.66372   2.69304   2.69621   2.70928   2.73207
 Alpha virt. eigenvalues --    2.74701   2.76282   2.76910   2.77592   2.79496
 Alpha virt. eigenvalues --    2.81286   2.81468   2.82689   2.83371   2.84377
 Alpha virt. eigenvalues --    2.85176   2.85900   2.87051   2.89383   2.90503
 Alpha virt. eigenvalues --    2.91977   2.92970   2.93625   2.93831   2.94547
 Alpha virt. eigenvalues --    2.94711   2.95130   2.96700   2.97588   2.98349
 Alpha virt. eigenvalues --    2.99256   3.00360   3.01099   3.02600   3.03629
 Alpha virt. eigenvalues --    3.05263   3.05717   3.06541   3.08717   3.09950
 Alpha virt. eigenvalues --    3.12290   3.12792   3.13254   3.14064   3.14588
 Alpha virt. eigenvalues --    3.14680   3.14872   3.16429   3.17653   3.18487
 Alpha virt. eigenvalues --    3.18552   3.19819   3.20685   3.24113   3.25491
 Alpha virt. eigenvalues --    3.26134   3.28269   3.29515   3.29805   3.29915
 Alpha virt. eigenvalues --    3.30311   3.31085   3.31571   3.32489   3.33079
 Alpha virt. eigenvalues --    3.33448   3.35015   3.36459   3.38560   3.39840
 Alpha virt. eigenvalues --    3.42393   3.44536   3.44837   3.45917   3.47375
 Alpha virt. eigenvalues --    3.48233   3.49015   3.51158   3.52499   3.54005
 Alpha virt. eigenvalues --    3.56554   3.56834   3.60515   3.64006   3.66992
 Alpha virt. eigenvalues --    3.70258   3.71649   3.72825   3.75570   3.87283
 Alpha virt. eigenvalues --    3.89759   3.90077   3.90701   3.93490   3.94764
 Alpha virt. eigenvalues --    3.95466   3.98816   4.06044   4.07497   4.08910
 Alpha virt. eigenvalues --    4.11375   4.35180   4.40868   4.45944   4.47347
 Alpha virt. eigenvalues --    4.68522   4.79013   4.80934   4.81171   4.83916
 Alpha virt. eigenvalues --    4.86246   4.87898   4.89801   4.93504   4.94123
 Alpha virt. eigenvalues --    4.96257   4.96791   5.05440   5.06108   5.11107
 Alpha virt. eigenvalues --    5.14452   5.16472   5.20094   5.46067   5.49602
 Alpha virt. eigenvalues --    5.50201   5.59108   5.60068   5.68298   5.69384
 Alpha virt. eigenvalues --    6.00714  23.23285  23.25902  23.42356  23.42594
 Alpha virt. eigenvalues --   23.55630  23.56408  23.71092  23.73737  23.76220
 Alpha virt. eigenvalues --   23.78862  23.79696  23.86231  23.90201  23.93792
 Alpha virt. eigenvalues --   23.99132  24.02178  24.05488  24.09332  24.11946
 Alpha virt. eigenvalues --   24.12061  24.15347  35.32795  49.81404  49.86525
 Alpha virt. eigenvalues --   49.86598  49.91085  49.92992  49.93573  49.96700
 Alpha virt. eigenvalues --   49.98431
  Beta  occ. eigenvalues --  -19.16669 -19.16081 -19.16073 -19.16055 -19.15875
  Beta  occ. eigenvalues --  -19.13408 -19.09987 -19.09830 -14.54132 -10.25731
  Beta  occ. eigenvalues --  -10.25667 -10.25231 -10.25050 -10.24678 -10.24625
  Beta  occ. eigenvalues --  -10.23135 -10.21687 -10.20607 -10.20022 -10.19456
  Beta  occ. eigenvalues --  -10.19278 -10.19232 -10.19054 -10.18663 -10.18138
  Beta  occ. eigenvalues --  -10.17927 -10.17849 -10.17315 -10.17282 -10.17066
  Beta  occ. eigenvalues --   -1.23632  -1.08843  -1.08160  -1.06995  -1.06684
  Beta  occ. eigenvalues --   -1.04902  -1.03671  -1.03153  -0.87973  -0.86721
  Beta  occ. eigenvalues --   -0.81264  -0.80663  -0.79430  -0.77023  -0.76113
  Beta  occ. eigenvalues --   -0.75107  -0.72855  -0.71518  -0.68874  -0.68708
  Beta  occ. eigenvalues --   -0.66055  -0.63960  -0.62541  -0.62053  -0.59249
  Beta  occ. eigenvalues --   -0.58562  -0.57330  -0.56012  -0.55267  -0.54360
  Beta  occ. eigenvalues --   -0.53906  -0.52659  -0.52011  -0.51485  -0.51132
  Beta  occ. eigenvalues --   -0.50636  -0.49414  -0.48738  -0.48070  -0.47266
  Beta  occ. eigenvalues --   -0.47077  -0.46183  -0.45409  -0.45150  -0.44299
  Beta  occ. eigenvalues --   -0.44161  -0.43846  -0.43196  -0.42553  -0.42000
  Beta  occ. eigenvalues --   -0.41652  -0.41321  -0.41096  -0.39370  -0.39120
  Beta  occ. eigenvalues --   -0.38705  -0.38131  -0.37716  -0.37625  -0.37148
  Beta  occ. eigenvalues --   -0.36416  -0.36206  -0.35670  -0.35626  -0.34485
  Beta  occ. eigenvalues --   -0.34084  -0.32780  -0.32282  -0.30563  -0.30309
  Beta  occ. eigenvalues --   -0.29099  -0.28351  -0.28283  -0.26043  -0.25154
  Beta  occ. eigenvalues --   -0.24399  -0.21936  -0.21743
  Beta virt. eigenvalues --   -0.12380  -0.07365  -0.06897  -0.05092  -0.01227
[...]
 2996,0.00003886,-0.00001340,0.00006946,-0.00004031,0.00000861,-0.00003
 819,0.00000739,0.00000075,-0.00000256,-0.00001395,-0.00004774,0.000031
 89,0.00000295,0.00001283,-0.00000697,0.00006442,0.00002840,0.00002228,
 -0.00000343,-0.00000449,0.00000062,-0.00007570,-0.00003431,-0.00002164
 ,0.00000731,0.00000836,-0.00000418,-0.00002353,0.00001588,-0.00002696,
 0.00001560,-0.00001015,-0.00000107,-0.00000103,0.00000206,0.00000161,-
 0.00000186,0.00000202,-0.00000190,-0.00000062,-0.00000130,0.00000172,-
 0.12615765,-0.17109179,-0.05958826,0.00018743,-0.00036092,0.00039603,0
 .13380346,0.18621927,0.00067047,-0.00126645,-0.00031038,0.00198830,-0.
 00013954,-0.00146957,0.00044396,0.00039021,-0.00001276,-0.00002050,0.0
 0008739,0.00011202,-0.00213292,0.00017259,-0.00166285,-0.00046558,0.00
 028975,0.00064100,0.00005904,0.00031404,-0.00015153,-0.00004325,-0.000
 05266,0.00005182,-0.00012025,-0.00001043,0.00001567,0.00004793,-0.0000
 3949,-0.00001086,0.00001519,0.00001624,-0.00001172,0.00001974,-0.00008
 844,0.00002808,0.00001055,0.00000201,0.00001397,0.00005665,0.00010778,
 -0.00003856,-0.00000774,-0.00000508,0.00000502,-0.00007334,-0.00001778
 ,0.00001591,0.00000919,0.00000700,-0.00000098,-0.00008324,0.00009776,-
 0.00000398,0.00004034,-0.00001422,-0.00002006,-0.00000664,-0.00000069,
 0.00000436,-0.00000440,0.00000502,0.00000241,-0.00000432,-0.00000037,0
 .00000489,0.00085604,0.00080078,-0.00037385,0.00000785,-0.00010470,0.0
 0034636,-0.00101382,0.00286161,-0.00345110,-0.00125686,-0.00009126,-0.
 00014250,-0.02348253,-0.02015441,-0.01294106,0.00155730,-0.00051267,0.
 00436664,-0.00005281,-0.00025536,0.00012046,0.00000606,0.00002534,-0.0
 0003330,0.00006176,0.00003243,-0.00000543,-0.00004012,0.00000453,-0.00
 002803,0.00000078,-0.00001125,0.00000223,-0.00000312,-0.00006798,0.000
 06872,0.00000388,-0.00000744,0.00003640,0.00005274,0.00001763,0.000009
 05,-0.00000574,-0.00000256,0.00000121,-0.00007470,-0.00003501,-0.00001
 527,0.00000439,0.00000858,-0.00000406,-0.00001671,0.00001678,-0.000016
 57,0.00001585,-0.00000948,-0.00000062,-0.00000109,0.00000213,0.0000011
 1,-0.00000175,0.00000186,-0.00000162,-0.00000084,-0.00000125,0.0000017
 3,-0.04602538,-0.05509238,-0.06883771,0.01386929,0.01655316,0.00858196
 ,0.05514430,0.05615802,0.07511982,-0.00355646,-0.00149545,0.00159790,0
 .00024833,0.00013062,-0.00020544,0.00322919,-0.00048438,0.00111837,-0.
 00032843,0.00134162,-0.00149917,-0.00210301,0.00085710,0.00077578,0.00
 109540,0.00101996,-0.00041556,-0.00280612,-0.00221170,-0.00247562,0.00
 084147,-0.00071917,-0.00074242,-0.00371182,-0.02538351,0.00374577,-0.0
 0006813,-0.00055330,-0.00011022,-0.00000899,-0.00027580,0.00038247,0.0
 0114177,-0.00316190,-0.00154841,-0.00003826,0.00060745,0.00052530,0.00
 082977,0.00074831,-0.00044646,-0.00010133,-0.00007709,-0.00003825,-0.0
 0113971,-0.00032691,0.00045188,0.00014831,0.00010768,0.00001415,-0.001
 59330,0.00185100,0.00002139,0.00073504,-0.00025143,-0.00019119,-0.0000
 9663,0.00000080,0.00003178,-0.00011457,0.00011335,0.00004064,-0.000036
 46,-0.00000330,0.00006346,-0.00001157,-0.00001281,-0.00001264,-0.00003
 286,-0.00000046,-0.00000752,0.00004056,0.00008946,0.00008517,0.0000258
 4,-0.00001883,0.00000493,-0.00017627,-0.00001887,-0.00026684,0.0000596
 7,0.00002079,0.00010114,0.00002409,0.00000657,0.00001341,-0.00001328,0
 .00000679,0.00001072,-0.00000809,0.00001465,0.00000517,0.00000098,0.00
 001850,0.00001089,0.00000398,-0.00001164,-0.00001476,0.00001920,-0.000
 00897,0.00003288,0.00000709,-0.00001512,-0.00000688,0.00002292,0.00000
 357,-0.00000604,0.00000702,-0.00000551,-0.00000478,-0.00002321,0.00000
 432,0.00000261,0.00001301,-0.00000694,-0.00000417,-0.00003552,0.000026
 21,-0.00002157,0.00003184,-0.00002491,-0.00000386,-0.00000153,0.000006
 91,0.00000522,-0.00000285,0.00000139,-0.00000294,-0.00000339,0.0000001
 4,0.00000173,-0.00021010,-0.00020980,0.00013313,-0.00003588,0.00006351
 ,-0.00001335,0.00003955,-0.00003790,-0.00000184,0.28547332,-0.00259472
 ,-0.00122055,0.00104980,0.00022574,0.00004158,-0.00012555,0.00326111,-
 0.00013722,-0.00132730,0.00043621,-0.00114390,-0.00175791,-0.00225285,
 0.00006230,0.00099227,0.00119046,0.00103107,-0.00067676,0.00036038,0.0
 0362223,-0.00082173,-0.00163061,-0.00153330,0.00103493,-0.02844214,-0.
 01399795,0.00362924,0.00118015,0.00022703,-0.00078533,0.00005451,-0.00
 018308,0.00020558,0.00069984,-0.00545365,-0.00386078,-0.00038574,0.000
 33424,-0.00081947,0.00029359,0.00130190,-0.00083190,-0.00007476,-0.000
 12877,-0.00004343,-0.00196744,-0.00072389,0.00092608,0.00011607,0.0002
 4215,0.00015746,-0.00021854,0.00079379,0.00040848,0.00048941,-0.000278
 77,-0.00003199,-0.00002568,-0.00000029,0.00000325,-0.00016133,0.000139
 31,0.00002199,0.00008303,-0.00000371,-0.00004892,-0.00009372,-0.000084
 45,-0.00000064,-0.00005518,0.00000195,0.00000601,0.00014943,0.00013631
 ,0.00007042,0.00002365,-0.00000864,0.00001584,-0.00033826,-0.00003200,
 -0.00040886,0.00014166,-0.00001833,0.00011654,0.00006256,0.00002036,0.
 00002623,-0.00002387,-0.00001890,0.00002559,-0.00001626,0.00001705,-0.
 00001616,0.00002163,0.00001312,0.00002891,-0.00000034,-0.00001106,-0.0
 0001279,0.00002398,0.00001974,-0.00000610,0.00000035,-0.00000743,-0.00
 000614,-0.00002808,-0.00002213,-0.00001449,0.00001113,-0.00000129,-0.0
 0000498,0.00004165,0.00003534,0.00001754,0.00000389,-0.00001400,-0.000
 00103,-0.00000568,0.00001200,0.00000030,0.00000934,-0.00001198,-0.0000
 0174,-0.00000060,0.00000365,0.00000341,-0.00000136,-0.00000110,-0.0000
 0059,-0.00000074,0.00000125,-0.00000054,0.00014174,-0.00025107,0.00018
 413,0.00002326,0.00001230,-0.00002253,0.00000578,-0.00001806,0.0000244
 6,0.29892644,0.36401941,-0.00013758,-0.00059873,0.00025873,0.00014619,
 -0.00010559,0.00019142,0.00109410,0.00098552,-0.00198249,0.00037079,-0
 .00187788,-0.00025181,-0.00103122,-0.00079636,0.00049297,0.00056754,0.
 00029395,-0.00024364,-0.00136619,0.00060942,-0.00089828,0.00006127,-0.
 00126431,0.00046835,-0.01246337,-0.01215056,0.01012347,0.00100762,-0.0
 0064376,-0.00005988,-0.00005076,-0.00028556,0.00018098,-0.00131423,-0.
 00514203,-0.00235780,-0.00061981,-0.00134049,0.00410095,-0.00061818,0.
 00246132,-0.00010060,-0.00006188,-0.00008593,-0.00003410,-0.00108403,-
 0.00076133,0.00050786,-0.00006578,0.00007563,0.00000590,-0.00062552,0.
 00068093,0.00030012,0.00041574,-0.00019066,-0.00055769,-0.00008348,0.0
 0000058,0.00011072,-0.00005857,0.00005840,0.00004377,-0.00023714,-0.00
 000722,0.00016245,-0.00006085,-0.00005082,-0.00000053,-0.00004176,0.00
 000055,0.00001342,0.00010278,0.00008636,0.00004453,0.00002535,-0.00000
 654,0.00001950,-0.00024935,0.00003514,-0.00044230,0.00010786,-0.000085
 22,0.00019697,0.00004253,0.00001033,0.00001953,-0.00001339,-0.00001464
 ,0.00000758,-0.00000722,0.00001788,-0.00001746,0.00001740,-0.00000241,
 0.00002226,-0.00000139,-0.00000292,0.00000160,0.00000594,0.00002753,-0
 .00003436,-0.00000065,-0.00000790,-0.00000300,-0.00003492,-0.00001727,
 -0.00001451,0.00000131,0.00000043,-0.00000169,0.00004434,0.00002264,0.
 00001864,-0.00000377,-0.00000574,-0.00000185,0.00001566,-0.00001085,0.
 00003210,-0.00000621,0.00000281,-0.00000240,0.00000104,0.00000051,-0.0
 0000138,0.00000264,-0.00000160,0.00000305,-0.00000077,-0.00000030,-0.0
 0000098,0.00044683,-0.00018365,0.00004129,0.00007299,-0.00006630,-0.00
 001793,-0.00002600,0.00002364,0.00003334,-0.10450147,-0.11195081,0.165
 36457,-0.00139668,-0.00067994,0.00039461,0.00011239,0.00003049,-0.0000
 2108,0.00113036,-0.00016196,-0.00019297,0.00008649,-0.00012125,-0.0005
 6115,-0.00097860,0.00013917,0.00035719,0.00049210,0.00042247,-0.000244
 19,0.00019347,-0.00171922,-0.00134718,0.00090746,0.00014168,-0.0004730
 5,0.01466819,-0.00021446,-0.00495656,-0.00120277,0.00112042,0.00006595
 ,0.00009310,-0.00006018,0.00017328,0.00061052,0.00182967,-0.00108949,-
 0.00014421,-0.00115215,-0.00287192,0.00114915,-0.00171323,-0.00148635,
 -0.00005321,-0.00006063,0.00000565,-0.00061543,0.00017879,0.00028779,0
 .00010550,0.00005016,-0.00013153,-0.00066317,-0.00073522,-0.00048582,0
 .00086028,-0.00028331,0.00009231,-0.00009859,-0.00000793,-0.00002064,-
 0.00004474,0.00007151,-0.00001774,0.00003861,0.00004865,-0.00019091,-0
 .00001076,-0.00000929,-0.00000379,-0.00001939,-0.00000185,-0.00000131,
 0.00002724,0.00004799,0.00004083,0.00001706,-0.00001052,0.00000473,-0.
 00010372,0.00001228,-0.00019233,0.00003243,-0.00001088,0.00009069,0.00
 001314,0.00000307,0.00000733,-0.00000666,0.00000210,0.00000608,-0.0000
 0472,0.00001056,0.00000062,0.00000125,0.00000852,0.00000641,0.00000166
 ,-0.00000592,-0.00000634,0.00001001,-0.00000228,0.00001295,0.00000396,
 -0.00000920,-0.00000385,0.00001067,0.00000179,-0.00000411,0.00000336,-
 0.00000297,-0.00000228,-0.00001004,0.00000246,0.00000310,0.00000629,-0
 .00000340,-0.00000261,-0.00001801,0.00001169,-0.00000666,0.00001704,-0
 .00001231,-0.00000212,-0.00000076,0.00000345,0.00000209,-0.00000081,0.
 00000072,-0.00000101,-0.00000210,-0.00000033,0.00000110,0.00002568,-0.
 00012290,0.00007417,0.00000250,0.00001158,-0.00000597,0.00001165,-0.00
 000496,0.00000404,-0.01109240,-0.03650025,0.06953511,0.10723530,-0.000
 66503,0.00001106,0.00036594,0.00008613,0.00002812,-0.00016873,0.000862
 82,-0.00054207,0.00057473,0.00000182,0.00015593,-0.00099971,-0.0006678
 5,0.00038648,0.00032486,0.00037802,0.00027331,-0.00018270,-0.00049205,
 0.00227724,0.00007652,0.00005398,0.00018144,0.00019005,0.00029151,0.01
 482685,-0.01135679,-0.00028569,0.00154855,-0.00059580,0.00004676,-0.00
 006750,-0.00001684,-0.00005524,-0.00033976,-0.00187581,-0.00198374,-0.
 00172719,-0.00417729,0.00084545,-0.00125372,-0.00095545,-0.00006822,-0
 .00007715,-0.00002891,-0.00131738,-0.00001375,0.00052180,0.00009086,0.
 00013763,0.00000599,0.00059351,-0.00050911,0.00063517,-0.00013940,-0.0
 0011509,-0.00024884,-0.00002109,-0.00000364,0.00005970,-0.00003011,0.0
 0003921,-0.00000944,-0.00002863,-0.00005720,0.00002579,-0.00004066,-0.
 00003701,0.00000017,-0.00001555,0.00000064,0.00000030,0.00006373,0.000
 04956,0.00001749,0.00000333,-0.00000218,0.00000266,-0.00014451,-0.0000
 5759,-0.00003642,0.00008652,0.00003480,-0.00003432,0.00002588,0.000009
 78,0.00000991,-0.00001053,-0.00000690,0.00001115,-0.00000885,0.0000036
 6,-0.00000470,0.00000900,0.00000648,0.00001112,0.00000004,-0.00000474,
 -0.00000646,0.00001026,0.00000727,-0.00000206,-0.00000052,-0.00000180,
 -0.00000224,-0.00001283,-0.00001054,-0.00000509,0.00000494,-0.00000061
 ,-0.00000238,0.00001911,0.00001647,0.00000725,0.00000101,-0.00000647,-
 0.00000062,-0.00000140,0.00000653,-0.00000234,0.00000251,-0.00000494,-
 0.00000050,-0.00000040,0.00000136,0.00000173,-0.00000101,-0.00000072,-
 0.00000021,0.00000018,0.00000079,-0.00000050,-0.00008949,-0.00005945,0
 .00002306,-0.00000669,0.00002182,-0.00000761,0.00001134,-0.00001147,0.
 00000813,-0.03474069,-0.01491014,0.07536128,0.08523851,0.11466452,-0.0
 0047854,-0.00175475,0.00074781,0.00018191,-0.00010590,-0.00009117,0.00
 109195,0.00074083,-0.00149220,-0.00022602,-0.00026812,0.00112278,-0.00
 186209,-0.00035087,0.00076985,0.00092958,0.00055314,-0.00047479,-0.001
 71140,0.00244165,-0.00158629,0.00039923,-0.00161495,0.00014238,0.00562
 951,0.00708747,-0.03898783,0.00109864,-0.00168264,-0.00014063,0.000032
 15,-0.00032996,0.00037723,0.00450035,-0.00531287,-0.00126889,-0.002737
 28,-0.00465132,-0.00550845,0.00069182,0.00414211,-0.00095827,-0.000104
 97,-0.00012887,0.00007508,-0.00222322,-0.00104164,0.00077968,0.0000452
 7,0.00018827,-0.00012968,-0.00276218,0.00420167,0.00046045,0.00088603,
 -0.00038199,-0.00112405,-0.00016510,0.00002118,0.00025220,-0.00017210,
 0.00013041,0.00009457,-0.00066829,-0.00002350,0.00042947,-0.00008865,-
 0.00007245,-0.00000738,-0.00006877,0.00000628,0.00002768,0.00013675,0.
 00012505,0.00006022,0.00004078,-0.00001106,0.00003125,-0.00032548,0.00
 012022,-0.00069346,0.00010817,-0.00016291,0.00034589,0.00006031,0.0000
 1161,0.00002935,-0.00001872,-0.00002414,0.00000667,-0.00000628,0.00003
 060,-0.00003012,0.00002659,-0.00000877,0.00003608,-0.00000264,-0.00000
 311,0.00000722,0.00000221,0.00004804,-0.00006491,-0.00000113,-0.000012
 02,-0.00000491,-0.00006146,-0.00002863,-0.00002426,0.00000016,0.000001
 60,-0.00000193,0.00007364,0.00003433,0.00003100,-0.00000710,-0.0000076
 8,-0.00000301,0.00003174,-0.00002387,0.00006314,-0.00001362,0.00000678
 ,-0.00000519,0.00000256,0.00000099,-0.00000273,0.00000535,-0.00000282,
 0.00000536,-0.00000161,-0.00000081,-0.00000183,0.00046592,-0.00036282,
 0.00017719,0.00006665,-0.00003848,-0.00002368,-0.00001781,0.00002327,0
 .00003535,0.05129318,0.05916296,-0.03223414,-0.13953523,-0.13084215,0.
 59899257,0.00130149,0.00381147,0.00014089,-0.00067416,-0.00029811,-0.0
 0003982,-0.00192230,0.00178441,-0.00088252,-0.00036612,-0.00031646,0.0
 0262940,0.00122780,-0.00072382,-0.00043770,-0.00073918,-0.00072616,0.0
 0035801,0.01469248,0.00132676,0.01094663,-0.00382278,0.00180055,0.0021
 3434,-0.06049511,0.02741870,0.01038790,0.00155776,-0.00102254,0.000031
 12,-0.00004289,0.00043544,-0.00109182,-0.03896383,-0.02518431,-0.02045
 653,-0.00001453,-0.00181901,0.00218195,-0.00267856,0.00526381,-0.00270
 996,0.00021744,0.00008606,-0.00012946,-0.00015005,-0.00055647,0.000948
 39,-0.00020538,0.00014670,0.00058177,0.00677771,-0.00456431,0.00094952
 ,-0.00238473,0.00118699,0.00137295,0.00068989,-0.00015611,-0.00022413,
 0.00028510,-0.00023994,-0.00006883,0.00013041,-0.00008162,-0.00017694,
 -0.00000305,-0.00000171,0.00000284,0.00001514,0.00001024,0.00001711,-0
 .00003220,-0.00010366,-0.00008327,-0.00002878,0.00002687,0.00000087,0.
 00020798,0.00010466,0.00013628,-0.00015572,-0.00007816,-0.00006347,-0.
 00001849,-0.00000765,-0.00000896,0.00001331,-0.00001442,-0.00001139,0.
 00001085,-0.00001521,-0.00001232,0.00000340,-0.00002450,-0.00000718,-0
 .00000566,0.00001413,0.00001838,-0.00002265,0.00001864,-0.00005023,-0.
 00001065,0.00002009,0.00000864,-0.00004007,-0.00001005,0.00000548,-0.0
 0000806,0.00000820,0.00000594,0.00004204,0.00000135,-0.00000048,-0.000
 01685,0.00000706,0.00000642,0.00005182,-0.00003681,0.00003325,-0.00004
 509,0.00003448,0.00000517,0.00000231,-0.00000935,-0.00000698,0.0000038
 9,-0.00000224,0.00000380,0.00000451,0.00000004,-0.00000277,0.00022788,
 0.00014569,-0.00008259,0.00002200,-0.00007047,-0.00000380,-0.00003115,
 -0.00001283,-0.00000614,-0.26668816,-0.23315884,0.05068047,-0.11140007
 ,-0.04789968,0.08545933,0.46348100,-0.00237959,-0.00021089,0.00106845,
 -0.00033225,0.00012088,0.00150373,-0.00064624,0.00282851,-0.00315131,0
 .00021101,-0.00045908,0.00237948,0.00051682,-0.00099778,-0.00031033,-0
 .00045372,-0.00027765,0.00019204,0.00240260,-0.03775016,-0.02203741,0.
 00149204,0.00160920,-0.00260752,0.02313055,-0.03710112,0.02098613,0.00
 092435,-0.00520142,0.00189452,0.00010288,0.00035849,0.00034515,-0.0258
 2222,-0.00781329,0.00199757,0.00498939,0.00519405,0.01212381,-0.001071
 91,0.00730610,-0.00198677,0.00013361,0.00016985,-0.00011808,0.00304557
 ,0.00014060,-0.00110269,-0.00014178,-0.00032467,0.00001202,0.00195023,
 0.00125392,-0.00088643,-0.00037796,0.00064568,0.00046122,0.00017060,-0
 .00008636,-0.00010477,0.00019015,-0.00017777,-0.00002918,-0.00008014,-
 0.00005060,0.00000976,0.00003560,0.00002993,-0.00000107,0.00001282,0.0
 0000882,0.00001249,-0.00007278,-0.00007929,-0.00004373,-0.00001295,0.0
 0001535,0.00000287,0.00023800,0.00014457,-0.00001814,-0.00016505,-0.00
 012316,0.00006738,-0.00002925,-0.00001334,-0.00001150,0.00001705,-0.00
 000527,-0.00001832,0.00001793,-0.00000758,-0.00000821,-0.00000479,-0.0
 0002295,-0.00000977,-0.00000372,0.00001315,0.00001872,-0.00002425,0.00
 000924,-0.00003237,-0.00000552,0.00001169,0.00000667,-0.00001745,0.000
 00242,0.00000504,-0.00000992,0.00000624,0.00000583,0.00001124,-0.00001
 316,-0.00000612,-0.00001037,0.00000985,0.00000538,0.00003603,-0.000031
 60,0.00002907,-0.00003135,0.00002581,0.00000246,0.00000251,-0.00000654
 ,-0.00000583,0.00000382,-0.00000081,0.00000255,0.00000220,-0.00000052,
 -0.00000147,0.00027021,0.00005939,-0.00001177,0.00002044,-0.00007098,-
 0.00000419,-0.00002452,-0.00001335,-0.00002431,-0.23591077,-0.33187242
 ,0.05690253,-0.04578124,-0.11486875,0.07017064,0.27348208,0.51761676,-
 0.00289978,0.00120465,0.00109661,-0.00063367,0.00028380,0.00054729,-0.
 00033335,-0.00029711,0.00086464,0.00086550,0.00078415,-0.00192677,0.00
 199696,0.00068818,-0.00091550,-0.00111507,-0.00056083,0.00050549,0.014
 53241,-0.02433462,-0.00213200,0.00001001,0.00629609,-0.00249926,0.0254
 6432,0.04061711,-0.03888667,-0.00259438,0.00031821,0.00107681,0.000224
 45,0.00102687,-0.00103419,-0.02436098,0.00521619,0.01177341,-0.0143122
 5,-0.01806861,-0.03290112,0.00200846,-0.00162220,-0.00291682,0.0002407
 1,0.00025568,0.00000469,0.00262347,0.00181448,-0.00127324,0.00017740,-
 0.00015841,0.00004252,0.00633719,-0.00568664,-0.00145712,-0.00172658,0
 .00101084,0.00225863,0.00052862,-0.00010463,-0.00050392,0.00030027,-0.
 00023306,-0.00022901,0.00106758,-0.00002642,-0.00078823,0.00012530,0.0
 0010211,0.00000447,0.00009053,-0.00000485,-0.00003647,-0.00020181,-0.0
 0017851,-0.00007428,-0.00005654,0.00001610,-0.00004186,0.00051800,-0.0
 0010842,0.00087862,-0.00024132,0.00019136,-0.00043850,-0.00008629,-0.0
 0001739,-0.00003865,0.00002731,0.00003159,-0.00001365,0.00001514,-0.00
 004092,0.00003705,-0.00003792,0.00000809,-0.00004650,0.00000351,0.0000
 0541,-0.00000704,-0.00000794,-0.00006274,0.00008402,0.00000118,0.00001
 801,0.00000687,0.00007829,0.00003763,0.00003260,-0.00000119,-0.0000009
 9,0.00000285,-0.00009924,-0.00004608,-0.00004330,0.00001083,0.00000993
 ,0.00000537,-0.00003736,0.00002857,-0.00007948,0.00001419,-0.00000753,
 0.00000612,-0.00000236,-0.00000129,0.00000380,-0.00000696,0.00000358,-
 0.00000781,0.00000208,0.00000122,0.00000189,-0.00068148,0.00045349,-0.
 00010298,-0.00012145,0.00007812,0.00002810,0.00001928,-0.00006219,-0.0
 0007513,0.05207232,0.05546709,-0.14350729,0.08269212,0.07332913,-0.520
 24072,-0.14248956,-0.13767424,0.73295574\\-0.00000052,0.00000020,0.000
 00003,0.00000021,0.00000011,-0.00000034,0.00000029,0.00000049,-0.00000
 012,-0.00000039,0.00000041,0.00000070,-0.00000026,0.00000092,0.0000002
 0,-0.00000037,0.00000066,0.00000042,0.00000036,0.00000014,0.00000003,0
 .00000006,-0.00000064,-0.00000009,0.00000023,0.00000021,0.00000186,0.0
 0000015,-0.00000100,-0.00000061,0.00000034,-0.00000042,-0.00000055,-0.
 00000121,-0.00000015,-0.00000017,-0.00000054,0.00000004,0.00000071,0.0
 0000069,-0.00000111,0.00000021,0.00000024,-0.00000092,-0.00000051,-0.0
 0000043,-0.00000104,0.00000118,0.00000029,-0.00000106,0.00000028,0.000
 00078,-0.00000127,0.00000063,0.00000022,-0.00000077,0.00000255,-0.0000
 0001,-0.00000107,0.00000093,-0.00000010,-0.00000102,0.00000209,-0.0000
 0009,-0.00000100,0.00000122,-0.00000007,0.00000052,-0.00000052,-0.0000
 0014,0.00000080,-0.00000031,0.00000001,0.00000020,-0.00000077,0.000000
 44,0.00000013,-0.00000080,0.00000036,0.00000057,-0.00000114,0.00000003
 ,-0.00000014,-0.00000081,-0.00000009,0.00000064,-0.00000039,-0.0000002
 6,0.00000072,0.00000009,0.00000002,0.00000026,-0.00000056,-0.00000035,
 0.00000087,-0.00000007,-0.00000028,0.00000124,0.00000017,0.00000002,0.
 00000031,-0.00000056,0.00000006,-0.00000014,-0.00000093,0.,0.00000046,
 -0.00000024,-0.00000047,0.00000051,0.00000014,0.00000016,0.00000116,0.
 00000006,-0.00000027,0.00000071,0.00000001,0.00000019,-0.00000013,-0.0
 0000045,0.00000039,0.00000006,-0.00000113,0.00000021,0.00000017,-0.000
 00152,0.00000046,-0.00000051,-0.00000137,0.00000021,0.00000016,-0.0000
 0102,-0.00000012,0.00000066,-0.00000032,-0.00000011,0.00000107,-0.0000
 0065,-0.00000020,0.00000064,-0.00000031,-0.00000049,-0.00000098,0.0000
 0086,-0.00000016,-0.00000093,0.00000126,0.00000049,-0.00000074,0.00000
 064\\\@


 Not by the face shall a man be known, but by the mask.
                               -- Karen Blixen
 Job cpu time:       0 days  2 hours 39 minutes 37.5 seconds.
 Elapsed time:       0 days  2 hours 39 minutes 50.7 seconds.
 File lengths (MBytes):  RWF=   3736 Int=      0 D2E=      0 Chk=     69 Scr=      1
 Normal termination of Gaussian 16 at Mon Nov  4 16:50:09 2024.
