
                                 *****************
                                 * O   R   C   A *
                                 *****************

                                            #,                                       
                                            ###                                      
                                            ####                                     
                                            #####                                    
                                            ######                                   
                                           ########,                                 
                                     ,,################,,,,,                         
                               ,,#################################,,                 
                          ,,##########################################,,             
                       ,#########################################, ''#####,          
                    ,#############################################,,   '####,        
                  ,##################################################,,,,####,       
                ,###########''''           ''''###############################       
              ,#####''   ,,,,##########,,,,          '''####'''          '####       
            ,##' ,,,,###########################,,,                        '##       
           ' ,,###''''                  '''############,,,                           
         ,,##''                                '''############,,,,        ,,,,,,###''
      ,#''                                            '''#######################'''  
     '                                                          ''''####''''         
             ,#######,   #######,   ,#######,      ##                                
            ,#'     '#,  ##    ##  ,#'     '#,    #''#        ,####,   ,####,        
            ##       ##  ##   ,#'  ##            #'  '#       #'       #'  '#        
            ##       ##  #######   ##           ,######,      #####,   #    #        
            '#,     ,#'  ##    ##  '#,     ,#' ,#      #,     #,   #   #,  ,#        
             '#######'   ##     ##  '#######'  #'      '#     '####' # '####'        



                #########################################################
                #                        -***-                          #
                #          Department of theory and spectroscopy        #
                #                                                       #
                #                      Frank Neese                      #
                #                                                       #
                #     Directorship, Architecture, Infrastructure        #
                #                    SHARK, DRIVERS                     #
                #        Core code/Algorithms in most modules           #
                #                                                       #
                #        Max Planck Institute fuer Kohlenforschung      #
                #                Kaiser Wilhelm Platz 1                 #
                #                 D-45470 Muelheim/Ruhr                 #
                #                      Germany                          #
                #                                                       #
                #                  All rights reserved                  #
                #                        -***-                          #
                #########################################################


                         Program Version 6.0.1  -  RELEASE   -


 With contributions from (in alphabetic order):
[Max-Planck-Institut fuer Kohlenforschung]                               
  Daniel Aravena         : Magnetic Suceptibility                        
  Michael Atanasov       : Ab Initio Ligand Field Theory (pilot matlab implementation)
  Alexander A. Auer      : GIAO ZORA, VPT2 properties, NMR spectrum      
  Ute Becker             : All parallelization in ORCA, NUMFREQ, NUMCALC 
  Giovanni Bistoni       : ED, misc. LED, open-shell LED, HFLD           
  Martin Brehm           : Molecular dynamics                            
  Dmytro Bykov           : pre 5.0 version of the SCF Hessian            
  Marcos Casanova-Páez   : Triplet and SCS-CIS(D). UHF-(DLPNO)-IP/EA/STEOM-CCSD. UHF-CVS-IP/STEOM-CCSD   
  Vijay G. Chilkuri      : MRCI spin determinant printing, contributions to CSF-ICE 
  Pauline Colinet        : FMM embedding                                 
  Dipayan Datta          : RHF DLPNO-CCSD density                        
  Achintya Kumar Dutta   : EOM-CC, STEOM-CC                              
  Nicolas Foglia         : Exact transition moments, OPA infrastructure, MCD improvements    
  Dmitry Ganyushin       : Spin-Orbit,Spin-Spin,Magnetic field MRCI      
  Miquel Garcia-Rates    : C-PCM and meta-GGA Hessian, CCSD/C-PCM, Gaussian charge scheme 
  Tiago L. C. Gouveia    : GS-ROHF, GS-ROCIS                             
  Yang Guo               : DLPNO-NEVPT2, F12-NEVPT2, CIM, IAO-localization        
  Andreas Hansen         : Spin unrestricted coupled pair/coupled cluster methods 
  Ingolf Harden          : AUTO-CI MPn and infrastructure                
  Benjamin Helmich-Paris : MC-RPA, TRAH-(SCF,CASSCF), AVAS, COSX integrals, SCF dyn. polar. 
  Lee Huntington         : MR-EOM, pCC                                   
  Robert Izsak           : Overlap fitted RIJCOSX, COSX-SCS-MP3, EOM     
  Riya Kayal             : Wick's Theorem for AUTO-CI, AUTO-CI UHF-CCSDT 
  Emily Kempfer          : AUTO-CI, RHF CISDT and CCSDT                  
  Christian Kollmar      : KDIIS, OOCD, Brueckner-CCSD(T), CCSD density, CASPT2, CASPT2-K, improved NEVPT2 
  Axel Koslowski         : Symmetry handling                             
  Simone Kossmann        : meta-GGA functionals, TD-DFT gradient, OOMP2, (MP2 Hessian; deprecated post 5.0) 
  Lucas Lang             : DCDCAS                                        
  Marvin Lechner         : AUTO-CI (C++ implementation), FIC-MRCC        
  Spencer Leger          : CASSCF response                               
  Dagmar Lenk            : GEPOL surface, SMD, ORCA-2-JSON               
  Dimitrios Liakos       : Extrapolation schemes; Compound Job, initial MDCI parallelization 
  Dimitrios Manganas     : Further ROCIS development; embedding schemes. LFT, Crystal Embedding 
  Dimitrios Pantazis     : SARC Basis sets                               
  Anastasios Papadopoulos: AUTO-CI, single reference methods and gradients 
  Taras Petrenko         : pre 6.0 DFT Hessian and TD-DFT gradient, (ASA, deprecated), ECA, 1-Electron XAS/XES, NRVS 
  Peter Pinski           : DLPNO-MP2, DLPNO-MP2 Gradient                 
  Christoph Reimann      : Effective Core Potentials                     
  Marius Retegan         : Local ZFS, SOC                                
  Christoph Riplinger    : Optimizer, TS searches, QM/MM, DLPNO-CCSD(T), (RO)-DLPNO pert. Triples 
  Michael Roemelt        : Original ROCIS implementation                 
  Masaaki Saitow         : Open-shell DLPNO-CCSD energy and density      
  Barbara Sandhoefer     : DKH picture change effects                    
  Kantharuban Sivalingam : CASSCF convergence/infrastructure, NEVPT2 and variants, FIC-MRCI 
  Bernardo de Souza      : ESD, SOC TD-DFT                               
  Georgi L. Stoychev     : AutoAux, RI-MP2 NMR, DLPNO-MP2 response, X2C  
  Van Anh Tran           : RI-MP2 g-tensors                              
  Willem Van den Heuvel  : Paramagnetic NMR                              
  Zikuan Wang            : NOTCH, Electric field optimization            
  Frank Wennmohs         : Technical directorship and infrastructure     
  Hang Xu                : AUTO-CI-Response properties                   
                                                                         
[FACCTs GmbH]                                                            
  Markus Bursch, Miquel Garcia-Rates, Christoph Riplinger, Bernardo de Souza, Georgi L. Stoychev 
                                                                 
  APM, Basis sets (HGBS, AHGBS, def-TZVP (Ac-Lr), def2-XVPD (La-Lu)), CI-OPT, improved COSX, DLPNO-Multilevel,           
  DOCKER, DRACO, updates on ESD, GOAT, IRC, LR-CPCM, MBIS, meta-GGA TD-DFT gradient, ML-optimized integration grids, 
  MM, NACMEs, nearIR, NEB, NEB-TS, NL-DFT gradient (VV10), 2- and 3-layer-ONIOM, interface openCOSMO-RS, QMMM,   
  Crystal-QMMM, SF, symmetry and pop. for TD-DFT, r2SCAN hybrids, SOLVATOR                                   
                                                                         
[Other institutions]                                                     
  V. Asgeirsson          : NEB                                           
  Christoph Bannwarth    : sTDA-DFT, sTD-DFT, PBEh-3c, B97-3c, D3        
  Sebastian Ehlert       : rSCAN, r2SCAN, r2SCAN-3c, D4, dhf basis sets  
  Marvin Friede          : D4 for Fr, Ra, Ac-Lr                          
  Lars Goerigk           : TD-DFT with DH, B97 family of functionals     
  Stefan Grimme          : VdW corrections, initial TS optimization, DFT functionals, gCP, sTDA/sTD-DF 
  Waldemar Hujo          : DFT-NL                                        
  H. Jonsson             : NEB                                           
  Holger Kruse           : gCP                                           
  Marcel Mueller         : wB97X-3c, vDZP basis set                      
  Hagen Neugebauer       : wr2SCAN                                       
  Tobias Risthaus        : range-separated hybrid DFT                    
  Lukas Wittmann         : regularized MP2, r2SCAN double-hybrids, wr2SCAN        
                                                                         
We gratefully acknowledge several colleagues who have allowed us to      
interface, adapt or use parts of their codes:                            
  Ed Valeev, F. Pavosevic, A. Kumar             : LibInt (2-el integral package), F12 methods 
  Garnet Chan, S. Sharma, J. Yang, R. Olivares  : DMRG                   
  Ulf Ekstrom                                   : XCFun DFT Library      
  Mihaly Kallay                                 : mrcc  (arbitrary order and MRCC methods)
  Frank Weinhold                                : gennbo (NPA and NBO analysis)           
  Simon Mueller                                 : openCOSMO-RS                            
  Christopher J. Cramer and Donald G. Truhlar   : smd solvation model                     
  S Lehtola, MJT Oliveira, MAL Marques          : LibXC Library                           
  Liviu Ungur et al                             : ANISO software                          


 Your calculation uses the libint2 library for the computation of 2-el integrals
 For citations please refer to: http://libint.valeyev.net

 Your ORCA version has been built with support for libXC version: 6.2.2
 For citations please refer to: https://libxc.gitlab.io

 This ORCA versions uses:
   CBLAS   interface :  Fast vector & matrix operations
   LAPACKE interface :  Fast linear algebra routines
   SCALAPACK package :  Parallel linear algebra routines
   Shared memory     :  Shared parallel matrices
   BLAS/LAPACK       :  OpenBLAS 0.3.27  USE64BITINT DYNAMIC_ARCH NO_AFFINITY Cooperlake SINGLE_THREADED
        Core in use  :  Cooperlake
   Copyright (c) 2011-2014, The OpenBLAS Project




***************************************
The coordinates will be read from file: CURCUMIN-OPT-FREQ-TS2-WB97M-V-6-311+G-D-298.xyz
***************************************


================================================================================

----- Orbital basis set information -----
Your calculation utilizes the basis: def2-SVP
   F. Weigend and R. Ahlrichs, Phys. Chem. Chem. Phys. 7, 3297 (2005).

================================================================================
                                        WARNINGS
                       Please study these warnings very carefully!
================================================================================

INFO   : Found keyword 'PrintThermoChem'
  ===> : The value for Final Gibbs free enthalpy does not include the electronic energy.
       : Use G-E(el) and the individual components of the thermochemical correction instead.

WARNING: your system is open-shell and RHF/RKS was chosen
  ===> : WILL SWITCH to UHF/UKS


================================================================================
                                       INPUT FILE
================================================================================
NAME = test-363.inp
|  1> !PRINTTHERMOCHEM
|  2> %cpcm
|  3> epsilon 7 # Dielectric constant
|  4> refrac 1.85341 # Refractive index
|  5> end
|  6> %GEOM
|  7>          INHESSNAME "CURCUMIN-OPT-FREQ-TS2-WB97M-V-6-311+G-D-298.hess"
|  8> END
|  9> % FREQ TEMP 298.15, 363.15
| 10> END
| 11> * XYZFILE 0 2 CURCUMIN-OPT-FREQ-TS2-WB97M-V-6-311+G-D-298.xyz
| 12> 
| 13> 
| 14>                          ****END OF INPUT****
================================================================================

                       ****************************
                       * THERMOCHEMISTRY ANALYSIS *
                       ****************************


----------------------------------------------------------------------------
                           ORCA THERMOCHEMISTRY ANALYSIS
----------------------------------------------------------------------------

Retrieving Hessian from file   ... CURCUMIN-OPT-FREQ-TS2-WB97M-V-6-311+G-D-298.hess

Number of atoms                ... 50
IR-spectrum generation         ... on

-----------------------
VIBRATIONAL FREQUENCIES
-----------------------

Scaling factor for frequencies =  1.000000000  (already applied!)

     0:       0.00 cm**-1
     1:       0.00 cm**-1
     2:       0.00 cm**-1
     3:       0.00 cm**-1
     4:       0.00 cm**-1
     5:       0.00 cm**-1
     6:   -1738.59 cm**-1  ***imaginary mode***
     7:       8.13 cm**-1
     8:      20.53 cm**-1
     9:      23.48 cm**-1
    10:      29.30 cm**-1
    11:      31.79 cm**-1
    12:      47.61 cm**-1
    13:      49.70 cm**-1
    14:      54.62 cm**-1
    15:      61.82 cm**-1
    16:      71.65 cm**-1
    17:      84.51 cm**-1
    18:      88.66 cm**-1
    19:     105.88 cm**-1
    20:     114.73 cm**-1
    21:     131.82 cm**-1
    22:     134.88 cm**-1
    23:     143.88 cm**-1
    24:     150.96 cm**-1
    25:     156.06 cm**-1
    26:     171.77 cm**-1
    27:     173.31 cm**-1
    28:     177.56 cm**-1
    29:     199.59 cm**-1
    30:     208.80 cm**-1
    31:     213.96 cm**-1
    32:     251.64 cm**-1
    33:     299.91 cm**-1
    34:     300.48 cm**-1
    35:     317.27 cm**-1
    36:     320.24 cm**-1
    37:     335.28 cm**-1
    38:     338.36 cm**-1
    39:     380.68 cm**-1
    40:     388.50 cm**-1
    41:     395.53 cm**-1
    42:     397.86 cm**-1
    43:     403.52 cm**-1
    44:     421.05 cm**-1
    45:     467.89 cm**-1
    46:     474.60 cm**-1
    47:     500.66 cm**-1
    48:     504.22 cm**-1
    49:     539.97 cm**-1
    50:     557.80 cm**-1
    51:     566.66 cm**-1
    52:     577.38 cm**-1
    53:     592.55 cm**-1
    54:     595.06 cm**-1
    55:     611.72 cm**-1
    56:     627.72 cm**-1
    57:     647.66 cm**-1
    58:     677.28 cm**-1
    59:     713.72 cm**-1
    60:     719.45 cm**-1
    61:     754.00 cm**-1
    62:     756.32 cm**-1
    63:     771.27 cm**-1
    64:     772.05 cm**-1
    65:     818.10 cm**-1
    66:     820.55 cm**-1
    67:     822.12 cm**-1
    68:     834.49 cm**-1
    69:     836.79 cm**-1
    70:     863.50 cm**-1
    71:     876.94 cm**-1
    72:     902.50 cm**-1
    73:     919.65 cm**-1
    74:     921.28 cm**-1
    75:     927.09 cm**-1
    76:     964.08 cm**-1
    77:     967.75 cm**-1
    78:     969.11 cm**-1
    79:     973.91 cm**-1
    80:     987.89 cm**-1
    81:    1012.31 cm**-1
    82:    1019.25 cm**-1
    83:    1055.85 cm**-1
    84:    1056.38 cm**-1
    85:    1091.67 cm**-1
    86:    1143.13 cm**-1
    87:    1144.06 cm**-1
    88:    1168.22 cm**-1
    89:    1175.58 cm**-1
    90:    1175.93 cm**-1
    91:    1187.80 cm**-1
    92:    1189.29 cm**-1
    93:    1202.77 cm**-1
    94:    1204.12 cm**-1
    95:    1220.97 cm**-1
    96:    1222.45 cm**-1
    97:    1248.83 cm**-1
    98:    1272.55 cm**-1
    99:    1281.64 cm**-1
   100:    1288.75 cm**-1
   101:    1293.26 cm**-1
   102:    1296.61 cm**-1
   103:    1311.81 cm**-1
   104:    1313.81 cm**-1
   105:    1320.89 cm**-1
   106:    1330.43 cm**-1
   107:    1362.36 cm**-1
   108:    1365.12 cm**-1
   109:    1378.94 cm**-1
   110:    1380.44 cm**-1
   111:    1381.29 cm**-1
   112:    1465.52 cm**-1
   113:    1466.39 cm**-1
   114:    1483.88 cm**-1
   115:    1484.52 cm**-1
   116:    1492.53 cm**-1
   117:    1493.61 cm**-1
   118:    1494.48 cm**-1
   119:    1494.88 cm**-1
   120:    1558.69 cm**-1
   121:    1559.79 cm**-1
   122:    1661.46 cm**-1
   123:    1662.15 cm**-1
   124:    1669.45 cm**-1
   125:    1673.55 cm**-1
   126:    1682.23 cm**-1
   127:    1702.71 cm**-1
   128:    1705.13 cm**-1
   129:    1712.44 cm**-1
   130:    1730.47 cm**-1
   131:    3045.13 cm**-1
   132:    3045.62 cm**-1
   133:    3120.03 cm**-1
   134:    3120.98 cm**-1
   135:    3138.52 cm**-1
   136:    3164.28 cm**-1
   137:    3166.04 cm**-1
   138:    3166.49 cm**-1
   139:    3171.71 cm**-1
   140:    3181.61 cm**-1
   141:    3183.35 cm**-1
   142:    3189.72 cm**-1
   143:    3194.86 cm**-1
   144:    3196.88 cm**-1
   145:    3198.52 cm**-1
   146:    3206.25 cm**-1
   147:    3206.38 cm**-1
   148:    3798.34 cm**-1
   149:    3800.26 cm**-1


------------
NORMAL MODES
------------

These modes are the Cartesian displacements weighted by the diagonal matrix
M(i,i)=1/sqrt(m[i]) where m[i] is the mass of the displaced atom
Thus, these vectors are normalized but *not* orthogonal

                  0          1          2          3          4          5    
      0       0.000000   0.000000   0.000000   0.000000   0.000000   0.000000
      1       0.000000   0.000000   0.000000   0.000000   0.000000   0.000000
      2       0.000000   0.000000   0.000000   0.000000   0.000000   0.000000
      3       0.000000   0.000000   0.000000   0.000000   0.000000   0.000000
      4       0.000000   0.000000   0.000000   0.000000   0.000000   0.000000
      5       0.000000   0.000000   0.000000   0.000000   0.000000   0.000000
      6       0.000000   0.000000   0.000000   0.000000   0.000000   0.000000
      7       0.000000   0.000000   0.000000   0.000000   0.000000   0.000000
      8       0.000000   0.000000   0.000000   0.000000   0.000000   0.000000
      9       0.000000   0.000000   0.000000   0.000000   0.000000   0.000000
     10       0.000000   0.000000   0.000000   0.000000   0.000000   0.000000
     11       0.000000   0.000000   0.000000   0.000000   0.000000   0.000000
     12       0.000000   0.000000   0.000000   0.000000   0.000000   0.000000
     13       0.000000   0.000000   0.000000   0.000000   0.000000   0.000000
     14       0.000000   0.000000   0.000000   0.000000   0.000000   0.000000
     15       0.000000   0.000000   0.000000   0.000000   0.000000   0.000000
     16       0.000000   0.000000   0.000000   0.000000   0.000000   0.000000
     17       0.000000   0.000000   0.000000   0.000000   0.000000   0.000000
     18       0.000000   0.000000   0.000000   0.000000   0.000000   0.000000
     19       0.000000   0.000000   0.000000   0.000000   0.000000   0.000000
     20       0.000000   0.000000   0.000000   0.000000   0.000000   0.000000
     21       0.000000   0.000000   0.000000   0.000000   0.000000   0.000000
     22       0.000000   0.000000   0.000000   0.000000   0.000000   0.000000
     23       0.000000   0.000000   0.000000   0.000000   0.000000   0.000000
     24       0.000000   0.000000   0.000000   0.000000   0.000000   0.000000
     25       0.000000   0.000000   0.000000   0.000000   0.000000   0.000000
     26       0.000000   0.000000   0.000000   0.000000   0.000000   0.000000
     27       0.000000   0.000000   0.000000   0.000000   0.000000   0.000000
     28       0.000000   0.000000   0.000000   0.000000   0.000000   0.000000
     29       0.000000   0.000000   0.000000   0.000000   0.000000   0.000000
     30       0.000000   0.000000   0.000000   0.000000   0.000000   0.000000
     31       0.000000   0.000000   0.000000   0.000000   0.000000   0.000000
     32       0.000000   0.000000   0.000000   0.000000   0.000000   0.000000
     33       0.000000   0.000000   0.000000   0.000000   0.000000   0.000000
     34       0.000000   0.000000   0.000000   0.000000   0.000000   0.000000
     35       0.000000   0.000000   0.000000   0.000000   0.000000   0.000000
     36       0.000000   0.000000   0.000000   0.000000   0.000000   0.000000
     37       0.000000   0.000000   0.000000   0.000000   0.000000   0.000000
     38       0.000000   0.000000   0.000000   0.000000   0.000000   0.000000
     39       0.000000   0.000000   0.000000   0.000000   0.000000   0.000000
     40       0.000000   0.000000   0.000000   0.000000   0.000000   0.000000
     41       0.000000   0.000000   0.000000   0.000000   0.000000   0.000000
     42       0.000000   0.000000   0.000000   0.000000   0.000000   0.000000
     43       0.000000   0.000000   0.000000   0.000000   0.000000   0.000000
     44       0.000000   0.000000   0.000000   0.000000   0.000000   0.000000
     45       0.000000   0.000000   0.000000   0.000000   0.000000   0.000000
     46       0.000000   0.000000   0.000000   0.000000   0.000000   0.000000
     47       0.000000   0.000000   0.000000   0.000000   0.000000   0.000000
     48       0.000000   0.000000   0.000000   0.000000   0.000000   0.000000
     49       0.000000   0.000000   0.000000   0.000000   0.000000   0.000000
     50       0.000000   0.000000   0.000000   0.000000   0.000000   0.000000
     51       0.000000   0.000000   0.000000   0.000000   0.000000   0.000000
     52       0.000000   0.000000   0.000000   0.000000   0.000000   0.000000
     53       0.000000   0.000000   0.000000   0.000000   0.000000   0.000000
     54       0.000000   0.000000   0.000000   0.000000   0.000000   0.000000
     55       0.000000   0.000000   0.000000   0.000000   0.000000   0.000000
     56       0.000000   0.000000   0.000000   0.000000   0.000000   0.000000
     57       0.000000   0.000000   0.000000   0.000000   0.000000   0.000000
     58       0.000000   0.000000   0.000000   0.000000   0.000000   0.000000
     59       0.000000   0.000000   0.000000   0.000000   0.000000   0.000000
     60       0.000000   0.000000   0.000000   0.000000   0.000000   0.000000
     61       0.000000   0.000000   0.000000   0.000000   0.000000   0.000000
     62       0.000000   0.000000   0.000000   0.000000   0.000000   0.000000
     63       0.000000   0.000000   0.000000   0.000000   0.000000   0.000000
     64       0.000000   0.000000   0.000000   0.000000   0.000000   0.000000
     65       0.000000   0.000000   0.000000   0.000000   0.000000   0.000000
     66       0.000000   0.000000   0.000000   0.000000   0.000000   0.000000
     67       0.000000   0.000000   0.000000   0.000000   0.000000   0.000000
     68       0.000000   0.000000   0.000000   0.000000   0.000000   0.000000
     69       0.000000   0.000000   0.000000   0.000000   0.000000   0.000000
     70       0.000000   0.000000   0.000000   0.000000   0.000000   0.000000
     71       0.000000   0.000000   0.000000   0.000000   0.000000   0.000000
     72       0.000000   0.000000   0.000000   0.000000   0.000000   0.000000
     73       0.000000   0.000000   0.000000   0.000000   0.000000   0.000000
     74       0.000000   0.000000   0.000000   0.000000   0.000000   0.000000
     75       0.000000   0.000000   0.000000   0.000000   0.000000   0.000000
     76       0.000000   0.000000   0.000000   0.000000   0.000000   0.000000
     77       0.000000   0.000000   0.000000   0.000000   0.000000   0.000000
     78       0.000000   0.000000   0.000000   0.000000   0.000000   0.000000
     79       0.000000   0.000000   0.000000   0.000000   0.000000   0.000000
     80       0.000000   0.000000   0.000000   0.000000   0.000000   0.000000
     81       0.000000   0.000000   0.000000   0.000000   0.000000   0.000000
     82       0.000000   0.000000   0.000000   0.000000   0.000000   0.000000
     83       0.000000   0.000000   0.000000   0.000000   0.000000   0.000000
     84       0.000000   0.000000   0.000000   0.000000   0.000000   0.000000
     85       0.000000   0.000000   0.000000   0.000000   0.000000   0.000000
     86       0.000000   0.000000   0.000000   0.000000   0.000000   0.000000
     87       0.000000   0.000000   0.000000   0.000000   0.000000   0.000000
     88       0.000000   0.000000   0.000000   0.000000   0.000000   0.000000
     89       0.000000   0.000000   0.000000   0.000000   0.000000   0.000000
     90       0.000000   0.000000   0.000000   0.000000   0.000000   0.000000
     91       0.000000   0.000000   0.000000   0.000000   0.000000   0.000000
     92       0.000000   0.000000   0.000000   0.000000   0.000000   0.000000
     93       0.000000   0.000000   0.000000   0.000000   0.000000   0.000000
     94       0.000000   0.000000   0.000000   0.000000   0.000000   0.000000
     95       0.000000   0.000000   0.000000   0.000000   0.000000   0.000000
     96       0.000000   0.000000   0.000000   0.000000   0.000000   0.000000
     97       0.000000   0.000000   0.000000   0.000000   0.000000   0.000000
     98       0.000000   0.000000   0.000000   0.000000   0.000000   0.000000
     99       0.000000   0.000000   0.000000   0.000000   0.000000   0.000000
    100       0.000000   0.000000   0.000000   0.000000   0.000000   0.000000
    101       0.000000   0.000000   0.000000   0.000000   0.000000   0.000000
    102       0.000000   0.000000   0.000000   0.000000   0.000000   0.000000
    103       0.000000   0.000000   0.000000   0.000000   0.000000   0.000000
    104       0.000000   0.000000   0.000000   0.000000   0.000000   0.000000
    105       0.000000   0.000000   0.000000   0.000000   0.000000   0.000000
    106       0.000000   0.000000   0.000000   0.000000   0.000000   0.000000
    107       0.000000   0.000000   0.000000   0.000000   0.000000   0.000000
    108       0.000000   0.000000   0.000000   0.000000   0.000000   0.000000
    109       0.000000   0.000000   0.000000   0.000000   0.000000   0.000000
    110       0.000000   0.000000   0.000000   0.000000   0.000000   0.000000
    111       0.000000   0.000000   0.000000   0.000000   0.000000   0.000000
    112       0.000000   0.000000   0.000000   0.000000   0.000000   0.000000
    113       0.000000   0.000000   0.000000   0.000000   0.000000   0.000000
    114       0.000000   0.000000   0.000000   0.000000   0.000000   0.000000
    115       0.000000   0.000000   0.000000   0.000000   0.000000   0.000000
    116       0.000000   0.000000   0.000000   0.000000   0.000000   0.000000
    117       0.000000   0.000000   0.000000   0.000000   0.000000   0.000000
    118       0.000000   0.000000   0.000000   0.000000   0.000000   0.000000
    119       0.000000   0.000000   0.000000   0.000000   0.000000   0.000000
    120       0.000000   0.000000   0.000000   0.000000   0.000000   0.000000
    121       0.000000   0.000000   0.000000   0.000000   0.000000   0.000000
    122       0.000000   0.000000   0.000000   0.000000   0.000000   0.000000
    123       0.000000   0.000000   0.000000   0.000000   0.000000   0.000000
    124       0.000000   0.000000   0.000000   0.000000   0.000000   0.000000
    125       0.000000   0.000000   0.000000   0.000000   0.000000   0.000000
    126       0.000000   0.000000   0.000000   0.000000   0.000000   0.000000
    127       0.000000   0.000000   0.000000   0.000000   0.000000   0.000000
    128       0.000000   0.000000   0.000000   0.000000   0.000000   0.000000
    129       0.000000   0.000000   0.000000   0.000000   0.000000   0.000000
    130       0.000000   0.000000   0.000000   0.000000   0.000000   0.000000
    131       0.000000   0.000000   0.000000   0.000000   0.000000   0.000000
    132       0.000000   0.000000   0.000000   0.000000   0.000000   0.000000
    133       0.000000   0.000000   0.000000   0.000000   0.000000   0.000000
    134       0.000000   0.000000   0.000000   0.000000   0.000000   0.000000
    135       0.000000   0.000000   0.000000   0.000000   0.000000   0.000000
    136       0.000000   0.000000   0.000000   0.000000   0.000000   0.000000
    137       0.000000   0.000000   0.000000   0.000000   0.000000   0.000000
    138       0.000000   0.000000   0.000000   0.000000   0.000000   0.000000
    139       0.000000   0.000000   0.000000   0.000000   0.000000   0.000000
    140       0.000000   0.000000   0.000000   0.000000   0.000000   0.000000
    141       0.000000   0.000000   0.000000   0.000000   0.000000   0.000000
    142       0.000000   0.000000   0.000000   0.000000   0.000000   0.000000
    143       0.000000   0.000000   0.000000   0.000000   0.000000   0.000000
    144       0.000000   0.000000   0.000000   0.000000   0.000000   0.000000
    145       0.000000   0.000000   0.000000   0.000000   0.000000   0.000000
    146       0.000000   0.000000   0.000000   0.000000   0.000000   0.000000
    147       0.000000   0.000000   0.000000   0.000000   0.000000   0.000000
    148       0.000000   0.000000   0.000000   0.000000   0.000000   0.000000
    149       0.000000   0.000000   0.000000   0.000000   0.000000   0.000000
                  6          7          8          9         10         11    
      0      -0.001455   0.015015  -0.005712  -0.090415  -0.005301   0.007796
      1      -0.000665   0.081084  -0.016953   0.003721   0.014655   0.014352
      2      -0.001686   0.025836  -0.090897   0.022963   0.029639   0.021369
      3      -0.003747   0.005035  -0.045810  -0.086137  -0.018635   0.021207
      4      -0.000280   0.104058   0.011872   0.009397   0.023303  -0.003471
      5      -0.002596   0.030730  -0.098441   0.027276   0.026863   0.020299
      6       0.001762   0.006734   0.041677  -0.096901   0.006471  -0.010170
      7      -0.001009   0.098136  -0.050400  -0.003046   0.012867   0.039714
      8      -0.000883   0.028605  -0.113265   0.027450   0.023225   0.028021
      9       0.004016   0.017981   0.081182  -0.103454   0.014417  -0.020165
     10      -0.001613   0.080986  -0.084774  -0.008890   0.015580   0.053707
     11      -0.001002   0.026917  -0.109649   0.022419   0.027804   0.029021
     12      -0.015880  -0.006342   0.037566  -0.088517   0.005159  -0.010080
     13       0.008354   0.123593  -0.038697  -0.021657   0.017950   0.039146
     14      -0.000890   0.025582  -0.137453   0.040411   0.010425   0.031303
     15       0.003740  -0.008872   0.070837  -0.104026   0.009048  -0.018489
     16       0.001248   0.143063  -0.064303  -0.019961   0.032167   0.048933
     17      -0.004747   0.024450  -0.151490   0.048180   0.006476   0.034588
     18       0.000857   0.050172  -0.013662  -0.081842  -0.010551   0.019353
     19       0.000614   0.015864  -0.017164  -0.010347   0.022402  -0.006124
     20       0.000323   0.008746  -0.049716   0.013916   0.040734   0.013496
     21      -0.000081   0.072544  -0.052246  -0.056144  -0.079997   0.061644
     22       0.000016  -0.012660  -0.027231  -0.049713   0.139188  -0.081226
     23      -0.000511   0.000929  -0.033392   0.005012   0.064272  -0.000639
     24      -0.000100   0.061480   0.017206  -0.088349   0.051517  -0.012127
     25       0.000016  -0.015915  -0.008792  -0.008106  -0.082736   0.049496
     26       0.000331  -0.000203  -0.023058   0.010675   0.026782   0.021845
     27       0.000474   0.105571  -0.056978  -0.032549  -0.095880   0.075797
     28       0.000080  -0.073450  -0.034642  -0.093468   0.167080  -0.107490
     29      -0.000182  -0.016568   0.007291  -0.008213   0.077486  -0.008123
     30      -0.000283   0.063403  -0.078631  -0.052434  -0.122589   0.083076
     31       0.000480   0.013494  -0.031483  -0.050933   0.211699  -0.119467
     32      -0.000326   0.008561  -0.053378   0.006767   0.073996  -0.006505
     33       0.000239   0.094464   0.012776  -0.064589   0.038987   0.000660
     34      -0.000070  -0.076302  -0.015292  -0.052288  -0.061795   0.025925
     35       0.000517  -0.018283   0.016845  -0.001880   0.038809   0.014722
     36      -0.000695   0.044644   0.044940  -0.109852   0.113180  -0.048356
     37      -0.000041   0.007565   0.002628   0.023253  -0.185956   0.113918
     38       0.000510   0.005425  -0.033089   0.017885   0.006367   0.033782
     39      -0.000362   0.117135  -0.024577  -0.034944  -0.038581   0.046785
     40      -0.000136  -0.106983  -0.029400  -0.098259   0.071135  -0.057043
     41      -0.000070  -0.026640   0.032368  -0.012574   0.066338  -0.001432
     42       0.000574   0.121779  -0.085962  -0.011937  -0.149651   0.107599
     43      -0.000208  -0.093656  -0.043635  -0.124422   0.255581  -0.163142
     44      -0.000079  -0.022546   0.019252  -0.015718   0.096771  -0.019426
     45       0.000631   0.148693  -0.026761  -0.010420  -0.050780   0.058881
     46       0.000186  -0.167113  -0.036388  -0.145632   0.092362  -0.079772
     47       0.000058  -0.044326   0.072839  -0.027109   0.080666  -0.009799
     48      -0.000296   0.162285  -0.055763   0.008900  -0.102872   0.090055
     49       0.000198  -0.182816  -0.044656  -0.173024   0.179404  -0.135079
     50       0.000055  -0.048678   0.080900  -0.033396   0.098007  -0.020260
     51       0.000157   0.101696   0.043344  -0.070649   0.106837  -0.034522
     52       0.000128  -0.105888  -0.007071  -0.051635  -0.179182   0.088735
     53      -0.000086  -0.027679   0.042085  -0.005721   0.028520   0.021037
     54       0.000058   0.163646   0.055433  -0.027219   0.115434  -0.028871
     55      -0.000062  -0.104016  -0.005679  -0.048693  -0.188048   0.094166
     56       0.000033  -0.021185   0.059178   0.029405  -0.133368   0.115702
     57       0.000077   0.177510   0.061019  -0.019202   0.125934  -0.031998
     58       0.000104  -0.058759   0.003872  -0.012872  -0.202846   0.110169
     59       0.000101  -0.014045   0.043479   0.054685  -0.234867   0.171082
     60       0.000078   0.171265   0.073979  -0.032641   0.168919  -0.054841
     61       0.000167  -0.125685   0.000355  -0.046857  -0.283785   0.146139
     62       0.000031  -0.022826   0.074518   0.026077  -0.126356   0.114110
     63       0.000186   0.187573   0.041183   0.001778   0.060483   0.002775
     64      -0.000053  -0.125815  -0.020209  -0.083269  -0.088047   0.032749
     65       0.000039  -0.021107   0.072666   0.033513  -0.157984   0.131774
     66       0.000544  -0.052558  -0.018597  -0.023517  -0.002819   0.000195
     67      -0.001437   0.038800   0.021682  -0.065092  -0.001627   0.007091
     68      -0.000733   0.012265  -0.123186   0.022889  -0.021266  -0.029071
     69       0.001279  -0.066886  -0.019505  -0.011761  -0.002706  -0.000677
     70      -0.004720   0.066446   0.023983  -0.078721   0.002106   0.015816
     71      -0.000669   0.003341  -0.128140  -0.005609  -0.036938  -0.058798
     72      -0.002798  -0.014296  -0.013410  -0.046400   0.000299   0.004999
     73      -0.001444   0.038002   0.024628  -0.069301  -0.002461   0.003594
     74      -0.000424   0.027107  -0.156834   0.065413  -0.009561   0.020070
     75      -0.007888   0.002729  -0.013046  -0.054647   0.000978   0.006836
     76       0.007142   0.009553   0.025127  -0.063912  -0.005959  -0.005611
     77      -0.000786   0.036072  -0.161821   0.094045   0.000477   0.045122
     78      -0.000828   0.011888  -0.013859  -0.048132   0.002934   0.008447
     79       0.008864   0.078529   0.023712  -0.073242   0.001527   0.009819
     80      -0.003052   0.002552  -0.160187   0.061229  -0.010899   0.045728
     81      -0.001312   0.052325  -0.014026  -0.049217   0.006738   0.012504
     82       0.001136   0.083231   0.025710  -0.075712   0.002334   0.004369
     83       0.000113  -0.032493  -0.174426   0.079124  -0.015716   0.082164
     84      -0.000435  -0.078427  -0.024009  -0.003789  -0.006285  -0.005273
     85       0.000121   0.005749   0.016106  -0.039566  -0.006219  -0.001362
     86       0.000104   0.009429  -0.077073   0.009661  -0.018469  -0.054167
     87      -0.000032  -0.119426  -0.024995   0.032625  -0.008137  -0.010130
     88      -0.000242   0.008662   0.018763  -0.042975  -0.002436   0.007433
     89       0.000207   0.045426  -0.114753  -0.011789  -0.076149  -0.189706
     90       0.000166  -0.061939  -0.029868  -0.015806  -0.008723  -0.007971
     91       0.000006  -0.028973   0.007765  -0.007431  -0.014886  -0.020724
     92      -0.000225  -0.032348   0.020913   0.011871   0.042618   0.055393
     93      -0.000227  -0.143502  -0.031789   0.056920  -0.012129  -0.017910
     94      -0.000095  -0.020740   0.013032  -0.014478  -0.007395  -0.003551
     95      -0.000016   0.046948  -0.061729  -0.033634  -0.079381  -0.222466
     96       0.000049  -0.132644  -0.020848   0.042935  -0.006705  -0.008629
     97      -0.000017   0.035208   0.024642  -0.068058   0.004191   0.022113
     98      -0.000031   0.072945  -0.184347  -0.013371  -0.119602  -0.268806
     99       0.000224  -0.085498  -0.036212   0.007196  -0.012556  -0.015470
    100       0.000366  -0.058132   0.001935   0.021375  -0.019954  -0.032069
    101       0.000000  -0.026870   0.074802  -0.010670   0.041832   0.027600
    102       0.001061  -0.029301  -0.030009  -0.041872  -0.007960  -0.005079
    103      -0.000175  -0.032966   0.005239  -0.003747  -0.018354  -0.028625
    104      -0.000382  -0.067392   0.061586   0.028313   0.094687   0.172463
    105       0.000308  -0.127174  -0.037608   0.044971  -0.014136  -0.020328
    106      -0.000271  -0.053772   0.004091   0.017647  -0.016329  -0.023863
    107       0.000001   0.012501   0.033554  -0.036349  -0.022262  -0.117165
    108      -0.000549  -0.174043  -0.033579   0.084702  -0.014211  -0.022904
    109       0.000319  -0.017606   0.014619  -0.017445  -0.004805   0.002311
    110       0.000362   0.073938  -0.089054  -0.050599  -0.122820  -0.321629
    111      -0.000387  -0.149181  -0.045817   0.067768  -0.018521  -0.029307
    112       0.000340  -0.084089  -0.003050   0.047746  -0.022280  -0.038191
    113       0.000025   0.013618   0.094655  -0.063531  -0.021736  -0.139761
    114       0.000108  -0.178123  -0.045023   0.093881  -0.019865  -0.034707
    115       0.000208  -0.077961  -0.000654   0.041745  -0.018819  -0.030173
    116      -0.000045   0.039781   0.056630  -0.077706  -0.065539  -0.233378
    117      -0.000233  -0.069174  -0.045853  -0.004768  -0.016662  -0.021300
    118      -0.000045  -0.088326  -0.006724   0.052111  -0.030774  -0.056873
    119       0.000017  -0.062620   0.176727  -0.012087   0.107433   0.149558
    120       0.000122  -0.085607   0.048658  -0.028443   0.024914   0.050919
    121      -0.000090  -0.149787   0.000819   0.122882   0.021792   0.055009
    122      -0.000097  -0.073143   0.237230  -0.027212   0.134115   0.195868
    123       0.000113  -0.085940   0.111366  -0.056502   0.054595   0.104311
    124      -0.000034  -0.172782   0.011000   0.146883   0.059946   0.137068
    125      -0.000037  -0.092475   0.205992   0.010942   0.147545   0.231425
    126      -0.000152  -0.076139   0.030779  -0.031353   0.018451   0.040901
    127       0.000097  -0.153933  -0.007070   0.130649   0.003977   0.016174
    128       0.000034  -0.102691   0.317909  -0.028625   0.186849   0.295343
    129       0.000164  -0.106114   0.073255  -0.016138   0.032228   0.060518
    130       0.000051  -0.167078   0.004055   0.142417   0.039366   0.092595
    131      -0.000086  -0.033527   0.236019  -0.075253   0.090164   0.100348
    132       0.023169  -0.008210  -0.014543  -0.048859  -0.000054   0.004735
    133      -0.027426   0.110305   0.016083  -0.063496   0.003642   0.022288
    134       0.020042   0.018414  -0.140466   0.042338   0.000646   0.031407
    135      -0.089868  -0.029899  -0.034147  -0.036334  -0.005608   0.003123
    136       0.101689   0.111234   0.049641  -0.091227  -0.007603   0.018739
    137      -0.076992   0.017785  -0.167200   0.063993   0.009311   0.034357
    138      -0.640294   0.003914  -0.045504  -0.018783   0.004009   0.019142
    139       0.703918   0.125841   0.022362  -0.068774  -0.000477   0.028411
    140      -0.252306   0.030295  -0.068237  -0.008657  -0.015953   0.016804
    141       0.040184   0.012094  -0.071048   0.074429   0.016923   0.027369
    142      -0.042107   0.137638   0.052232   0.003685  -0.013882   0.021061
    143       0.001737   0.034828   0.077403  -0.057116  -0.079427  -0.023455
    144       0.004887  -0.013848   0.126160   0.424122  -0.011228  -0.068952
    145      -0.003650   0.108409   0.077342   0.409762   0.033604  -0.024894
    146      -0.007626   0.034872   0.311415  -0.089191  -0.176364  -0.095938
    147      -0.006385  -0.017593   0.115636   0.288678  -0.016234  -0.060777
    148       0.003195   0.103827   0.041273   0.287593   0.040765  -0.009713
    149       0.025089   0.031410   0.167320  -0.049396  -0.111771  -0.054412
                 12         13         14         15         16         17    
      0      -0.097204   0.049311  -0.039078   0.009549   0.030597  -0.065616
      1       0.151478  -0.048085   0.040171  -0.073875  -0.024264   0.082600
      2      -0.023141   0.105863   0.107113  -0.128376  -0.013473  -0.012226
      3      -0.107905   0.081836  -0.026608   0.040460   0.008073  -0.108254
      4       0.170445  -0.108262   0.024123  -0.151493   0.011529   0.130133
      5      -0.020668   0.097336   0.106854  -0.146884  -0.009628  -0.013999
      6      -0.074420   0.010124  -0.043461  -0.066923   0.039182  -0.009842
      7       0.102570   0.049839   0.058163   0.078466  -0.028260   0.026015
      8      -0.029239   0.115205   0.107343  -0.105666  -0.017726  -0.035693
      9      -0.071113  -0.011694  -0.045175  -0.128060   0.062139   0.031472
     10       0.085155   0.130998   0.081320   0.179754  -0.065368  -0.029160
     11      -0.034700   0.137483   0.115901  -0.093066  -0.022203  -0.038711
     12      -0.054710  -0.002283  -0.028296  -0.113192   0.024518   0.008718
     13       0.062310   0.086611   0.039947   0.160236  -0.004022  -0.001392
     14      -0.021154   0.064384   0.073664  -0.053176  -0.015543  -0.040858
     15      -0.069542  -0.015508  -0.008473  -0.268262   0.046116   0.040225
     16       0.063633   0.225358   0.064170   0.357238  -0.045669  -0.078749
     17      -0.013482   0.053583   0.059653   0.003814  -0.021375  -0.047342
     18      -0.098122   0.057276  -0.031098   0.019169   0.047382  -0.060224
     19       0.150431  -0.046676   0.037308  -0.113588  -0.061197   0.054551
     20      -0.014653   0.076080   0.080148  -0.097281  -0.008552   0.009938
     21      -0.098621   0.100509   0.015120  -0.042290   0.036584  -0.064312
     22       0.118910  -0.023788   0.036162  -0.109183  -0.060310   0.025369
     23      -0.013187   0.057359   0.061027  -0.072362  -0.003759   0.012606
     24      -0.072804   0.017528  -0.057007   0.055644   0.056523  -0.035313
     25       0.128035  -0.050102   0.017852  -0.100645  -0.060876   0.026517
     26      -0.009627   0.045798   0.051220  -0.063318  -0.001190   0.014964
     27      -0.061627   0.093719   0.036163  -0.082665   0.023691  -0.035079
     28       0.041033   0.013138   0.015457  -0.057736  -0.040187  -0.038056
     29      -0.010842   0.009485   0.011539  -0.005009   0.012443   0.019493
     30      -0.120919   0.138882   0.038390  -0.070780   0.031594  -0.087663
     31       0.140653  -0.026841   0.049776  -0.129630  -0.065390   0.044882
     32      -0.016707   0.081635   0.083862  -0.102299  -0.009720   0.007177
     33      -0.031631   0.007851  -0.037527   0.020362   0.039801  -0.009391
     34       0.044914  -0.014732  -0.005626  -0.053957  -0.034583  -0.036702
     35      -0.008584  -0.001410   0.002051   0.003036   0.016498   0.022681
     36      -0.076344  -0.007075  -0.089180   0.107617   0.067642  -0.034676
     37       0.156579  -0.074476   0.017393  -0.119274  -0.063934   0.050629
     38      -0.008761   0.055174   0.062953  -0.081948  -0.005330   0.014320
     39      -0.020958   0.043856   0.011614  -0.060854   0.017571  -0.008940
     40      -0.012407   0.027173  -0.007749  -0.011610  -0.009736  -0.064759
     41      -0.010609  -0.018054  -0.018238   0.034753   0.024024   0.022090
     42      -0.056806   0.124192   0.073131  -0.138442   0.008107  -0.037802
     43       0.006609   0.036807   0.014059  -0.039045  -0.030429  -0.059786
     44      -0.011763  -0.003479  -0.003376   0.017075   0.018475   0.021157
     45       0.034628   0.024227   0.031054  -0.114382  -0.016568   0.009699
     46      -0.126397   0.080598  -0.033954   0.076967   0.054531  -0.107467
     47      -0.011894  -0.064257  -0.069646   0.107363   0.043171   0.021805
     48       0.038238   0.054529   0.068147  -0.173203  -0.034065   0.005171
     49      -0.162125   0.108080  -0.032654   0.101050   0.073834  -0.111683
     50      -0.013977  -0.072144  -0.080225   0.124913   0.048729   0.022953
     51       0.002322  -0.037234  -0.065866   0.061982   0.039151   0.012783
     52      -0.006754  -0.011567  -0.028888  -0.025452   0.004771  -0.031998
     53      -0.009529  -0.031677  -0.028952   0.045104   0.033950   0.039118
     54       0.207978  -0.162822  -0.074208  -0.078870  -0.172867  -0.235685
     55       0.002145  -0.019525  -0.031266  -0.032346  -0.005125  -0.046713
     56       0.049981  -0.105000  -0.059215  -0.009886  -0.036652  -0.081502
     57       0.253514  -0.192964  -0.078986  -0.100858  -0.213328  -0.278335
     58       0.156190  -0.116293  -0.039002  -0.142700  -0.166696  -0.240759
     59       0.087801  -0.119005  -0.045219  -0.106648  -0.124380  -0.226893
     60       0.227467  -0.189077  -0.092658  -0.036623  -0.153500  -0.183403
     61      -0.053153  -0.008037  -0.045589   0.000971   0.051058   0.002584
     62       0.045920  -0.120200  -0.077233   0.031369  -0.004367  -0.027849
     63       0.295148  -0.199927  -0.058047  -0.200451  -0.306573  -0.425256
     64      -0.092458   0.061578  -0.010082   0.041109   0.097107   0.095013
     65       0.056733  -0.127548  -0.076464   0.008945  -0.025713  -0.063456
     66      -0.010474  -0.033066   0.011600   0.031707  -0.039218   0.018682
     67      -0.119334  -0.062068  -0.016465   0.006591  -0.083966   0.002094
     68      -0.015718   0.040579  -0.150239   0.013463  -0.123083   0.116232
     69      -0.000723  -0.035002   0.021747   0.034055  -0.037960   0.018357
     70      -0.118725  -0.067194  -0.028285   0.003413  -0.066410  -0.003033
     71      -0.090841   0.074941  -0.174361   0.006599  -0.206023   0.134736
     72      -0.009792  -0.021255  -0.012699   0.022018  -0.012010   0.014158
     73      -0.125487  -0.055493  -0.022212   0.005756  -0.092873   0.005560
     74       0.051621  -0.036917  -0.084739   0.029637  -0.012410   0.060428
     75      -0.006306  -0.011431  -0.020355   0.017695   0.001705   0.016046
     76      -0.148232  -0.057009  -0.017195   0.007553  -0.136651   0.011497
     77       0.119866  -0.090754  -0.057179   0.049454   0.073528   0.028904
     78       0.028222  -0.000786  -0.020341   0.015866   0.033736   0.025489
     79      -0.071362  -0.028800  -0.030166   0.000833  -0.023005   0.023993
     80      -0.021022  -0.117112  -0.023569   0.055262   0.010507  -0.024557
     81       0.094444   0.038606  -0.013757   0.004761   0.114462   0.057989
     82      -0.063927  -0.002726  -0.032886  -0.015218  -0.031514   0.039807
     83      -0.070445  -0.291681  -0.002855   0.160593   0.062923  -0.131991
     84       0.006868  -0.026629   0.026015   0.036135  -0.033963   0.026123
     85      -0.097945  -0.052698  -0.000148   0.008373  -0.077069   0.007146
     86       0.002139   0.054172  -0.153193   0.002144  -0.105836   0.110681
     87       0.054280  -0.001532   0.040736   0.031913   0.007087   0.027233
     88      -0.104309  -0.054138  -0.004610   0.009362  -0.085360   0.009079
     89       0.007026   0.022920  -0.104183  -0.007149  -0.056524   0.079087
     90      -0.008174  -0.035095   0.020194   0.039390  -0.050307   0.031500
     91      -0.057324  -0.033091   0.016444   0.003541  -0.040379   0.005602
     92       0.005206   0.064832  -0.149450  -0.005114  -0.088142   0.080715
     93       0.084954   0.017020   0.046393   0.028927   0.031288   0.032360
     94      -0.067802  -0.034179   0.006420   0.005480  -0.054014   0.011458
     95       0.016315  -0.020072  -0.018029  -0.015743   0.030585  -0.003389
     96       0.068696   0.005253   0.047473   0.030530   0.021904   0.024887
     97      -0.138607  -0.070872  -0.017843   0.012254  -0.118083   0.009178
     98       0.001532   0.021355  -0.116745  -0.005010  -0.074607   0.104909
     99       0.019703  -0.019172   0.027202   0.038203  -0.030550   0.038508
    100      -0.019014  -0.012769   0.027808  -0.001121  -0.005837   0.007294
    101       0.016743   0.028731  -0.061695  -0.018402  -0.001188   0.002687
    102      -0.037075  -0.052382   0.009930   0.042949  -0.073382   0.031753
    103      -0.051843  -0.032235   0.021361   0.002910  -0.033641   0.003619
    104      -0.003413   0.100189  -0.199760  -0.002913  -0.134437   0.109567
    105       0.069120   0.010313   0.036372   0.030754   0.014200   0.036546
    106      -0.025073  -0.013244   0.021009  -0.000865  -0.013904   0.009407
    107       0.015557  -0.028764   0.023900  -0.015633   0.060573  -0.048039
    108       0.119694   0.037159   0.055941   0.024923   0.061149   0.033521
    109      -0.072556  -0.035267   0.002353   0.006041  -0.060368   0.013051
    110       0.017434  -0.053590   0.033757  -0.018150   0.072235  -0.034368
    111       0.098771   0.029544   0.035633   0.025510   0.038314   0.038915
    112       0.016351   0.009240   0.028924  -0.009028   0.026688   0.004465
    113       0.010068  -0.093129   0.155334  -0.011007   0.141934  -0.133989
    114       0.134934   0.047882   0.047467   0.019134   0.075887   0.032085
    115       0.007145   0.006353   0.022965  -0.007806   0.015301   0.007146
    116       0.004584  -0.122759   0.195139  -0.005390   0.160705  -0.144651
    117       0.002584  -0.025984   0.010569   0.039547  -0.048605   0.037939
    118       0.024555   0.003501   0.055229  -0.003928   0.038131   0.010239
    119       0.016978   0.035137  -0.025118  -0.022256   0.007659  -0.007139
    120      -0.032465  -0.087108   0.162631   0.084436  -0.101494   0.108619
    121       0.125439   0.167593  -0.180448  -0.103559   0.168935  -0.122094
    122      -0.005037  -0.003399   0.071432   0.005645  -0.024774   0.036686
    123      -0.073467  -0.133133   0.245016   0.113611  -0.155307   0.148940
    124       0.159173   0.256627  -0.344065  -0.162391   0.216745  -0.206989
    125       0.049346   0.101065  -0.119205  -0.062491   0.049467  -0.060532
    126      -0.036093  -0.078010   0.120212   0.074624  -0.101470   0.088907
    127       0.136451   0.145276  -0.104845  -0.083265   0.175926  -0.084525
    128      -0.009052  -0.002873   0.113613   0.011132  -0.036146   0.052358
    129      -0.015851  -0.096851   0.236186   0.099316  -0.089770   0.142101
    130       0.152919   0.217062  -0.256206  -0.133886   0.203838  -0.162087
    131      -0.073575  -0.137706   0.294460   0.091347  -0.116828   0.155844
    132      -0.007012  -0.019157  -0.037066   0.020854  -0.007734   0.006946
    133      -0.000487  -0.031483  -0.019747   0.022552   0.064053   0.044903
    134      -0.022580   0.000694   0.038488  -0.040110  -0.001551  -0.020332
    135      -0.040466  -0.051785  -0.073565   0.058528  -0.062907  -0.004614
    136      -0.017764  -0.101497  -0.052267  -0.024175   0.130462   0.073167
    137      -0.009533   0.055778   0.063897  -0.001442  -0.053651  -0.043891
    138       0.043414  -0.029766  -0.030510   0.085085   0.021384   0.016177
    139       0.043408  -0.057037  -0.018986   0.036812   0.139007   0.079804
    140      -0.031733  -0.042470   0.026517  -0.127780   0.093361   0.018995
    141       0.051836  -0.072973  -0.031686   0.113914   0.119405   0.053732
    142       0.068891  -0.082733  -0.018525   0.101263   0.219601   0.114824
    143       0.015563  -0.001026   0.019700  -0.031113   0.070098   0.025740
    144      -0.061000   0.042131  -0.013626   0.068617  -0.083010  -0.050832
    145      -0.096495  -0.035509   0.006957  -0.074968   0.096483   0.029195
    146       0.070310   0.099714   0.012610   0.136836  -0.055589  -0.011312
    147      -0.037263   0.063971  -0.013813   0.050800  -0.137080  -0.059681
    148      -0.083039  -0.024774   0.007390  -0.115049   0.053672   0.022305
    149       0.022135   0.042380   0.018402   0.008021   0.004151   0.002925
                 18         19         20         21         22         23    
      0       0.048573   0.001443   0.030645  -0.031614  -0.005433   0.003403
      1      -0.089278  -0.073680   0.056014   0.016670   0.013571   0.038154
      2      -0.026488   0.092319  -0.016121   0.011600   0.016072  -0.030635
      3       0.055107  -0.002706   0.052743   0.092254   0.010409   0.041906
      4      -0.074236  -0.064508   0.040728  -0.229756  -0.031433   0.049245
      5      -0.016357   0.093016  -0.010702  -0.031431   0.005020  -0.005641
      6       0.021546   0.026353   0.002954  -0.171304  -0.019058  -0.058430
      7      -0.082522  -0.081436   0.047965   0.309134   0.070075  -0.009222
      8      -0.011510   0.078393  -0.000929   0.051904   0.015955   0.011125
      9       0.010117   0.055451  -0.016977  -0.289341  -0.021145  -0.114741
     10      -0.096587  -0.083765   0.058611   0.552380   0.119478  -0.027945
     11      -0.022228   0.090686  -0.006422   0.095335   0.034253  -0.021540
     12      -0.016502   0.016189   0.019403  -0.030358   0.003407  -0.054938
     13      -0.021103  -0.047639  -0.004642   0.053883   0.036723  -0.043558
     14       0.023086   0.020938  -0.009886   0.006156  -0.040278   0.092361
     15      -0.049221   0.051162   0.060599   0.093051   0.057228  -0.100747
     16       0.010779  -0.006393  -0.050805  -0.178444   0.045552  -0.059270
     17       0.036243  -0.002057  -0.025191  -0.029818  -0.069228   0.117169
     18       0.049712  -0.008155   0.037628  -0.003309   0.002830   0.015553
     19      -0.083243  -0.044582   0.059604  -0.043393   0.001881   0.041802
     20      -0.039045   0.076316  -0.021602   0.004888   0.014359  -0.066133
     21       0.036527   0.021752   0.034808   0.058881   0.020592   0.019174
     22      -0.056788  -0.005663   0.038115  -0.167242  -0.017775  -0.017073
     23      -0.034938   0.061703  -0.017444  -0.015931   0.007921  -0.064413
     24       0.036775  -0.053101   0.063566  -0.032983  -0.005294   0.034012
     25      -0.055942  -0.042484   0.058680   0.010937   0.008781   0.070721
     26      -0.035091   0.047021  -0.007219   0.015183   0.013024  -0.044708
     27       0.002892   0.015126   0.044514   0.038206   0.020786   0.018733
     28       0.007055   0.032623   0.010112  -0.128617  -0.012928  -0.036614
     29      -0.024390   0.010057   0.005135  -0.011870  -0.000251  -0.024848
     30       0.047423   0.055701   0.022857   0.108293   0.032263   0.014265
     31      -0.075948  -0.002397   0.036751  -0.261503  -0.030651  -0.051161
     32      -0.037684   0.085978  -0.026099  -0.032640   0.008794  -0.085841
     33       0.003664  -0.064444   0.077954  -0.033179  -0.001961   0.048142
     34       0.013714  -0.003423   0.027857   0.012619   0.005191   0.042182
     35      -0.023983  -0.004951   0.015455   0.010940   0.002623  -0.004933
     36       0.044797  -0.079903   0.075604  -0.043521  -0.010059   0.041081
     37      -0.075254  -0.065629   0.072205   0.033833   0.013192   0.098411
     38      -0.037679   0.057744  -0.012444   0.018582   0.014820  -0.048794
     39      -0.016236  -0.023652   0.066301  -0.033633   0.007088   0.025485
     40       0.045374   0.022849   0.010082   0.010487   0.004011   0.008605
     41      -0.015887  -0.022278   0.020544   0.011955  -0.001388   0.006563
     42      -0.008366   0.046460   0.031062   0.069013   0.031813   0.007004
     43       0.029943   0.061563  -0.010498  -0.182993  -0.021203  -0.080782
     44      -0.020450  -0.003633   0.011280  -0.022600  -0.004535  -0.018841
     45      -0.048673  -0.019974   0.071245  -0.094894   0.002206   0.013914
     46       0.110307   0.032026  -0.005429   0.129321   0.016573   0.019886
     47       0.004492  -0.072928   0.039095   0.039526  -0.007428   0.050152
     48      -0.059542   0.020309   0.054823  -0.086349   0.013036  -0.011241
     49       0.118326   0.041767  -0.011712   0.100459   0.010017  -0.003732
     50       0.007823  -0.084199   0.043647   0.036398  -0.010679   0.056732
     51      -0.011494  -0.123273   0.117259  -0.022462  -0.008269   0.125394
     52       0.031172  -0.025078   0.033239  -0.039408  -0.010601   0.037641
     53      -0.025111  -0.053743   0.042718  -0.006226  -0.009338   0.043322
     54       0.158242   0.100161  -0.042352   0.086526   0.026054   0.035782
     55       0.042998  -0.012931   0.023717  -0.042578  -0.010700   0.030098
     56       0.081938   0.044606  -0.045619  -0.075541  -0.021777  -0.046103
     57       0.186396   0.125428  -0.057136   0.108760   0.026527   0.070482
     58       0.178102   0.165844  -0.107059   0.031296   0.015880  -0.064182
     59       0.193600   0.269331  -0.234301  -0.060578   0.032760  -0.478185
     60       0.116578  -0.026596   0.067974   0.078694  -0.015924   0.360970
     61       0.022348  -0.067369   0.053382  -0.138072  -0.037233   0.040523
     62       0.045312  -0.064230   0.043337  -0.112641  -0.060653   0.191043
     63       0.294293   0.358289  -0.248465   0.153771   0.090475  -0.369394
     64      -0.068962  -0.134237   0.122252  -0.026176  -0.011808   0.111688
     65       0.073702  -0.013672   0.000019  -0.114783  -0.050304   0.096415
     66      -0.059078  -0.026518  -0.117659   0.008564  -0.009840   0.007920
     67      -0.078756   0.025017  -0.064452   0.009117  -0.042852   0.007916
     68       0.071590   0.031154   0.037511   0.001685  -0.013250  -0.000373
     69      -0.055207  -0.037945  -0.132016   0.012740  -0.031842   0.006166
     70      -0.080601   0.011090  -0.044500   0.014454  -0.071988  -0.013151
     71       0.047079   0.175063   0.072283  -0.046758   0.247170   0.098277
     72      -0.051060  -0.017221  -0.051262   0.003188   0.004551  -0.016153
     73      -0.080335   0.037903  -0.061631   0.003102  -0.016654   0.013996
     74       0.089803  -0.137896   0.013243   0.058509  -0.307674  -0.077239
     75      -0.040606  -0.012153  -0.024771  -0.000339   0.027608  -0.020292
     76      -0.099340   0.066400  -0.099552  -0.002943   0.008617   0.047672
     77       0.100143  -0.281729  -0.007099   0.106060  -0.543728  -0.181712
     78      -0.011987  -0.044563  -0.015791   0.012522  -0.012871  -0.046637
     79      -0.021491  -0.010724  -0.026386   0.012426  -0.029692  -0.032149
     80       0.003042  -0.066582   0.031323   0.011067  -0.060514  -0.022335
     81       0.060536  -0.091934  -0.011246   0.029885  -0.020679  -0.078247
     82      -0.003375  -0.012929  -0.037979   0.020710  -0.070869  -0.019651
     83      -0.121738  -0.056127   0.107696  -0.039916   0.216134  -0.100181
     84      -0.038187  -0.029322  -0.124196   0.006163   0.001241   0.014496
     85      -0.056822   0.029133  -0.061286   0.007744  -0.032697   0.016786
     86       0.047009   0.040542   0.019927  -0.002850   0.044950  -0.024188
     87       0.009477  -0.035097  -0.071593   0.002320   0.002207  -0.002661
     88      -0.061459   0.030410  -0.066563   0.008588  -0.043284   0.015734
     89       0.026429   0.050216   0.019112  -0.008511   0.190430   0.028716
     90      -0.050194  -0.030558  -0.149788   0.007700   0.007403   0.022793
     91      -0.013887   0.033123   0.000640   0.004072  -0.026077   0.006781
     92       0.012935   0.025158  -0.010199  -0.002556  -0.027273  -0.059284
     93       0.046891  -0.033461  -0.022404  -0.000329   0.011398  -0.014144
     94      -0.019484   0.032479  -0.008884   0.005637  -0.034795   0.003436
     95      -0.023191   0.012461  -0.012134  -0.005836   0.144022   0.029943
     96       0.022611  -0.038081  -0.054836   0.001532  -0.003253  -0.010312
     97      -0.098327   0.032002  -0.112916   0.011787  -0.059291   0.024996
     98       0.046092   0.074625   0.039782  -0.012549   0.306329   0.070328
     99      -0.013713  -0.029262  -0.106403   0.005240   0.015908   0.012212
    100       0.029883   0.034028   0.063385   0.000812  -0.022819  -0.008610
    101      -0.031823  -0.001659  -0.033036   0.000111  -0.023912  -0.033543
    102      -0.081061  -0.034504  -0.193606   0.010966   0.003839   0.031062
    103      -0.009406   0.033055   0.007333   0.003591  -0.022485   0.006893
    104       0.020998   0.037317  -0.011874  -0.004815  -0.058322  -0.077904
    105       0.032243  -0.031523  -0.043591   0.000717   0.023524  -0.006196
    106       0.023401   0.034578   0.054379   0.001711  -0.025397  -0.008126
    107      -0.045340  -0.019637  -0.031221  -0.000665  -0.018116  -0.007180
    108       0.086151  -0.031327   0.033940  -0.003131   0.013277  -0.028845
    109      -0.024384   0.032145  -0.017206   0.006332  -0.039624   0.003742
    110      -0.035386   0.008093  -0.011793  -0.007869   0.207423   0.064093
    111       0.060079  -0.030373  -0.004318  -0.002259   0.035545  -0.016994
    112       0.057896   0.032623   0.107356  -0.001932  -0.023947  -0.021865
    113      -0.069454  -0.062679  -0.037751   0.003060  -0.164980  -0.005563
    114       0.091233  -0.033994   0.043993  -0.005019   0.023937  -0.032498
    115       0.049025   0.033052   0.092945  -0.000818  -0.025948  -0.019610
    116      -0.061965  -0.056827  -0.018942  -0.001244  -0.103114   0.021251
    117      -0.041835  -0.031993  -0.151425   0.007078   0.009244   0.018559
    118       0.094876   0.037956   0.166129  -0.003578  -0.017573  -0.036184
    119      -0.028471   0.002525  -0.027106   0.000171   0.024261   0.007709
    120       0.100433   0.009575  -0.008219   0.004174   0.085193   0.044727
    121      -0.128197  -0.023082  -0.046060   0.001862   0.051910   0.037921
    122       0.061158   0.029111   0.064599  -0.001878   0.075307   0.026026
    123       0.144983   0.029069  -0.020831   0.003280   0.158320   0.122551
    124      -0.329471  -0.070296  -0.329428   0.006771   0.128965   0.173408
    125      -0.137227  -0.023077  -0.167098   0.002837   0.094122   0.091249
    126       0.038711  -0.004724  -0.107713   0.005398   0.081506   0.077502
    127       0.002650   0.003560   0.188447  -0.001008  -0.001168  -0.086352
    128       0.089465   0.041844   0.073515  -0.002078   0.175138   0.097594
    129       0.223171   0.036238   0.207792   0.001745   0.077798  -0.041670
    130      -0.204805  -0.042938  -0.132502   0.003815   0.079035   0.073844
    131       0.303633   0.090729   0.358829  -0.007864   0.002349  -0.094539
    132      -0.039555  -0.024679   0.008326  -0.000814  -0.029319  -0.039957
    133       0.026007  -0.073225  -0.025507   0.030057   0.009634  -0.074355
    134       0.035104  -0.016806  -0.021704   0.010595  -0.068246   0.090475
    135      -0.070663  -0.015416   0.047462   0.004650  -0.063326  -0.056528
    136       0.067275  -0.104555  -0.059728   0.007682   0.018841  -0.102944
    137       0.002809   0.007783   0.005933   0.027284  -0.075198   0.113044
    138      -0.056003   0.027029   0.031037   0.021424  -0.047305  -0.050057
    139       0.053789  -0.056286  -0.061339   0.031351   0.043779  -0.089295
    140       0.103759  -0.050169  -0.098927  -0.034521  -0.011733   0.086173
    141      -0.067303   0.367013   0.029871   0.017627  -0.100251   0.031598
    142       0.033712   0.261561  -0.070698   0.023600   0.009426  -0.011700
    143       0.068529  -0.007645  -0.089961  -0.024725   0.019153   0.063423
    144      -0.079573   0.147890   0.088367   0.002529  -0.067380   0.037555
    145       0.105460   0.005079  -0.098986  -0.031295   0.061165   0.060039
    146      -0.042490   0.019765   0.028956   0.025415   0.002442  -0.022448
    147      -0.083301  -0.114358   0.099454   0.036081  -0.050406  -0.092430
    148       0.114697  -0.264305  -0.099343  -0.004958   0.080441  -0.060585
    149       0.035024  -0.066993  -0.046786  -0.007177   0.022059   0.015760
                 24         25         26         27         28         29    
      0       0.000538   0.009770  -0.006300  -0.003271  -0.002801   0.062457
      1       0.007488   0.007926   0.026520  -0.026113  -0.007008  -0.121383
      2       0.012350  -0.012075  -0.032118   0.011850   0.002309  -0.044635
      3      -0.004218   0.091761  -0.017087  -0.004508  -0.012522   0.132822
      4       0.019093  -0.108765   0.056277  -0.037450   0.006492  -0.320473
      5       0.015176  -0.019895  -0.025436   0.005639   0.002551  -0.095446
      6       0.019709  -0.109243  -0.002907   0.005532   0.008846   0.017389
      7      -0.034880   0.168041  -0.018086  -0.004538  -0.015667   0.063911
      8       0.006018   0.034571  -0.026716   0.005504  -0.002107  -0.041546
      9       0.038239  -0.202257  -0.012486   0.007052   0.016654  -0.067548
     10      -0.052499   0.303304  -0.057774   0.008317  -0.031704   0.255822
     11       0.006651   0.046639  -0.045980   0.011997  -0.004399  -0.002727
     12       0.004308  -0.037065  -0.006034   0.010937   0.005492   0.053756
     13      -0.008767   0.026147  -0.013242   0.002677  -0.000684   0.024267
     14      -0.023102   0.035340   0.043347   0.011277   0.013917  -0.020444
     15       0.014027   0.014484  -0.066468  -0.003813  -0.009652   0.012688
     16       0.052987  -0.077338  -0.030152  -0.000933  -0.011064   0.010198
     17      -0.035489   0.020559   0.076491   0.019230   0.023162   0.003140
     18      -0.007617   0.039529  -0.008833  -0.012779  -0.007296  -0.006732
     19       0.033492  -0.033743   0.020326  -0.021489  -0.007850  -0.035464
     20       0.015803  -0.047752  -0.026128   0.011827   0.003425   0.006916
     21       0.037030  -0.031431  -0.016482  -0.011905  -0.007214  -0.044146
     22      -0.053113   0.108711  -0.017411  -0.008700  -0.008971  -0.000218
     23       0.001769  -0.024347  -0.022175   0.009142   0.002387   0.017823
     24      -0.032800   0.097950   0.002485  -0.032817  -0.016163  -0.046900
     25       0.095622  -0.143232   0.031283  -0.021894  -0.006559   0.020801
     26       0.030373  -0.068733  -0.009215  -0.002166  -0.001086   0.016031
     27       0.040126  -0.036521  -0.014888  -0.015406  -0.008197  -0.069255
     28      -0.058566   0.114726  -0.034128   0.003417  -0.006089   0.044674
     29       0.002928  -0.014748  -0.002282  -0.004473  -0.002220   0.022702
     30       0.068754  -0.087562  -0.026259  -0.005579  -0.005406  -0.039431
     31      -0.116223   0.215475  -0.033131  -0.008135  -0.011375  -0.023486
     32      -0.010318  -0.005683  -0.037264   0.013574   0.002213   0.008788
     33      -0.012272   0.069245   0.011777  -0.041210  -0.018496  -0.066608
     34       0.060236  -0.090286   0.007287  -0.007713  -0.004148   0.047595
     35       0.024574  -0.046943   0.007828  -0.013770  -0.005248   0.014533
     36      -0.053718   0.144695   0.006931  -0.041982  -0.021342  -0.037948
     37       0.139262  -0.222242   0.053355  -0.034504  -0.008085  -0.003266
     38       0.037053  -0.084659  -0.011307   0.001719   0.001007   0.013837
     39       0.008318   0.028059  -0.004603  -0.030756  -0.015473  -0.053122
     40       0.013208  -0.010809  -0.011436  -0.004330  -0.004899   0.007365
     41       0.018058  -0.033522   0.015020  -0.017527  -0.006242   0.011582
     42       0.068038  -0.092997  -0.022111  -0.003922  -0.002809  -0.067680
     43      -0.117375   0.209824  -0.055732   0.012727  -0.004966   0.053934
     44      -0.006785   0.005571   0.001152  -0.009471  -0.004519   0.021903
     45       0.002111   0.040827  -0.011989  -0.026507  -0.015974   0.004907
     46       0.024198  -0.033680  -0.007791  -0.007940  -0.002985  -0.113225
     47       0.025243  -0.040270   0.051851  -0.043337  -0.013613  -0.007805
     48       0.023219  -0.002322  -0.028778  -0.010015  -0.009401   0.035202
     49      -0.026150   0.053391  -0.031370   0.001456  -0.002048  -0.171541
     50       0.017810  -0.025469   0.056039  -0.047846  -0.015490  -0.018164
     51       0.020530   0.042708   0.011438  -0.034096  -0.017028  -0.066140
     52       0.002386   0.015009  -0.002273  -0.009417  -0.006956   0.004843
     53       0.018470  -0.015223   0.001972  -0.007366  -0.004502  -0.003289
     54       0.054422  -0.071424  -0.014620   0.022649   0.009244   0.009984
     55      -0.006138   0.027997  -0.006779  -0.005186  -0.005504   0.001064
     56      -0.108611   0.184544  -0.051354   0.037719   0.009785  -0.060510
     57       0.083656  -0.110187  -0.078194   0.092104   0.032022   0.040912
     58       0.000017  -0.035092  -0.004867   0.015032   0.007347   0.047883
     59      -0.286914   0.301393   0.368584  -0.372743  -0.111400  -0.161261
     60       0.183487  -0.149842  -0.380515   0.384569   0.117997   0.097390
     61      -0.090584   0.198990  -0.054317   0.022707  -0.000952  -0.064246
     62      -0.043594   0.184395  -0.330075   0.307188   0.089528  -0.019089
     63      -0.067901  -0.049726   0.375069  -0.346182  -0.096661  -0.043133
     64       0.066236  -0.069320   0.032887  -0.047958  -0.021307   0.017915
     65      -0.088691   0.221886  -0.244661   0.223144   0.064674  -0.044057
     66      -0.000460   0.000923   0.004576   0.014449  -0.027325  -0.010301
     67      -0.023512  -0.013028   0.007701   0.014472  -0.017413  -0.004005
     68       0.023549   0.017318   0.028622  -0.001071   0.038591   0.142644
     69       0.003182  -0.003232  -0.020251   0.001764  -0.043665  -0.054516
     70      -0.047978  -0.032294   0.010107   0.021615  -0.016978   0.017876
     71       0.085360   0.120542   0.198010   0.061244   0.154578   0.373825
     72      -0.017829  -0.005981   0.043290   0.036288   0.010651   0.077141
     73      -0.012391  -0.002843   0.020558   0.019231  -0.008928   0.012070
     74      -0.098098  -0.106405  -0.121386  -0.057979  -0.067150  -0.031042
     75      -0.020582  -0.001023   0.067573   0.047061   0.034618   0.128541
     76       0.010113   0.018379   0.027231   0.018791  -0.016631  -0.010302
     77      -0.168738  -0.216662  -0.297644  -0.123142  -0.186256  -0.257931
     78      -0.033771  -0.017716   0.041096   0.036399   0.027402   0.113259
     79      -0.029803  -0.019204   0.012562   0.017918   0.008782   0.069682
     80      -0.035342  -0.026916  -0.009208  -0.005404  -0.001140   0.039551
     81      -0.055806  -0.021102   0.053171   0.046966   0.058608   0.194191
     82      -0.044331  -0.021738   0.015232   0.017010   0.007966   0.069882
     83       0.061509  -0.003979  -0.024488   0.000966   0.003430   0.032908
     84       0.017534   0.011073  -0.005410   0.003450  -0.025116  -0.025355
     85      -0.004762  -0.000491   0.000800   0.004017  -0.008892  -0.023682
     86       0.066778   0.030710  -0.000401  -0.002054   0.013648   0.020694
     87       0.048747   0.025002  -0.008952  -0.005209  -0.007423  -0.018453
     88       0.001036   0.001909   0.002686   0.005082  -0.008160  -0.021208
     89      -0.107116  -0.046007  -0.015390   0.000243  -0.015043  -0.030779
     90       0.005335   0.005860  -0.007397   0.003984  -0.033094  -0.025577
     91       0.002495   0.002931  -0.000301  -0.004734   0.016239  -0.014629
     92       0.191179   0.087286   0.002080   0.003481   0.011671  -0.041823
     93       0.055650   0.027952  -0.008850  -0.009191   0.006866  -0.005224
     94       0.007823   0.004818   0.003022   0.000800   0.007862  -0.009492
     95      -0.115933  -0.053886  -0.024196  -0.000182  -0.031092  -0.078617
     96       0.062627   0.030991  -0.009647  -0.007201  -0.002403  -0.017296
     97      -0.004621  -0.001212   0.004174   0.009863  -0.020406  -0.030264
     98      -0.234975  -0.099806  -0.017179  -0.000390  -0.018821  -0.009148
     99       0.014932   0.010036  -0.008776  -0.000078  -0.022614  -0.016939
    100       0.008633   0.004260   0.000528  -0.008444   0.032575   0.000467
    101       0.117763   0.055029   0.002940   0.011099  -0.011024  -0.068796
    102      -0.009574  -0.001704  -0.006920   0.010526  -0.050933  -0.031181
    103      -0.000248   0.001631  -0.001646  -0.006200   0.017787  -0.015790
    104       0.285969   0.136062   0.019771   0.006861   0.034140  -0.015539
    105       0.038170   0.020105  -0.009313  -0.005247  -0.005637  -0.010552
    106       0.010279   0.004986   0.000668  -0.007011   0.029126  -0.003482
    107       0.030201   0.014219  -0.001388   0.003002  -0.007351  -0.030337
    108       0.071127   0.034699  -0.007747  -0.013465   0.025418   0.004712
    109       0.011215   0.006269   0.002989   0.001367   0.005520  -0.011072
    110      -0.233225  -0.108015  -0.035455  -0.004532  -0.041978  -0.088076
    111       0.047350   0.023534  -0.013557  -0.011783   0.009045  -0.014922
    112       0.021526   0.008694  -0.003693  -0.017067   0.052368  -0.000167
    113       0.057038   0.028352   0.021281  -0.005204   0.030151   0.100222
    114       0.068145   0.031707  -0.015489  -0.020436   0.031889  -0.006615
    115       0.021836   0.008888  -0.003591  -0.014866   0.045962  -0.005405
    116      -0.032872  -0.010661   0.023236  -0.005364   0.030701   0.137334
    117       0.030838   0.018708  -0.015150  -0.006518  -0.019080  -0.032071
    118       0.008746   0.001021   0.017041   0.010350   0.019670   0.025622
    119      -0.001871   0.002625   0.000837   0.005881  -0.010857  -0.034526
    120      -0.129858  -0.057420  -0.022291  -0.017130  -0.006355   0.032622
    121      -0.122546  -0.052412   0.020530   0.029381  -0.052287   0.047136
    122      -0.110585  -0.048946  -0.003327  -0.000471  -0.003461   0.009310
    123      -0.263325  -0.112865  -0.143401  -0.206055   0.283062   0.108302
    124      -0.243951  -0.093094  -0.155031  -0.236374   0.332895   0.108402
    125      -0.128152  -0.047914  -0.074969  -0.105440   0.138811   0.013098
    126      -0.109679  -0.042897  -0.096550  -0.133822   0.175784   0.038872
    127      -0.049248  -0.033347   0.233305   0.359786  -0.555587  -0.015965
    128      -0.303151  -0.133956  -0.055578  -0.076817   0.096744   0.085864
    129      -0.145015  -0.076682   0.161806   0.271559  -0.455599   0.004924
    130      -0.170379  -0.070865  -0.004849  -0.005462  -0.012113   0.060223
    131       0.012236  -0.005657   0.114753   0.172295  -0.235231  -0.035433
    132      -0.029085  -0.026256   0.030246   0.025636   0.015563   0.093660
    133      -0.025397  -0.015238  -0.001914   0.015444   0.017413   0.072933
    134      -0.046504   0.025236   0.067945   0.021745   0.026047   0.027862
    135      -0.042789  -0.040136   0.018610   0.017939   0.011837   0.136037
    136      -0.017902  -0.040857  -0.003890   0.022260   0.020915   0.094191
    137      -0.051912   0.045343   0.068347   0.015689   0.022502   0.009763
    138      -0.050496  -0.026682   0.049848   0.042861   0.047076  -0.005221
    139      -0.006746  -0.013601  -0.007013   0.020985   0.024728  -0.009971
    140      -0.006064   0.012337   0.066646   0.025602   0.017564   0.021780
    141      -0.035995  -0.010520   0.039543   0.029150   0.038379  -0.114463
    142       0.016699   0.002284  -0.019247   0.006110   0.010046  -0.121770
    143       0.020518   0.015576   0.034093   0.010983  -0.001456   0.007567
    144      -0.012795   0.004056  -0.021127  -0.030673  -0.034828   0.149236
    145       0.061993   0.029948  -0.040640  -0.042340  -0.064374   0.167866
    146      -0.002434   0.002334  -0.029141  -0.013515  -0.010872   0.010175
    147      -0.074320  -0.039998   0.051378   0.058669   0.085905  -0.230499
    148       0.003624  -0.012860   0.037302   0.048212   0.055758  -0.200544
    149       0.007508   0.005351   0.019052   0.011141   0.006613  -0.017498
                 30         31         32         33         34         35    
      0      -0.115120   0.008164  -0.018551   0.016229   0.050530   0.041445
      1       0.217967  -0.010189   0.074140  -0.026223  -0.126798  -0.017734
      2       0.042672  -0.017069  -0.018567  -0.017038  -0.068063   0.014074
      3      -0.282607   0.004977   0.010406   0.041390   0.151594   0.074897
      4       0.527180  -0.020591  -0.037076  -0.084852  -0.356904  -0.053401
      5       0.089719  -0.023384  -0.052584  -0.029714  -0.114344   0.013919
      6       0.038089   0.010945   0.012294   0.005449  -0.013835   0.040807
      7      -0.055661  -0.000306   0.118772   0.003082  -0.027278   0.006115
      8      -0.006793  -0.017964  -0.036336  -0.016263  -0.060883   0.025469
      9       0.206045  -0.007521  -0.036203  -0.019077  -0.126441   0.017512
     10      -0.372076   0.004046   0.258251   0.052781   0.166304   0.032462
     11      -0.055523  -0.023724  -0.002229  -0.007658  -0.036557   0.027141
     12      -0.006072   0.015390   0.112819   0.005802  -0.025672   0.056488
     13       0.033459   0.004639  -0.040394  -0.004907  -0.048864   0.023266
     14       0.013582   0.044267  -0.083770  -0.020115  -0.038900   0.061636
     15       0.008880  -0.046092   0.056549   0.002854  -0.116630   0.061358
     16      -0.007294  -0.030386   0.153675   0.008068  -0.052950   0.017741
     17       0.010942   0.078887  -0.078360  -0.018879   0.007380   0.061360
     18      -0.034011  -0.005597  -0.046763  -0.009164  -0.039882  -0.000927
     19       0.059413  -0.006463   0.087116   0.019778   0.073086   0.021158
     20       0.010599  -0.007038  -0.001381   0.003151   0.029461  -0.032218
     21       0.020326  -0.016691  -0.013738   0.008019   0.057316  -0.024660
     22      -0.027344  -0.009355   0.000066  -0.002137  -0.004035  -0.017630
     23      -0.009231  -0.004081  -0.014553  -0.001164   0.007814  -0.031280
     24      -0.001018  -0.012827  -0.039236  -0.027193  -0.102833  -0.039159
     25      -0.038141   0.000716   0.038211   0.046842   0.191629   0.041669
     26      -0.018760  -0.006247  -0.017319   0.007154   0.052598  -0.050226
     27       0.064934  -0.021081   0.015288   0.004958   0.049780  -0.042999
     28      -0.107572  -0.006894  -0.061061   0.008781   0.048442  -0.012632
     29      -0.035577  -0.000113  -0.022953   0.006533   0.036197  -0.008635
     30       0.011999  -0.019943  -0.014275   0.022304   0.133753  -0.037028
     31      -0.001703  -0.015464  -0.015121  -0.029854  -0.117605  -0.054070
     32      -0.002097  -0.009407  -0.023315  -0.006065   0.000963  -0.059721
     33       0.028832  -0.016924   0.003447  -0.005812  -0.013001  -0.027656
     34      -0.100602   0.003219  -0.065442  -0.005946  -0.015532  -0.004915
     35      -0.036312  -0.002526  -0.027141   0.008349   0.055188  -0.028478
     36      -0.034595  -0.013321  -0.054284  -0.036438  -0.137529  -0.055801
[...]
              = E(kin-el) + E(nuc-el) + E(el-el) + E(nuc-nuc)
    E(ZPE)  - the the zero temperature vibrational energy from the frequency calculation
    E(vib)  - the the finite temperature correction to E(ZPE) due to population
              of excited vibrational states
    E(rot)  - is the rotational thermal energy
    E(trans)- is the translational thermal energy

Summary of contributions to the inner energy U:
Electronic energy                ...      0.00000000 Eh
Zero point energy                ...      0.37276388 Eh     233.91 kcal/mol
Thermal vibrational correction   ...      0.02757634 Eh      17.30 kcal/mol
Thermal rotational correction    ...      0.00141627 Eh       0.89 kcal/mol
Thermal translational correction ...      0.00141627 Eh       0.89 kcal/mol
-----------------------------------------------------------------------
Total thermal energy                      0.40317276 Eh


Summary of corrections to the electronic energy:
(perhaps to be used in another calculation)
Total thermal correction                  0.03040888 Eh      19.08 kcal/mol
Non-thermal (ZPE) correction              0.37276388 Eh     233.91 kcal/mol
-----------------------------------------------------------------------
Total correction                          0.40317276 Eh     252.99 kcal/mol


--------
ENTHALPY
--------

The enthalpy is H = U + kB*T
                kB is Boltzmann's constant
Total thermal energy              ...      0.40317276 Eh 
Thermal Enthalpy correction       ...      0.00094421 Eh       0.59 kcal/mol
-----------------------------------------------------------------------
Total Enthalpy                    ...      0.40411697 Eh


Note: Only C1 symmetry has been detected, increase convergence thresholds 
      if your molecule has a higher symmetry. Symmetry factor of 1.0 is   
      used for the rotational entropy correction. 
 

Note: Rotational entropy computed according to Herzberg 
Infrared and Raman Spectra, Chapter V,1, Van Nostrand Reinhold, 1945 
Point Group:  C1, Symmetry Number:   1  
Rotational constants in cm-1:     0.007134     0.001708     0.001461 

Vibrational entropy computed according to the QRRHO of S. Grimme
Chem.Eur.J. 2012 18 9955 using a reference frequency of 100.0 cm-1


-------
ENTROPY
-------

The entropy contributions are T*S = T*(S(el)+S(vib)+S(rot)+S(trans))
     S(el)   - electronic entropy
     S(vib)  - vibrational entropy
     S(rot)  - rotational entropy
     S(trans)- translational entropy
The entropies will be listed as multiplied by the temperature to get
units of energy

Electronic entropy                ...      0.00065446 Eh      0.41 kcal/mol
Vibrational entropy               ...      0.05107421 Eh     32.05 kcal/mol
Rotational entropy                ...      0.01793481 Eh     11.25 kcal/mol
Translational entropy             ...      0.02088467 Eh     13.11 kcal/mol
-----------------------------------------------------------------------
Final entropy term                ...      0.09054814 Eh     56.82 kcal/mol

In case the symmetry of your molecule has not been determined correctly
or in case you have a reason to use a different symmetry number we print 
out the resulting rotational entropy values for sn=1,12:

 non-linear molecules -----------------------------------
|  sn= 1 | S(rot)=       0.01793481 Eh     11.25 kcal/mol|
|  sn= 2 | S(rot)=       0.01728035 Eh     10.84 kcal/mol|
|  sn= 3 | S(rot)=       0.01689752 Eh     10.60 kcal/mol|
|  sn= 4 | S(rot)=       0.01662589 Eh     10.43 kcal/mol|
|  sn= 5 | S(rot)=       0.01641520 Eh     10.30 kcal/mol|
|  sn= 6 | S(rot)=       0.01624306 Eh     10.19 kcal/mol|
|  sn= 7 | S(rot)=       0.01609751 Eh     10.10 kcal/mol|
|  sn= 8 | S(rot)=       0.01597144 Eh     10.02 kcal/mol|
|  sn= 9 | S(rot)=       0.01586023 Eh      9.95 kcal/mol|
|  sn=10 | S(rot)=       0.01576075 Eh      9.89 kcal/mol|
|  sn=11 | S(rot)=       0.01567076 Eh      9.83 kcal/mol|
|  sn=12 | S(rot)=       0.01558860 Eh      9.78 kcal/mol|
 linear molecules ---------------------------------------
|  Dinfh | S(rot)=       0.01149029 Eh      7.21 kcal/mol|
|  Cinfv | S(rot)=       0.01214475 Eh      7.62 kcal/mol|
 --------------------------------------------------------


-------------------
GIBBS FREE ENERGY
-------------------

The Gibbs free energy is G = H - T*S

Total enthalpy                    ...      0.40411697 Eh 
Total entropy correction          ...     -0.09054814 Eh    -56.82 kcal/mol
-----------------------------------------------------------------------
Final Gibbs free energy         ...      0.31356883 Eh

For completeness - the Gibbs free energy minus the electronic energy
G-E(el)                           ...      0.31356883 Eh    196.77 kcal/mol


The first frequency considered to be a vibration is 7
The total number of vibrations considered is 143


--------------------------
THERMOCHEMISTRY AT 363.15K
--------------------------

Temperature         ...   363.15 K
Pressure            ...     1.00 atm
Total Mass          ...   414.39 AMU
Quasi RRHO          ...     True
Cut-Off Frequency   ...     1.00 cm^-1

Throughout the following assumptions are being made:
  (1) The electronic state is orbitally nondegenerate
      but the spin degeneracy is treated
  (2) There are no thermally accessible electronically excited states
  (3) Hindered rotations indicated by low frequency modes are not
      treated as such but are treated as vibrations and this may
      cause some error
  (4) All equations used are the standard statistical mechanics
      equations for an ideal gas
  (5) All vibrations are strictly harmonic

freq.       8.13  E(vib)   ...       0.71 
freq.      20.53  E(vib)   ...       0.69 
freq.      23.48  E(vib)   ...       0.69 
freq.      29.30  E(vib)   ...       0.68 
freq.      31.79  E(vib)   ...       0.68 
freq.      47.61  E(vib)   ...       0.66 
freq.      49.70  E(vib)   ...       0.65 
freq.      54.62  E(vib)   ...       0.65 
freq.      61.82  E(vib)   ...       0.64 
freq.      71.65  E(vib)   ...       0.62 
freq.      84.51  E(vib)   ...       0.61 
freq.      88.66  E(vib)   ...       0.60 
freq.     105.88  E(vib)   ...       0.58 
freq.     114.73  E(vib)   ...       0.57 
freq.     131.82  E(vib)   ...       0.55 
freq.     134.88  E(vib)   ...       0.55 
freq.     143.88  E(vib)   ...       0.54 
freq.     150.96  E(vib)   ...       0.53 
freq.     156.06  E(vib)   ...       0.52 
freq.     171.77  E(vib)   ...       0.50 
freq.     173.31  E(vib)   ...       0.50 
freq.     177.56  E(vib)   ...       0.50 
freq.     199.59  E(vib)   ...       0.47 
freq.     208.80  E(vib)   ...       0.46 
freq.     213.96  E(vib)   ...       0.46 
freq.     251.64  E(vib)   ...       0.42 
freq.     299.91  E(vib)   ...       0.38 
freq.     300.48  E(vib)   ...       0.38 
freq.     317.27  E(vib)   ...       0.36 
freq.     320.24  E(vib)   ...       0.36 
freq.     335.28  E(vib)   ...       0.35 
freq.     338.36  E(vib)   ...       0.34 
freq.     380.68  E(vib)   ...       0.31 
freq.     388.50  E(vib)   ...       0.30 
freq.     395.53  E(vib)   ...       0.30 
freq.     397.86  E(vib)   ...       0.30 
freq.     403.52  E(vib)   ...       0.29 
freq.     421.05  E(vib)   ...       0.28 
freq.     467.89  E(vib)   ...       0.25 
freq.     474.60  E(vib)   ...       0.24 
freq.     500.66  E(vib)   ...       0.23 
freq.     504.22  E(vib)   ...       0.23 
freq.     539.97  E(vib)   ...       0.21 
freq.     557.80  E(vib)   ...       0.20 
freq.     566.66  E(vib)   ...       0.19 
freq.     577.38  E(vib)   ...       0.19 
freq.     592.55  E(vib)   ...       0.18 
freq.     595.06  E(vib)   ...       0.18 
freq.     611.72  E(vib)   ...       0.17 
freq.     627.72  E(vib)   ...       0.16 
freq.     647.66  E(vib)   ...       0.15 
freq.     677.28  E(vib)   ...       0.14 
freq.     713.72  E(vib)   ...       0.13 
freq.     719.45  E(vib)   ...       0.13 
freq.     754.00  E(vib)   ...       0.11 
freq.     756.32  E(vib)   ...       0.11 
freq.     771.27  E(vib)   ...       0.11 
freq.     772.05  E(vib)   ...       0.11 
freq.     818.10  E(vib)   ...       0.10 
freq.     820.55  E(vib)   ...       0.09 
freq.     822.12  E(vib)   ...       0.09 
freq.     834.49  E(vib)   ...       0.09 
freq.     836.79  E(vib)   ...       0.09 
freq.     863.50  E(vib)   ...       0.08 
freq.     876.94  E(vib)   ...       0.08 
freq.     902.50  E(vib)   ...       0.07 
freq.     919.65  E(vib)   ...       0.07 
freq.     921.28  E(vib)   ...       0.07 
freq.     927.09  E(vib)   ...       0.07 
freq.     964.08  E(vib)   ...       0.06 
freq.     967.75  E(vib)   ...       0.06 
freq.     969.11  E(vib)   ...       0.06 
freq.     973.91  E(vib)   ...       0.06 
freq.     987.89  E(vib)   ...       0.06 
freq.    1012.31  E(vib)   ...       0.05 
freq.    1019.25  E(vib)   ...       0.05 
freq.    1055.85  E(vib)   ...       0.05 
freq.    1056.38  E(vib)   ...       0.05 
freq.    1091.67  E(vib)   ...       0.04 
freq.    1143.13  E(vib)   ...       0.04 
freq.    1144.06  E(vib)   ...       0.04 
freq.    1168.22  E(vib)   ...       0.03 
freq.    1175.58  E(vib)   ...       0.03 
freq.    1175.93  E(vib)   ...       0.03 
freq.    1187.80  E(vib)   ...       0.03 
freq.    1189.29  E(vib)   ...       0.03 
freq.    1202.77  E(vib)   ...       0.03 
freq.    1204.12  E(vib)   ...       0.03 
freq.    1220.97  E(vib)   ...       0.03 
freq.    1222.45  E(vib)   ...       0.03 
freq.    1248.83  E(vib)   ...       0.03 
freq.    1272.55  E(vib)   ...       0.02 
freq.    1281.64  E(vib)   ...       0.02 
freq.    1288.75  E(vib)   ...       0.02 
freq.    1293.26  E(vib)   ...       0.02 
freq.    1296.61  E(vib)   ...       0.02 
freq.    1311.81  E(vib)   ...       0.02 
freq.    1313.81  E(vib)   ...       0.02 
freq.    1320.89  E(vib)   ...       0.02 
freq.    1330.43  E(vib)   ...       0.02 
freq.    1362.36  E(vib)   ...       0.02 
freq.    1365.12  E(vib)   ...       0.02 
freq.    1378.94  E(vib)   ...       0.02 
freq.    1380.44  E(vib)   ...       0.02 
freq.    1381.29  E(vib)   ...       0.02 
freq.    1465.52  E(vib)   ...       0.01 
freq.    1466.39  E(vib)   ...       0.01 
freq.    1483.88  E(vib)   ...       0.01 
freq.    1484.52  E(vib)   ...       0.01 
freq.    1492.53  E(vib)   ...       0.01 
freq.    1493.61  E(vib)   ...       0.01 
freq.    1494.48  E(vib)   ...       0.01 
freq.    1494.88  E(vib)   ...       0.01 
freq.    1558.69  E(vib)   ...       0.01 
freq.    1559.79  E(vib)   ...       0.01 
freq.    1661.46  E(vib)   ...       0.01 
freq.    1662.15  E(vib)   ...       0.01 
freq.    1669.45  E(vib)   ...       0.01 
freq.    1673.55  E(vib)   ...       0.01 
freq.    1682.23  E(vib)   ...       0.01 
freq.    1702.71  E(vib)   ...       0.01 
freq.    1705.13  E(vib)   ...       0.01 
freq.    1712.44  E(vib)   ...       0.01 
freq.    1730.47  E(vib)   ...       0.01 
freq.    3045.13  E(vib)   ...       0.00 
freq.    3045.62  E(vib)   ...       0.00 
freq.    3120.03  E(vib)   ...       0.00 
freq.    3120.98  E(vib)   ...       0.00 
freq.    3138.52  E(vib)   ...       0.00 
freq.    3164.28  E(vib)   ...       0.00 
freq.    3166.04  E(vib)   ...       0.00 
freq.    3166.49  E(vib)   ...       0.00 
freq.    3171.71  E(vib)   ...       0.00 
freq.    3181.61  E(vib)   ...       0.00 
freq.    3183.35  E(vib)   ...       0.00 
freq.    3189.72  E(vib)   ...       0.00 
freq.    3194.86  E(vib)   ...       0.00 
freq.    3196.88  E(vib)   ...       0.00 
freq.    3198.52  E(vib)   ...       0.00 
freq.    3206.25  E(vib)   ...       0.00 
freq.    3206.38  E(vib)   ...       0.00 
freq.    3798.34  E(vib)   ...       0.00 
freq.    3800.26  E(vib)   ...       0.00 

------------
INNER ENERGY
------------

The inner energy is: U= E(el) + E(ZPE) + E(vib) + E(rot) + E(trans)
    E(el)   - is the total energy from the electronic structure calculation
              = E(kin-el) + E(nuc-el) + E(el-el) + E(nuc-nuc)
    E(ZPE)  - the the zero temperature vibrational energy from the frequency calculation
    E(vib)  - the the finite temperature correction to E(ZPE) due to population
              of excited vibrational states
    E(rot)  - is the rotational thermal energy
    E(trans)- is the translational thermal energy

Summary of contributions to the inner energy U:
Electronic energy                ...      0.00000000 Eh
Zero point energy                ...      0.37276388 Eh     233.91 kcal/mol
Thermal vibrational correction   ...      0.03928708 Eh      24.65 kcal/mol
Thermal rotational correction    ...      0.00172503 Eh       1.08 kcal/mol
Thermal translational correction ...      0.00172503 Eh       1.08 kcal/mol
-----------------------------------------------------------------------
Total thermal energy                      0.41550102 Eh


Summary of corrections to the electronic energy:
(perhaps to be used in another calculation)
Total thermal correction                  0.04273715 Eh      26.82 kcal/mol
Non-thermal (ZPE) correction              0.37276388 Eh     233.91 kcal/mol
-----------------------------------------------------------------------
Total correction                          0.41550102 Eh     260.73 kcal/mol


--------
ENTHALPY
--------

The enthalpy is H = U + kB*T
                kB is Boltzmann's constant
Total thermal energy              ...      0.41550102 Eh 
Thermal Enthalpy correction       ...      0.00115006 Eh       0.72 kcal/mol
-----------------------------------------------------------------------
Total Enthalpy                    ...      0.41665108 Eh


Note: Only C1 symmetry has been detected, increase convergence thresholds 
      if your molecule has a higher symmetry. Symmetry factor of 1.0 is   
      used for the rotational entropy correction. 
 

Note: Rotational entropy computed according to Herzberg 
Infrared and Raman Spectra, Chapter V,1, Van Nostrand Reinhold, 1945 
Point Group:  C1, Symmetry Number:   1  
Rotational constants in cm-1:     0.007134     0.001708     0.001461 

Vibrational entropy computed according to the QRRHO of S. Grimme
Chem.Eur.J. 2012 18 9955 using a reference frequency of 100.0 cm-1


-------
ENTROPY
-------

The entropy contributions are T*S = T*(S(el)+S(vib)+S(rot)+S(trans))
     S(el)   - electronic entropy
     S(vib)  - vibrational entropy
     S(rot)  - rotational entropy
     S(trans)- translational entropy
The entropies will be listed as multiplied by the temperature to get
units of energy

Electronic entropy                ...      0.00079714 Eh      0.50 kcal/mol
Vibrational entropy               ...      0.07362444 Eh     46.20 kcal/mol
Rotational entropy                ...      0.02218500 Eh     13.92 kcal/mol
Translational entropy             ...      0.02600477 Eh     16.32 kcal/mol
-----------------------------------------------------------------------
Final entropy term                ...      0.12261135 Eh     76.94 kcal/mol

In case the symmetry of your molecule has not been determined correctly
or in case you have a reason to use a different symmetry number we print 
out the resulting rotational entropy values for sn=1,12:

 non-linear molecules -----------------------------------
|  sn= 1 | S(rot)=       0.02218500 Eh     13.92 kcal/mol|
|  sn= 2 | S(rot)=       0.02138787 Eh     13.42 kcal/mol|
|  sn= 3 | S(rot)=       0.02092157 Eh     13.13 kcal/mol|
|  sn= 4 | S(rot)=       0.02059073 Eh     12.92 kcal/mol|
|  sn= 5 | S(rot)=       0.02033411 Eh     12.76 kcal/mol|
|  sn= 6 | S(rot)=       0.02012444 Eh     12.63 kcal/mol|
|  sn= 7 | S(rot)=       0.01994716 Eh     12.52 kcal/mol|
|  sn= 8 | S(rot)=       0.01979360 Eh     12.42 kcal/mol|
|  sn= 9 | S(rot)=       0.01965814 Eh     12.34 kcal/mol|
|  sn=10 | S(rot)=       0.01953698 Eh     12.26 kcal/mol|
|  sn=11 | S(rot)=       0.01942737 Eh     12.19 kcal/mol|
|  sn=12 | S(rot)=       0.01932730 Eh     12.13 kcal/mol|
 linear molecules ---------------------------------------
|  Dinfh | S(rot)=       0.01422211 Eh      8.92 kcal/mol|
|  Cinfv | S(rot)=       0.01501925 Eh      9.42 kcal/mol|
 --------------------------------------------------------


-------------------
GIBBS FREE ENERGY
-------------------

The Gibbs free energy is G = H - T*S

Total enthalpy                    ...      0.41665108 Eh 
Total entropy correction          ...     -0.12261135 Eh    -76.94 kcal/mol
-----------------------------------------------------------------------
Final Gibbs free energy         ...      0.29403974 Eh

For completeness - the Gibbs free energy minus the electronic energy
G-E(el)                           ...      0.29403974 Eh    184.51 kcal/mol


--------------------------------
SUGGESTED CITATIONS FOR THIS RUN
--------------------------------

Below you find a list of papers that are relevant to this ORCA run
We neither can nor want to force you to cite these papers, but we appreciate if you do
You receive ORCA, which is the product of decades of hard work by many enthusiastic individuals, for free
The only thing we kindly ask in return is that you cite our papers,
We deeply appreciate it, if you show your appreciation for ORCA by not just citing the generic ORCA reference.

Please note that relegating all ORCA citations to the supporting information does *not* help us.
SI sections are not indexed - citations you put there will not count into any citation statistics
But we need these citations in order to attract the funding resources that allow us to do what we are doing

Therefore, if you are a happy ORCA user, please consider citing a few of the papers listed below in the main body of your paper

In addition to the list printed below, the program has created the file test-363.bibtex that contains the list in bibtex format
You can import this file easily into all common literature databanks and citation aid programs


List of essential papers. We consider these as the minimum necessary citations

  1. Neese,F.
     Software update: the ORCA program system, version 5.0
     WIRES Comput. Molec. Sci., 2022 12(1)e1606
     doi.org/10.1002/wcms.1606

List of papers to cite with high priority. The work reported in these papers was absolutely
necessary for this run to complete.
Our perspective: the developers of density functionals and basis sets usually get cited in chemistry papers
Good! But without the algorithms to do something with them, the functionals or basis sets would not do anything.
Hence, in our opinion, the algorithm design and method developments papers are equally worthy of getting cited

  1. Garcia-Rates,M.; Neese,F.
     Effect of the Solute Cavity on the Solvation Energy and its Derivatives within the Framework of the Gaussian Charge Scheme
     J. Comput. Chem., 2020 41 922-939
     doi.org/10.1002/jcc.26139
  2. Neese,F.
     The SHARK Integral Generation and Digestion System
     J. Comp. Chem., 2022  1-16
     doi.org/10.1002/jcc.26942

List of suggested additional citations. These are papers that are important in the 'surrounding' of 
of this run, or papers that preceded the highly important papers. If you like your results we are grateful for a citation.

  1. Neese,F.
     The ORCA program system
     WIRES Comput. Molec. Sci., 2012 2(1)73-78
     doi.org/10.1002/wcms.81
  2. Neese,F.
     Software update: the ORCA program system, version 4.0
     WIRES Comput. Molec. Sci., 2018 8(1)1-6
     doi.org/10.1002/wcms.1327
  3. Neese,F.; Wennmohs,F.; Becker,U.; Riplinger,C.
     The ORCA quantum chemistry program package
     J. Chem. Phys., 2020 152 Art. No. L224108
     doi.org/10.1063/5.0004608

List of optional additional citations

  1. Neese,F.
     Approximate second-order SCF convergence for spin unrestricted wavefunctions
     Chem. Phys. Lett., 2000 325(1-3)93-98
     doi.org/10.1016/s0009-2614(00)00662-x

Timings for individual modules:

                             ****ORCA TERMINATED NORMALLY****
TOTAL RUN TIME: 0 days 0 hours 0 minutes 0 seconds 235 msec
