
                                 *****************
                                 * O   R   C   A *
                                 *****************

                                            #,                                       
                                            ###                                      
                                            ####                                     
                                            #####                                    
                                            ######                                   
                                           ########,                                 
                                     ,,################,,,,,                         
                               ,,#################################,,                 
                          ,,##########################################,,             
                       ,#########################################, ''#####,          
                    ,#############################################,,   '####,        
                  ,##################################################,,,,####,       
                ,###########''''           ''''###############################       
              ,#####''   ,,,,##########,,,,          '''####'''          '####       
            ,##' ,,,,###########################,,,                        '##       
           ' ,,###''''                  '''############,,,                           
         ,,##''                                '''############,,,,        ,,,,,,###''
      ,#''                                            '''#######################'''  
     '                                                          ''''####''''         
             ,#######,   #######,   ,#######,      ##                                
            ,#'     '#,  ##    ##  ,#'     '#,    #''#        ######   ,####,        
            ##       ##  ##   ,#'  ##            #'  '#       #        #'  '#        
            ##       ##  #######   ##           ,######,      #####,   #    #        
            '#,     ,#'  ##    ##  '#,     ,#' ,#      #,         ##   #,  ,#        
             '#######'   ##     ##  '#######'  #'      '#     #####' # '####'        



                  #######################################################
                  #                        -***-                        #
                  #          Department of theory and spectroscopy      #
                  #    Directorship and core code : Frank Neese         #
                  #        Max Planck Institute fuer Kohlenforschung    #
                  #                Kaiser Wilhelm Platz 1               #
                  #                 D-45470 Muelheim/Ruhr               #
                  #                      Germany                        #
                  #                                                     #
                  #                  All rights reserved                #
                  #                        -***-                        #
                  #######################################################


                         Program Version 5.0.4 -  RELEASE  -


 With contributions from (in alphabetic order):
   Daniel Aravena         : Magnetic Suceptibility
   Michael Atanasov       : Ab Initio Ligand Field Theory (pilot matlab implementation)
   Alexander A. Auer      : GIAO ZORA, VPT2 properties, NMR spectrum
   Ute Becker             : Parallelization
   Giovanni Bistoni       : ED, misc. LED, open-shell LED, HFLD
   Martin Brehm           : Molecular dynamics
   Dmytro Bykov           : SCF Hessian
   Vijay G. Chilkuri      : MRCI spin determinant printing, contributions to CSF-ICE
   Dipayan Datta          : RHF DLPNO-CCSD density
   Achintya Kumar Dutta   : EOM-CC, STEOM-CC
   Dmitry Ganyushin       : Spin-Orbit,Spin-Spin,Magnetic field MRCI
   Miquel Garcia          : C-PCM and meta-GGA Hessian, CC/C-PCM, Gaussian charge scheme
   Yang Guo               : DLPNO-NEVPT2, F12-NEVPT2, CIM, IAO-localization
   Andreas Hansen         : Spin unrestricted coupled pair/coupled cluster methods
   Benjamin Helmich-Paris : MC-RPA, TRAH-SCF, COSX integrals
   Lee Huntington         : MR-EOM, pCC
   Robert Izsak           : Overlap fitted RIJCOSX, COSX-SCS-MP3, EOM
   Marcus Kettner         : VPT2
   Christian Kollmar      : KDIIS, OOCD, Brueckner-CCSD(T), CCSD density, CASPT2, CASPT2-K
   Simone Kossmann        : Meta GGA functionals, TD-DFT gradient, OOMP2, MP2 Hessian
   Martin Krupicka        : Initial AUTO-CI
   Lucas Lang             : DCDCAS
   Marvin Lechner         : AUTO-CI (C++ implementation), FIC-MRCC
   Dagmar Lenk            : GEPOL surface, SMD
   Dimitrios Liakos       : Extrapolation schemes; Compound Job, initial MDCI parallelization
   Dimitrios Manganas     : Further ROCIS development; embedding schemes
   Dimitrios Pantazis     : SARC Basis sets
   Anastasios Papadopoulos: AUTO-CI, single reference methods and gradients
   Taras Petrenko         : DFT Hessian,TD-DFT gradient, ASA, ECA, R-Raman, ABS, FL, XAS/XES, NRVS
   Peter Pinski           : DLPNO-MP2, DLPNO-MP2 Gradient
   Christoph Reimann      : Effective Core Potentials
   Marius Retegan         : Local ZFS, SOC
   Christoph Riplinger    : Optimizer, TS searches, QM/MM, DLPNO-CCSD(T), (RO)-DLPNO pert. Triples
   Tobias Risthaus        : Range-separated hybrids, TD-DFT gradient, RPA, STAB
   Michael Roemelt        : Original ROCIS implementation
   Masaaki Saitow         : Open-shell DLPNO-CCSD energy and density
   Barbara Sandhoefer     : DKH picture change effects
   Avijit Sen             : IP-ROCIS
   Kantharuban Sivalingam : CASSCF convergence, NEVPT2, FIC-MRCI
   Bernardo de Souza      : ESD, SOC TD-DFT
   Georgi Stoychev        : AutoAux, RI-MP2 NMR, DLPNO-MP2 response
   Willem Van den Heuvel  : Paramagnetic NMR
   Boris Wezisla          : Elementary symmetry handling
   Frank Wennmohs         : Technical directorship


 We gratefully acknowledge several colleagues who have allowed us to
 interface, adapt or use parts of their codes:
   Stefan Grimme, W. Hujo, H. Kruse, P. Pracht,  : VdW corrections, initial TS optimization,
                  C. Bannwarth, S. Ehlert          DFT functionals, gCP, sTDA/sTD-DF
   Ed Valeev, F. Pavosevic, A. Kumar             : LibInt (2-el integral package), F12 methods
   Garnet Chan, S. Sharma, J. Yang, R. Olivares  : DMRG
   Ulf Ekstrom                                   : XCFun DFT Library
   Mihaly Kallay                                 : mrcc  (arbitrary order and MRCC methods)
   Jiri Pittner, Ondrej Demel                    : Mk-CCSD
   Frank Weinhold                                : gennbo (NPA and NBO analysis)
   Christopher J. Cramer and Donald G. Truhlar   : smd solvation model
   Lars Goerigk                                  : TD-DFT with DH, B97 family of functionals
   V. Asgeirsson, H. Jonsson                     : NEB implementation
   FAccTs GmbH                                   : IRC, NEB, NEB-TS, DLPNO-Multilevel, CI-OPT
                                                   MM, QMMM, 2- and 3-layer-ONIOM, Crystal-QMMM,
                                                   LR-CPCM, SF, NACMEs, symmetry and pop. for TD-DFT,
                                                   nearIR, NL-DFT gradient (VV10), updates on ESD,
                                                   ML-optimized integration grids
   S Lehtola, MJT Oliveira, MAL Marques          : LibXC Library
   Liviu Ungur et al                             : ANISO software


 Your calculation uses the libint2 library for the computation of 2-el integrals
 For citations please refer to: http://libint.valeyev.net

 Your ORCA version has been built with support for libXC version: 5.1.0
 For citations please refer to: https://tddft.org/programs/libxc/

 This ORCA versions uses:
   CBLAS   interface :  Fast vector & matrix operations
   LAPACKE interface :  Fast linear algebra routines
   SCALAPACK package :  Parallel linear algebra routines
   Shared memory     :  Shared parallel matrices
   BLAS/LAPACK       :  OpenBLAS 0.3.15  USE64BITINT DYNAMIC_ARCH NO_AFFINITY Sandybridge SINGLE_THREADED
        Core in use  :  Sandybridge
   Copyright (c) 2011-2014, The OpenBLAS Project


Your calculation utilizes the DFT-NL dispersion correction.
Cite in your paper:
Vydrov, O. A.; Van Voorhis, T. J. Chem. Phys. 2010, 133, 244103
Hujo, W.; Grimme, S. J. Chem. Theory Comput. 2011, 7, 3866 
   

================================================================================

----- Orbital basis set information -----
Your calculation utilizes the basis: 6-311+G(d)
   H, Li - Ne  : R. Krishnan, J. S. Binkley, R. Seeger and J. A. Pople, J. Chem. Phys. 72, 650 (1980).
   Na - Ar     : A. D. McLean and G. S. Chandler J. Chem. Phys. 72, 5639, (1980).
   K  - Ca     : J.-P. Blaudeau, M. P. McGrath, L. A. Curtiss and L. Radom, J. Chem. Phys. 107, 5016 (1997).
   Ga - Kr     : L. A. Curtiss, M. P. McGrath, J.-P. Blandeau, N. E. Davis, R. C. Binning and L. Radom, J. Chem. Phys. 103, 6104 (1995).
   Pol./Diff.
   H, Li - Cl  : T. Clark, J. Chandrasekhar and P. v. R. Schleyer, J. Comp. Chem. 4, 294 (1983).
   H - Ne      : M. J. Frisch, J. A. Pople and J. S. Binkley, J. Chem. Phys. 80, 3265 (1984).

----- AuxJ basis set information -----
Your calculation utilizes the auxiliary basis: def2/J
   F. Weigend, Phys. Chem. Chem. Phys. 8, 1057 (2006).

================================================================================
                                        WARNINGS
                       Please study these warnings very carefully!
================================================================================

Using LibXC functional ID 531 : wB97M-V exchange-correlation functional
[ 1]  N. Mardirossian and M. Head-Gordon, J. Chem. Phys. 144, 214110 (2016)
Using LibXC functional ID 531 : wB97M-V exchange-correlation functional
[ 1]  N. Mardirossian and M. Head-Gordon, J. Chem. Phys. 144, 214110 (2016)

WARNING: B97M-V or wB97M-V functional requested.
  ===> : libXC variant has now been activated.
         Any manually given DFX/HFX/RangeSep scaling parameters are IGNORED!

Your calculation utilizes LibXC
 by S Lehtola, C Steigemann, MJT Oliveira & MAL Marques
Please cite in your paper:
 S Lehtola, C Steigemann, MJT Oliveira & MAL Marques, SoftwareX, 7, (2018), 1.
   


WARNING: your system is open-shell and RHF/RKS was chosen
  ===> : WILL SWITCH to UHF/UKS


WARNING: Geometry Optimization
  ===> : Switching off AutoStart
         For restart on a previous wavefunction, please use MOREAD

WARNING: Analytic gradients for DFT-NL dispersion can only be done using the self-consistent method,
  ===>   Switching to SCNL

WARNING: Self-consistent DFT-NL dispersion not compatible with AutoTRAH.
  ===>   Switching AutoTRAH off


INFO   : the flag for use of the SHARK integral package has been found!

================================================================================
                                       INPUT FILE
================================================================================
NAME = CURCUMIN-OPT-FREQ-TS-WB97M-V-2X-6-311+G-D-363.inp
|  1> ! OptTS NumFreq wb97M-V 6-311+G(d) CPCM RIJDX
|  2> %maxcore 2000
|  3> %cpcm
|  4> epsilon 7 # Dielectric constant
|  5> refrac 1.85341 # Refractive index
|  6> end
|  7> %FREQ temp 363.15 # temperature is 363.15K
|  8> end
|  9> * xyz 0 2
| 10>   C   1.92935063121372      1.74468189993089      1.12596664063356
| 11>   H   1.78856954254550      2.81702306148328      1.01973188305747
| 12>   C   1.19999399868730      1.05752925411934      2.01487843843213
| 13>   H   1.37194663778270      0.00297860421546      2.21494648717022
| 14>   C   0.13394340123299      1.66385148979481      2.83907291835187
| 15>   O   -0.29340907729508      1.07407959165611      3.81658706072436
| 16>   C   2.97953397385798      1.18166507741077      0.27432555266097
| 17>   C   4.07527489894513      1.96094517472908     -0.07837398656569
| 18>   C   3.00503064407177     -0.16772594082237     -0.14634653392110
| 19>   C   5.12084545297356      1.45441785129491     -0.84342186283343
| 20>   H   4.11559584176200      2.99085078958334      0.25998909223974
| 21>   C   3.98871357840170     -0.66833777585997     -1.01106887998478
| 22>   H   3.64480904512229     -0.86701227475442      1.46520775456609
| 23>   C   5.08153499778748      0.14699195525646     -1.31960799362772
| 24>   H   5.96254737476096      2.08928083930585     -1.10214010510112
| 25>   O   6.03353138697704     -0.39178736095338     -2.11613992157156
| 26>   H   6.73006726339230      0.25183971566793     -2.29839351571089
| 27>   O   3.84737540774871     -1.90415641240606     -1.55520852864717
| 28>   C   4.65677238570389     -2.92078965068791     -0.92780633395933
| 29>   H   4.35648019197689     -3.04090343771653      0.11487121533053
| 30>   H   4.46351821493506     -3.83766181429762     -1.47915908697950
| 31>   H   5.71352590469093     -2.65928855828997     -0.99468942481155
| 32>   C   -2.47549755108921      1.24901127343595      1.15729665565658
| 33>   H   -2.35420359308126      1.25672189171005      2.23822238274193
| 34>   C   -1.79506397044248      2.13789244842034      0.41579728038926
| 35>   H   -1.90663258958610      2.19408608668432     -0.66322042624362
| 36>   C   -0.85621372021479      3.12095069694920      0.97499985811760
| 37>   O   -0.40134181502677      4.01105014365716      0.27202744245187
| 38>   C   -3.40854931708690      0.23273591176121      0.66532271771344
| 39>   C   -4.05278202952041     -0.59177377133185      1.59065756009720
| 40>   C   -3.67779568605253      0.04278537141917     -0.69826058064165
| 41>   C   -4.93803360587111     -1.57978485499870      1.17658264616956
| 42>   H   -3.85625121128986     -0.46363265488830      2.65063298370971
| 43>   C   -4.55607208219547     -0.93553200559672     -1.11978373340628
| 44>   H   -3.19995046711782      0.64804388323120     -1.46144974766961
| 45>   C   -5.19300225484529     -1.76160421757840     -0.17834988774675
| 46>   H   -5.42840733809820     -2.22118535638637      1.90331376327853
| 47>   O   -6.03180082977008     -2.71584633377419     -0.65781837654598
| 48>   H   -6.39864699114102     -3.23646844609846      0.06778471119543
| 49>   O   -4.76813903723731     -1.13403973892692     -2.46284345322754
| 50>   C   -6.01448345829059     -0.59651723225129     -2.92355707632744
| 51>   H   -6.03376256179108      0.48749296460924     -2.77916152921443
| 52>   H   -6.07690993251266     -0.82650107512817     -3.98541553358170
| 53>   H   -6.85422119557995     -1.05584182922923     -2.39788924715499
| 54>   C   -0.43479814940332      3.01823787865086      2.43848886896884
| 55>   H   -1.28802905071177      3.22219334500144      3.08985238691730
| 56>   H   0.31421063529750      3.79470475812471      2.61585385567826
| 57>   O   1.74857599479788     -2.05318296623423      0.41653145110822
| 58>   O   0.79661259109076     -0.48976211025753     -0.72031152731796
| 59>   N   1.74621051949502     -0.97088513963452     -0.13254331456886
| 60> *
| 61> 
| 62> 
| 63> 
| 64>                          ****END OF INPUT****
================================================================================

                       *****************************
                       * Geometry Optimization Run *
                       *****************************

Geometry optimization settings:
Update method            Update   .... Bofill
Choice of coordinates    CoordSys .... Z-matrix Internals
Initial Hessian          InHess   .... Almoef's Model

Convergence Tolerances:
Energy Change            TolE     ....  5.0000e-06 Eh
Max. Gradient            TolMAXG  ....  3.0000e-04 Eh/bohr
RMS Gradient             TolRMSG  ....  1.0000e-04 Eh/bohr
Max. Displacement        TolMAXD  ....  4.0000e-03 bohr
RMS Displacement         TolRMSD  ....  2.0000e-03 bohr
Strict Convergence                ....  False
------------------------------------------------------------------------------
                        ORCA OPTIMIZATION COORDINATE SETUP
------------------------------------------------------------------------------

The optimization will be done in new redundant internal coordinates
Making redundant internal coordinates   ...  (new redundants) done
Following TS mode number                ...     0
Evaluating the initial hessian          ...  (Almloef) done
Evaluating the coordinates              ...  done
Calculating the B-matrix                .... done
Calculating the G-matrix                .... done
Diagonalizing the G-matrix              .... done
Small eigenvalue found = 1.136e-03
Small eigenvalue found = 1.908e-03
Small eigenvalue found = 6.511e-03
Small eigenvalue found = 8.118e-03
Small eigenvalue found = 9.651e-03
Small eigenvalue found = 1.494e-02
Small eigenvalue found = 1.744e-02
Small eigenvalue found = 2.792e-02
Small eigenvalue found = 2.890e-02
The first mode is                       ....   98
The number of degrees of freedom        ....  144

    -----------------------------------------------------------------
                    Redundant Internal Coordinates


    -----------------------------------------------------------------
         Definition                    Initial Value    Approx d2E/dq
    -----------------------------------------------------------------
      1. B(H   1,C   0)                  1.0867         0.364428   
      2. B(C   2,C   0)                  1.3395         0.752111   
      3. B(H   3,C   2)                  1.0870         0.364027   
      4. B(C   4,C   2)                  1.4776         0.452827   
      5. B(O   5,C   4)                  1.2190         1.048752   
      6. B(C   6,C   0)                  1.4646         0.474961   
      7. B(C   7,C   6)                  1.3901         0.624613   
      8. B(C   8,C   6)                  1.4137         0.572756   
      9. B(C   9,C   7)                  1.3911         0.622337   
     10. B(H  10,C   7)                  1.0848         0.367026   
     11. B(C  11,C   8)                  1.4021         0.597550   
     12. B(H  12,C   8)                  1.8696         0.020541   
     13. B(C  13,C  11)                  1.3979         0.606850   
     14. B(C  13,C   9)                  1.3920         0.620225   
     15. B(H  14,C   9)                  1.0856         0.366017   
     16. B(O  15,C  13)                  1.3532         0.640694   
     17. B(H  16,O  15)                  0.9657         0.509126   
     18. B(O  17,C  11)                  1.3577         0.630130   
     19. B(C  18,O  17)                  1.4430         0.460563   
     20. B(H  19,C  18)                  1.0917         0.357876   
     21. B(H  20,C  18)                  1.0872         0.363831   
     22. B(H  21,C  18)                  1.0907         0.359201   
     23. B(H  23,C  22)                  1.0877         0.363106   
     24. B(C  24,C  22)                  1.3427         0.743287   
     25. B(H  25,C  24)                  1.0862         0.365129   
     26. B(C  26,C  24)                  1.4699         0.465900   
     27. B(O  27,C  26)                  1.2220         1.037199   
     28. B(C  28,C  22)                  1.4647         0.474798   
     29. B(C  29,C  28)                  1.3968         0.609345   
     30. B(C  30,C  28)                  1.4028         0.596030   
     31. B(C  31,C  29)                  1.3897         0.625462   
     32. B(H  32,C  29)                  1.0856         0.365928   
     33. B(C  33,C  30)                  1.3806         0.646663   
     34. B(H  34,C  30)                  1.0850         0.366833   
     35. B(C  35,C  33)                  1.4051         0.591030   
     36. B(C  35,C  31)                  1.3907         0.623305   
     37. B(H  36,C  31)                  1.0863         0.365058   
     38. B(O  37,C  35)                  1.3580         0.629500   
     39. B(H  38,O  37)                  0.9655         0.509621   
     40. B(O  39,C  33)                  1.3741         0.593228   
     41. B(C  40,O  39)                  1.4334         0.477172   
     42. B(H  41,C  40)                  1.0938         0.355167   
     43. B(H  42,C  40)                  1.0883         0.362395   
     44. B(H  43,C  40)                  1.0920         0.357463   
     45. B(C  44,C  26)                  1.5264         0.378528   
     46. B(C  44,C   4)                  1.5226         0.383876   
     47. B(H  45,C  44)                  1.0926         0.356617   
     48. B(H  46,C  44)                  1.0933         0.355720   
     49. B(O  48,H  34)                  4.2209         0.000003   
     50. B(N  49,O  48)                  1.2160         0.949725   
     51. B(N  49,O  47)                  1.2136         0.958134   
     52. B(N  49,C   8)                  1.4933         0.382913   
     53. A(H   1,C   0,C   2)          120.0344         0.365450   
     54. A(H   1,C   0,C   6)          114.5417         0.338134   
     55. A(C   2,C   0,C   6)          125.3863         0.428387   
     56. A(C   0,C   2,C   4)          123.5374         0.424741   
     57. A(H   3,C   2,C   4)          114.1755         0.335396   
     58. A(C   0,C   2,H   3)          122.2528         0.365381   
     59. A(O   5,C   4,C  44)          120.6893         0.434827   
     60. A(C   2,C   4,C  44)          119.1924         0.377332   
     61. A(C   2,C   4,O   5)          120.1111         0.448002   
     62. A(C   0,C   6,C   7)          119.8173         0.414414   
     63. A(C   0,C   6,C   8)          123.5654         0.408092   
     64. A(C   7,C   6,C   8)          116.4483         0.428500   
     65. A(C   6,C   7,H  10)          118.8413         0.354494   
     66. A(C   9,C   7,H  10)          119.2946         0.354275   
     67. A(C   6,C   7,C   9)          121.8629         0.434940   
     68. A(C  11,C   8,H  12)           99.0897         0.225870   
     69. A(C   6,C   8,H  12)           96.1246         0.224563   
     70. A(C   6,C   8,C  11)          122.4777         0.425113   
     71. A(H  12,C   8,N  49)           94.5502         0.211737   
     72. A(C   6,C   8,N  49)          119.6986         0.390406   
     73. A(C  11,C   8,N  49)          113.8960         0.393311   
     74. A(C   7,C   9,C  13)          120.5916         0.434388   
     75. A(C  13,C   9,H  14)          119.3182         0.353906   
     76. A(C   7,C   9,H  14)          120.0599         0.354110   
     77. A(C   8,C  11,C  13)          118.4451         0.429541   
     78. A(C   8,C  11,O  17)          119.9420         0.429629   
     79. A(C  13,C  11,O  17)          121.5882         0.430822   
     80. A(C   9,C  13,C  11)          119.6287         0.432424   
     81. A(C  11,C  13,O  15)          116.5948         0.432110   
     82. A(C   9,C  13,O  15)          123.7433         0.433808   
     83. A(C  13,O  15,H  16)          110.6804         0.370867   
     84. A(C  11,O  17,C  18)          114.1190         0.407491   
     85. A(H  20,C  18,H  21)          110.0796         0.291196   
     86. A(H  19,C  18,H  21)          110.5769         0.290443   
     87. A(O  17,C  18,H  21)          110.3578         0.333568   
     88. A(H  19,C  18,H  20)          110.0404         0.291027   
     89. A(O  17,C  18,H  20)          105.8994         0.334278   
     90. A(O  17,C  18,H  19)          109.7850         0.333363   
     91. A(C  24,C  22,C  28)          126.6294         0.427455   
     92. A(H  23,C  22,C  28)          114.1878         0.337910   
     93. A(H  23,C  22,C  24)          119.1813         0.364485   
     94. A(H  25,C  24,C  26)          114.1372         0.337159   
     95. A(C  22,C  24,C  26)          123.8023         0.426009   
     96. A(C  22,C  24,H  25)          122.0572         0.364832   
     97. A(C  24,C  26,O  27)          120.4006         0.449417   
     98. A(O  27,C  26,C  44)          119.8535         0.432867   
     99. A(C  24,C  26,C  44)          119.7419         0.378275   
    100. A(C  29,C  28,C  30)          118.3905         0.429661   
    101. A(C  22,C  28,C  30)          122.8672         0.410957   
    102. A(C  22,C  28,C  29)          118.7406         0.412571   
    103. A(C  31,C  29,H  32)          119.3504         0.354396   
    104. A(C  28,C  29,H  32)          119.5800         0.352832   
    105. A(C  28,C  29,C  31)          121.0688         0.433398   
    106. A(C  33,C  30,H  34)          117.4330         0.356556   
    107. A(C  28,C  30,H  34)          121.5793         0.351663   
    108. A(C  28,C  30,C  33)          120.9849         0.434275   
    109. A(C  35,C  31,H  36)          119.4630         0.354046   
    110. A(C  29,C  31,H  36)          120.5312         0.354253   
    111. A(C  29,C  31,C  35)          120.0032         0.435168   
    112. A(C  35,C  33,O  39)          119.9982         0.424175   
    113. A(C  30,C  33,O  39)          119.9307         0.431069   
    114. A(C  30,C  33,C  35)          120.0253         0.433617   
    115. A(C  33,C  35,O  37)          117.1646         0.428707   
    116. A(C  31,C  35,O  37)          123.3078         0.432820   
    117. A(C  31,C  35,C  33)          119.5260         0.430760   
    118. A(C  35,O  37,H  38)          110.3816         0.369806   
    119. A(C  33,O  39,C  40)          113.2145         0.405700   
    120. A(H  41,C  40,H  43)          109.8631         0.289876   
    121. A(O  39,C  40,H  43)          110.8663         0.335266   
    122. A(H  41,C  40,H  42)          109.7094         0.290500   
    123. A(O  39,C  40,H  42)          106.5138         0.336031   
    124. A(O  39,C  40,H  41)          110.1548         0.334907   
    125. A(H  42,C  40,H  43)          109.6756         0.290794   
    126. A(H  45,C  44,H  46)          107.7996         0.289839   
    127. A(C  26,C  44,H  46)          107.2705         0.324369   
    128. A(C   4,C  44,H  46)          109.4600         0.325117   
    129. A(C  26,C  44,H  45)          110.0848         0.324503   
    130. A(C   4,C  44,H  45)          107.5110         0.325252   
    131. A(C   4,C  44,C  26)          114.5338         0.365870   
    132. A(O  47,N  49,O  48)          124.9634         0.494611   
    133. A(C   8,N  49,O  48)          116.1696         0.421364   
    134. A(C   8,N  49,O  47)          118.8287         0.422027   
    135. D(C   4,C   2,C   0,H   1)      3.3666         0.040363   
    136. D(H   3,C   2,C   0,H   1)   -174.3775         0.040363   
    137. D(C   4,C   2,C   0,C   6)   -178.9885         0.040363   
    138. D(H   3,C   2,C   0,C   6)      3.2674         0.040363   
    139. D(C  44,C   4,C   2,C   0)     16.6941         0.013975   
    140. D(C  44,C   4,C   2,H   3)   -165.3970         0.013975   
    141. D(O   5,C   4,C   2,H   3)     13.6385         0.013975   
    142. D(O   5,C   4,C   2,C   0)   -164.2704         0.013975   
    143. D(C   8,C   6,C   0,C   2)     27.5056         0.015360   
    144. D(C   7,C   6,C   0,H   1)     30.1606         0.015360   
    145. D(C   7,C   6,C   0,C   2)   -147.5981         0.015360   
    146. D(C   8,C   6,C   0,H   1)   -154.7357         0.015360   
    147. D(H  10,C   7,C   6,C   0)     -2.0207         0.027021   
    148. D(C   9,C   7,C   6,C   8)      2.1251         0.027021   
    149. D(C   9,C   7,C   6,C   0)    177.5691         0.027021   
    150. D(H  10,C   7,C   6,C   8)   -177.4647         0.027021   
    151. D(H  12,C   8,C   6,C   7)     97.1709         0.024443   
    152. D(H  12,C   8,C   6,C   0)    -78.0848         0.024443   
    153. D(N  49,C   8,C   6,C   7)   -164.0251         0.024443   
    154. D(N  49,C   8,C   6,C   0)     20.7192         0.024443   
    155. D(C  11,C   8,C   6,C   7)     -7.7003         0.024443   
    156. D(C  11,C   8,C   6,C   0)    177.0441         0.024443   
    157. D(C  13,C   9,C   7,C   6)      2.0059         0.026813   
    158. D(H  14,C   9,C   7,C   6)    179.9890         0.026813   
    159. D(C  13,C   9,C   7,H  10)   -178.4062         0.026813   
    160. D(H  14,C   9,C   7,H  10)     -0.4230         0.026813   
    161. D(O  17,C  11,C   8,C   6)   -169.2677         0.026727   
    162. D(C  13,C  11,C   8,H  12)    -94.3355         0.026727   
    163. D(C  13,C  11,C   8,N  49)    166.5297         0.026727   
    164. D(O  17,C  11,C   8,N  49)    -11.6947         0.026727   
    165. D(C  13,C  11,C   8,C   6)      8.9567         0.026727   
    166. D(O  17,C  11,C   8,H  12)     87.4401         0.026727   
    167. D(O  15,C  13,C  11,O  17)     -4.2590         0.025419   
    168. D(C   9,C  13,C  11,O  17)    173.7251         0.025419   
    169. D(C   9,C  13,C  11,C   8)     -4.4686         0.025419   
    170. D(O  15,C  13,C   9,H  14)     -0.9829         0.026620   
    171. D(O  15,C  13,C   9,C   7)    177.0151         0.026620   
    172. D(O  15,C  13,C  11,C   8)    177.5472         0.025419   
    173. D(C  11,C  13,C   9,H  14)   -178.8151         0.026620   
    174. D(C  11,C  13,C   9,C   7)     -0.8170         0.026620   
    175. D(H  16,O  15,C  13,C  11)    178.0563         0.030267   
    176. D(H  16,O  15,C  13,C   9)      0.1637         0.030267   
    177. D(C  18,O  17,C  11,C  13)     79.2014         0.029202   
    178. D(C  18,O  17,C  11,C   8)   -102.6314         0.029202   
    179. D(H  21,C  18,O  17,C  11)    -59.3144         0.016711   
    180. D(H  20,C  18,O  17,C  11)   -178.4226         0.016711   
    181. D(H  19,C  18,O  17,C  11)     62.8180         0.016711   
    182. D(H  25,C  24,C  22,C  28)      1.6483         0.039332   
    183. D(H  25,C  24,C  22,H  23)   -177.8742         0.039332   
    184. D(C  26,C  24,C  22,C  28)   -179.0567         0.039332   
    185. D(C  26,C  24,C  22,H  23)      1.4208         0.039332   
    186. D(C  44,C  26,C  24,H  25)   -170.4561         0.014782   
    187. D(C  44,C  26,C  24,C  22)     10.1986         0.014782   
    188. D(O  27,C  26,C  24,H  25)      8.8092         0.014782   
    189. D(O  27,C  26,C  24,C  22)   -170.5360         0.014782   
    190. D(C  30,C  28,C  22,C  24)      1.9215         0.015349   
    191. D(C  30,C  28,C  22,H  23)   -178.5355         0.015349   
    192. D(C  29,C  28,C  22,C  24)   -178.5677         0.015349   
    193. D(C  29,C  28,C  22,H  23)      0.9753         0.015349   
    194. D(H  32,C  29,C  28,C  30)    179.8096         0.025641   
    195. D(H  32,C  29,C  28,C  22)      0.2766         0.025641   
    196. D(C  31,C  29,C  28,C  30)      0.1247         0.025641   
    197. D(C  31,C  29,C  28,C  22)   -179.4083         0.025641   
    198. D(H  34,C  30,C  28,C  29)   -179.4691         0.024473   
    199. D(H  34,C  30,C  28,C  22)      0.0433         0.024473   
    200. D(C  33,C  30,C  28,C  29)     -0.0939         0.024473   
    201. D(C  33,C  30,C  28,C  22)    179.4185         0.024473   
    202. D(H  36,C  31,C  29,H  32)     -0.1607         0.027099   
    203. D(H  36,C  31,C  29,C  28)    179.5249         0.027099   
    204. D(C  35,C  31,C  29,H  32)   -179.5762         0.027099   
    205. D(C  35,C  31,C  29,C  28)      0.1095         0.027099   
    206. D(O  39,C  33,C  30,H  34)      1.6899         0.029095   
    207. D(O  39,C  33,C  30,C  28)   -177.7104         0.029095   
    208. D(C  35,C  33,C  30,H  34)    179.2315         0.029095   
    209. D(C  35,C  33,C  30,C  28)     -0.1688         0.029095   
    210. D(O  37,C  35,C  33,O  39)     -1.6224         0.024043   
    211. D(O  37,C  35,C  33,C  30)   -179.1623         0.024043   
    212. D(C  31,C  35,C  33,O  39)    177.9425         0.024043   
    213. D(C  31,C  35,C  33,C  30)      0.4026         0.024043   
    214. D(O  37,C  35,C  31,H  36)     -0.2573         0.026901   
    215. D(O  37,C  35,C  31,C  29)    179.1645         0.026901   
    216. D(C  33,C  35,C  31,H  36)   -179.7940         0.026901   
    217. D(C  33,C  35,C  31,C  29)     -0.3723         0.026901   
    218. D(H  38,O  37,C  35,C  33)    178.7510         0.029139   
    219. D(H  38,O  37,C  35,C  31)     -0.7960         0.029139   
    220. D(C  40,O  39,C  33,C  35)     78.7406         0.025665   
    221. D(C  40,O  39,C  33,C  30)   -103.7172         0.025665   
    222. D(H  43,C  40,O  39,C  33)    -59.8397         0.017957   
    223. D(H  42,C  40,O  39,C  33)   -179.1043         0.017957   
    224. D(H  41,C  40,O  39,C  33)     61.9801         0.017957   
    225. D(H  46,C  44,C  26,O  27)     -3.3902         0.010697   
    226. D(H  46,C  44,C  26,C  24)    175.8793         0.010697   
    227. D(H  45,C  44,C  26,O  27)    113.6446         0.010697   
    228. D(H  45,C  44,C  26,C  24)    -67.0860         0.010697   
    229. D(C   4,C  44,C  26,O  27)   -125.0860         0.010697   
    230. D(C   4,C  44,C  26,C  24)     54.1834         0.010697   
    231. D(H  46,C  44,C   4,O   5)    110.4763         0.010983   
    232. D(H  46,C  44,C   4,C   2)    -70.4940         0.010983   
    233. D(H  45,C  44,C   4,O   5)     -6.3601         0.010983   
    234. D(H  45,C  44,C   4,C   2)    172.6696         0.010983   
    235. D(C  26,C  44,C   4,O   5)   -129.0332         0.010983   
    236. D(C  26,C  44,C   4,C   2)     49.9965         0.010983   
    237. D(O  48,N  49,C   8,H  12)    152.9601         0.012548   
    238. D(O  48,N  49,C   8,C  11)   -104.9997         0.012548   
    239. D(O  48,N  49,C   8,C   6)     53.2534         0.012548   
    240. D(O  47,N  49,C   8,H  12)    -29.1818         0.012548   
    241. D(O  47,N  49,C   8,C  11)     72.8584         0.012548   
    242. D(O  47,N  49,C   8,C   6)   -128.8885         0.012548   
    -----------------------------------------------------------------

Number of atoms                         .... 50
Number of degrees of freedom            .... 242

         *************************************************************
         *                GEOMETRY OPTIMIZATION CYCLE   1            *
         *************************************************************
---------------------------------
CARTESIAN COORDINATES (ANGSTROEM)
---------------------------------
  C      1.929351    1.744682    1.125967
  H      1.788570    2.817023    1.019732
  C      1.199994    1.057529    2.014878
  H      1.371947    0.002979    2.214946
  C      0.133943    1.663851    2.839073
  O     -0.293409    1.074080    3.816587
  C      2.979534    1.181665    0.274326
  C      4.075275    1.960945   -0.078374
  C      3.005031   -0.167726   -0.146347
  C      5.120845    1.454418   -0.843422
  H      4.115596    2.990851    0.259989
  C      3.988714   -0.668338   -1.011069
  H      3.644809   -0.867012    1.465208
  C      5.081535    0.146992   -1.319608
  H      5.962547    2.089281   -1.102140
  O      6.033531   -0.391787   -2.116140
  H      6.730067    0.251840   -2.298394
  O      3.847375   -1.904156   -1.555209
  C      4.656772   -2.920790   -0.927806
  H      4.356480   -3.040903    0.114871
  H      4.463518   -3.837662   -1.479159
  H      5.713526   -2.659289   -0.994689
  C     -2.475498    1.249011    1.157297
  H     -2.354204    1.256722    2.238222
  C     -1.795064    2.137892    0.415797
  H     -1.906633    2.194086   -0.663220
  C     -0.856214    3.120951    0.975000
  O     -0.401342    4.011050    0.272027
  C     -3.408549    0.232736    0.665323
  C     -4.052782   -0.591774    1.590658
  C     -3.677796    0.042785   -0.698261
  C     -4.938034   -1.579785    1.176583
  H     -3.856251   -0.463633    2.650633
  C     -4.556072   -0.935532   -1.119784
  H     -3.199950    0.648044   -1.461450
  C     -5.193002   -1.761604   -0.178350
  H     -5.428407   -2.221185    1.903314
  O     -6.031801   -2.715846   -0.657818
  H     -6.398647   -3.236468    0.067785
  O     -4.768139   -1.134040   -2.462843
  C     -6.014483   -0.596517   -2.923557
  H     -6.033763    0.487493   -2.779162
  H     -6.076910   -0.826501   -3.985416
  H     -6.854221   -1.055842   -2.397889
  C     -0.434798    3.018238    2.438489
  H     -1.288029    3.222193    3.089852
  H      0.314211    3.794705    2.615854
  O      1.748576   -2.053183    0.416531
  O      0.796613   -0.489762   -0.720312
  N      1.746211   -0.970885   -0.132543

----------------------------
CARTESIAN COORDINATES (A.U.)
----------------------------
  NO LB      ZA    FRAG     MASS         X           Y           Z
   0 C     6.0000    0    12.011    3.645944    3.296971    2.127769
   1 H     1.0000    0     1.008    3.379907    5.323402    1.927014
   2 C     6.0000    0    12.011    2.267660    1.998441    3.807568
   3 H     1.0000    0     1.008    2.592603    0.005629    4.185642
   4 C     6.0000    0    12.011    0.253116    3.144224    5.365070
   5 O     8.0000    0    15.999   -0.554463    2.029716    7.212304
   6 C     6.0000    0    12.011    5.630503    2.233023    0.518400
   7 C     6.0000    0    12.011    7.701153    3.705649   -0.148105
   8 C     6.0000    0    12.011    5.678685   -0.316956   -0.276555
   9 C     6.0000    0    12.011    9.676995    2.748451   -1.593836
  10 H     1.0000    0     1.008    7.777349    5.651889    0.491308
  11 C     6.0000    0    12.011    7.537576   -1.262975   -1.910643
  12 H     1.0000    0     1.008    6.887691   -1.638416    2.768841
  13 C     6.0000    0    12.011    9.602709    0.277775   -2.493698
  14 H     1.0000    0     1.008   11.267582    3.948169   -2.082743
  15 O     8.0000    0    15.999   11.401722   -0.740371   -3.998925
  16 H     1.0000    0     1.008   12.717984    0.475908   -4.343334
  17 O     8.0000    0    15.999    7.270486   -3.598334   -2.938918
  18 C     6.0000    0    12.011    8.800024   -5.519493   -1.753300
  19 H     1.0000    0     1.008    8.232554   -5.746475    0.217075
  20 H     1.0000    0     1.008    8.434827   -7.252130   -2.795206
  21 H     1.0000    0     1.008   10.796999   -5.025327   -1.879691
  22 C     6.0000    0    12.011   -4.678012    2.360289    2.186974
  23 H     1.0000    0     1.008   -4.448800    2.374860    4.229627
  24 C     6.0000    0    12.011   -3.392179    4.040031    0.785743
  25 H     1.0000    0     1.008   -3.603013    4.146222   -1.253305
  26 C     6.0000    0    12.011   -1.618009    5.897742    1.842483
  27 O     8.0000    0    15.999   -0.758426    7.579786    0.514057
  28 C     6.0000    0    12.011   -6.441225    0.439807    1.257278
  29 C     6.0000    0    12.011   -7.658648   -1.118290    3.005907
  30 C     6.0000    0    12.011   -6.950027    0.080853   -1.319521
  31 C     6.0000    0    12.011   -9.331531   -2.985361    2.223419
  32 H     1.0000    0     1.008   -7.287259   -0.876139    5.008970
  33 C     6.0000    0    12.011   -8.609728   -1.767899   -2.116085
  34 H     1.0000    0     1.008   -6.047030    1.224625   -2.761740
  35 C     6.0000    0    12.011   -9.813352   -3.328950   -0.337032
  36 H     1.0000    0     1.008  -10.258203   -4.197432    3.596742
  37 O     8.0000    0    15.999  -11.398452   -5.132206   -1.243097
  38 H     1.0000    0     1.008  -12.091690   -6.116039    0.128095
  39 O     8.0000    0    15.999   -9.010477   -2.143025   -4.654100
  40 C     6.0000    0    12.011  -11.365727   -1.127254   -5.524722
  41 H     1.0000    0     1.008  -11.402159    0.921228   -5.251854
  42 H     1.0000    0     1.008  -11.483696   -1.561861   -7.531344
  43 H     1.0000    0     1.008  -12.952601   -1.995252   -4.531354
  44 C     6.0000    0    12.011   -0.821649    5.703643    4.608076
  45 H     1.0000    0     1.008   -2.434022    6.089063    5.838975
  46 H     1.0000    0     1.008    0.593772    7.170953    4.943247
  47 O     8.0000    0    15.999    3.304330   -3.879954    0.787130
  48 O     8.0000    0    15.999    1.505380   -0.925516   -1.361192
  49 N     7.0000    0    14.007    3.299860   -1.834707   -0.250471

--------------------------------
INTERNAL COORDINATES (ANGSTROEM)
--------------------------------
 C      0   0   0     0.000000000000     0.00000000     0.00000000
 H      1   0   0     1.086747765309     0.00000000     0.00000000
 C      1   2   0     1.339516345672   120.03443639     0.00000000
 H      3   1   2     1.087047380490   122.25278044   185.62245854
 C      3   1   2     1.477628867658   123.53743101     3.36660568
 O      5   3   1     1.219013917589   120.11114159   195.72957008
 C      1   2   3     1.464638364352   114.54170449   182.11059675
 C      7   1   2     1.390080073218   119.81728967    30.16061202
 C      7   1   2     1.413672948284   123.56544124   205.26431245
 C      8   7   1     1.391073673757   121.86289378   177.56905079
 H      8   7   1     1.084813775280   118.84127676   357.97927937
 C      9   7   1     1.402137318687   122.47774517   177.04406522
 H      9   7   1     1.869605574450    96.12463473   281.91520916
 C     10   8   7     1.391998928405   120.59161898     2.00587024
 H     10   8   7     1.085563571408   120.05985050   179.98903870
 O     14  10   8     1.353160518505   123.74330911   177.01511415
 H     16  14  10     0.965729989940   110.68035848     0.16367035
 O     12   9   7     1.357686318030   119.94204330   190.73227349
 C     18  12   9     1.443017714029   114.11904108   257.36859158
 H     19  18  12     1.091686399678   109.78502855    62.81795048
 H     19  18  12     1.087194369552   105.89943290   181.57742351
 H     19  18  12     1.090680599011   110.35775602   300.68557337
 C      5   3   1     3.132035422298   104.31342257    92.03424734
 H     23   5   3     1.087737149020    51.13847419   146.87412619
 C     23   5   3     1.342728909510    77.68096547   291.64933683
 H     25  23   5     1.086224881406   122.05723567   151.16771577
 C     25  23   5     1.469881231696   123.80226658   330.46271024
 O     27  25  23     1.222029333668   120.40056031   189.46399299
 C     23   5   3     1.464731908710   143.41521601    68.57145849
 C     29  23   5     1.396816586318   118.74061144    57.68261337
 C     29  23   5     1.402830790413   122.86716679   238.17179537
 C     30  29  23     1.389710145759   121.06883289   180.59172044
 H     30  29  23     1.085629958550   119.58004605     0.27662687
 C     31  29  23     1.380636116618   120.98486493   179.41853248
 H     31  29  23     1.084956968754   121.57933502     0.04332256
 C     32  30  29     1.390650734021   120.00321111     0.10945751
 H     32  30  29     1.086277642692   120.53120378   179.52492228
 O     36  32  30     1.357958429912   123.30779059   179.16446179
 H     38  36  32     0.965465344222   110.38164303   359.20399812
 O     34  31  29     1.374113213902   119.93071629   182.28961230
 C     40  34  31     1.433374306866   113.21445487   256.28284173
 H     41  40  34     1.093754938163   110.15477621    61.98011066
 H     41  40  34     1.088270653795   106.51381994   180.89570702
 H     41  40  34     1.092000558353   110.86631582   300.16029972
 C      5   3   1     1.522595488749   119.19244077    16.69410696
 H     45   5   3     1.092645979133   107.51101336   172.66963606
 H     45   5   3     1.093331291507   109.46004074   289.50604727
 O      9   7   1     2.334621619532   133.58518383   351.42003063
 O     48   9   7     2.154746168925    61.61382476    70.20774389
 N     48   9   7     1.213613315368    34.08017137    68.97479605

---------------------------
INTERNAL COORDINATES (A.U.)
---------------------------
 C      0   0   0     0.000000000000     0.00000000     0.00000000
 H      1   0   0     2.053655653084     0.00000000     0.00000000
 C      1   2   0     2.531319045230   120.03443639     0.00000000
 H      3   1   2     2.054221843723   122.25278044   185.62245854
 C      3   1   2     2.792313887450   123.53743101     3.36660568
 O      5   3   1     2.303602457682   120.11114159   195.72957008
 C      1   2   3     2.767765393859   114.54170449   182.11059675
 C      7   1   2     2.626870642603   119.81728967    30.16061202
 C      7   1   2     2.671454715190   123.56544124   205.26431245
 C      8   7   1     2.628748275508   121.86289378   177.56905079
 H      8   7   1     2.050000941584   118.84127676   357.97927937
 C      9   7   1     2.649655534468   122.47774517   177.04406522
 H      9   7   1     3.533042514164    96.12463473   281.91520916
 C     10   8   7     2.630496753397   120.59161898     2.00587024
 H     10   8   7     2.051417850923   120.05985050   179.98903870
 O     14  10   8     2.557102795208   123.74330911   177.01511415
 H     16  14  10     1.824965200302   110.68035848     0.16367035
 O     12   9   7     2.565655316848   119.94204330   190.73227349
 C     18  12   9     2.726908285912   114.11904108   257.36859158
 H     19  18  12     2.062988319517   109.78502855    62.81795048
 H     19  18  12     2.054499612794   105.89943290   181.57742351
 H     19  18  12     2.061087631712   110.35775602   300.68557337
 C      5   3   1     5.918689189884   104.31342257    92.03424734
 H     23   5   3     2.055525317340    51.13847419   146.87412619
 C     23   5   3     2.537389911074    77.68096547   291.64933683
 H     25  23   5     2.052667545709   122.05723567   151.16771577
 C     25  23   5     2.777672977296   123.80226658   330.46271024
 O     27  25  23     2.309300768252   120.40056031   189.46399299
 C     23   5   3     2.767942167078   143.41521601    68.57145849
 C     29  23   5     2.639600807460   118.74061144    57.68261337
 C     29  23   5     2.650966006113   122.86716679   238.17179537
 C     30  29  23     2.626171581015   121.06883289   180.59172044
 H     30  29  23     2.051543304439   119.58004605     0.27662687
 C     31  29  23     2.609024151008   120.98486493   179.41853248
 H     31  29  23     2.050271538035   121.57933502     0.04332256
 C     32  30  29     2.627949035236   120.00321111     0.10945751
 H     32  30  29     2.052767250090   120.53120378   179.52492228
 O     36  32  30     2.566169533783   123.30779059   179.16446179
 H     38  36  32     1.824465092371   110.38164303   359.20399812
 O     34  31  29     2.596697651276   119.93071629   182.28961230
 C     40  34  31     2.708684887376   113.21445487   256.28284173
 H     41  40  34     2.066897290752   110.15477621    61.98011066
 H     41  40  34     2.056533495255   106.51381994   180.89570702
 H     41  40  34     2.063581993377   110.86631582   300.16029972
 C      5   3   1     2.877288486480   119.19244077    16.69410696
 H     45   5   3     2.064801661892   107.51101336   172.66963606
 H     45   5   3     2.066096714595   109.46004074   289.50604727
 O      9   7   1     4.411795487248   133.58518383   351.42003063
 O     48   9   7     4.071880147384    61.61382476    70.20774389
 N     48   9   7     2.293396798526    34.08017137    68.97479605

---------------------
BASIS SET INFORMATION
---------------------
There are 4 groups of distinct atoms

 Group   1 Type C   : 12s6p1d contracted to 5s4p1d pattern {63111/3111/1}
 Group   2 Type H   : 5s contracted to 3s pattern {311}
 Group   3 Type O   : 12s6p1d contracted to 5s4p1d pattern {63111/3111/1}
 Group   4 Type N   : 12s6p1d contracted to 5s4p1d pattern {63111/3111/1}

Atom   0C    basis set group =>   1
Atom   1H    basis set group =>   2
Atom   2C    basis set group =>   1
Atom   3H    basis set group =>   2
Atom   4C    basis set group =>   1
Atom   5O    basis set group =>   3
Atom   6C    basis set group =>   1
Atom   7C    basis set group =>   1
Atom   8C    basis set group =>   1
Atom   9C    basis set group =>   1
Atom  10H    basis set group =>   2
Atom  11C    basis set group =>   1
Atom  12H    basis set group =>   2
Atom  13C    basis set group =>   1
Atom  14H    basis set group =>   2
Atom  15O    basis set group =>   3
Atom  16H    basis set group =>   2
Atom  17O    basis set group =>   3
Atom  18C    basis set group =>   1
Atom  19H    basis set group =>   2
Atom  20H    basis set group =>   2
Atom  21H    basis set group =>   2
Atom  22C    basis set group =>   1
Atom  23H    basis set group =>   2
Atom  24C    basis set group =>   1
Atom  25H    basis set group =>   2
Atom  26C    basis set group =>   1
Atom  27O    basis set group =>   3
Atom  28C    basis set group =>   1
Atom  29C    basis set group =>   1
Atom  30C    basis set group =>   1
Atom  31C    basis set group =>   1
Atom  32H    basis set group =>   2
Atom  33C    basis set group =>   1
Atom  34H    basis set group =>   2
Atom  35C    basis set group =>   1
Atom  36H    basis set group =>   2
Atom  37O    basis set group =>   3
Atom  38H    basis set group =>   2
Atom  39O    basis set group =>   3
Atom  40C    basis set group =>   1
Atom  41H    basis set group =>   2
Atom  42H    basis set group =>   2
Atom  43H    basis set group =>   2
Atom  44C    basis set group =>   1
Atom  45H    basis set group =>   2
Atom  46H    basis set group =>   2
Atom  47O    basis set group =>   3
Atom  48O    basis set group =>   3
Atom  49N    basis set group =>   4
---------------------------------
AUXILIARY/J BASIS SET INFORMATION
---------------------------------
There are 4 groups of distinct atoms

 Group   1 Type C   : 12s5p4d2f1g contracted to 6s4p3d1f1g pattern {711111/2111/211/2/1}
 Group   2 Type H   : 5s2p1d contracted to 3s1p1d pattern {311/2/1}
 Group   3 Type O   : 12s5p4d2f1g contracted to 6s4p3d1f1g pattern {711111/2111/211/2/1}
 Group   4 Type N   : 12s5p4d2f1g contracted to 6s4p3d1f1g pattern {711111/2111/211/2/1}

Atom   0C    basis set group =>   1
Atom   1H    basis set group =>   2
Atom   2C    basis set group =>   1
Atom   3H    basis set group =>   2
Atom   4C    basis set group =>   1
Atom   5O    basis set group =>   3
Atom   6C    basis set group =>   1
Atom   7C    basis set group =>   1
Atom   8C    basis set group =>   1
Atom   9C    basis set group =>   1
Atom  10H    basis set group =>   2
Atom  11C    basis set group =>   1
Atom  12H    basis set group =>   2
Atom  13C    basis set group =>   1
Atom  14H    basis set group =>   2
Atom  15O    basis set group =>   3
Atom  16H    basis set group =>   2
Atom  17O    basis set group =>   3
Atom  18C    basis set group =>   1
Atom  19H    basis set group =>   2
Atom  20H    basis set group =>   2
Atom  21H    basis set group =>   2
Atom  22C    basis set group =>   1
Atom  23H    basis set group =>   2
Atom  24C    basis set group =>   1
Atom  25H    basis set group =>   2
Atom  26C    basis set group =>   1
Atom  27O    basis set group =>   3
Atom  28C    basis set group =>   1
Atom  29C    basis set group =>   1
Atom  30C    basis set group =>   1
Atom  31C    basis set group =>   1
Atom  32H    basis set group =>   2
Atom  33C    basis set group =>   1
Atom  34H    basis set group =>   2
Atom  35C    basis set group =>   1
Atom  36H    basis set group =>   2
Atom  37O    basis set group =>   3
Atom  38H    basis set group =>   2
Atom  39O    basis set group =>   3
Atom  40C    basis set group =>   1
Atom  41H    basis set group =>   2
Atom  42H    basis set group =>   2
Atom  43H    basis set group =>   2
Atom  44C    basis set group =>   1
Atom  45H    basis set group =>   2
Atom  46H    basis set group =>   2
Atom  47O    basis set group =>   3
Atom  48O    basis set group =>   3
Atom  49N    basis set group =>   4
------------------------------------------------------------------------------
                           ORCA GTO INTEGRAL CALCULATION
                           -- RI-GTO INTEGRALS CHOSEN --
------------------------------------------------------------------------------
------------------------------------------------------------------------------
                   ___                                                        
                  /   \      - P O W E R E D   B Y -                         
                 /     \                                                     
                 |  |  |   _    _      __       _____    __    __             
                 |  |  |  | |  | |    /  \     |  _  \  |  |  /  |          
                  \  \/   | |  | |   /    \    | | | |  |  | /  /          
                 / \  \   | |__| |  /  /\  \   | |_| |  |  |/  /          
                |  |  |   |  __  | /  /__\  \  |    /   |      \           
                |  |  |   | |  | | |   __   |  |    \   |  |\   \          
                \     /   | |  | | |  |  |  |  | |\  \  |  | \   \       
                 \___/    |_|  |_| |__|  |__|  |_| \__\ |__|  \__/        
                                                                              
                      - O R C A' S   B I G   F R I E N D -                    
                                      &                                       
                       - I N T E G R A L  F E E D E R -                       
                                                                              
 v1 FN, 2020, v2 2021                                                         
------------------------------------------------------------------------------


Reading SHARK input file CURCUMIN-OPT-FREQ-TS-WB97M-V-2X-6-311+G-D-363.SHARKINP.tmp ... ok
----------------------
SHARK INTEGRAL PACKAGE
----------------------

Number of atoms                             ...     50
Number of basis functions                   ...    720
Number of shells                            ...    360
Maximum angular momentum                    ...      2
Integral batch strategy                     ... SHARK/LIBINT Hybrid
RI-J (if used) integral strategy            ... SPLIT-RIJ (Revised 2003 algorithm where possible)
Printlevel                                  ...      1
Contraction scheme used                     ... SEGMENTED contraction
Coulomb Range Separation                    ... NOT USED
Exchange Range Separation                   ... Long Range
   Mu parameter                             ...  0.300000
   Scaling (regular/separated)              ...  0.150000  0.850000
Finite Nucleus Model                        ... NOT USED
Auxiliary Coulomb fitting basis             ... AVAILABLE
   # of basis functions in Aux-J            ...   1690
   # of shells in Aux-J                     ...    550
   Maximum angular momentum in Aux-J        ...      4
Auxiliary J/K fitting basis                 ... NOT available
Auxiliary Correlation fitting basis         ... NOT available
Auxiliary 'external' fitting basis          ... NOT available
Integral threshold                          ...     2.500000e-11
Primitive cut-off                           ...     2.500000e-12
Primitive pair pre-selection threshold      ...     2.500000e-12

Calculating pre-screening integrals         ... done (  0.2 sec) Dimension = 360
Organizing shell pair data                  ... done (  0.5 sec)
Shell pair information
Total number of shell pairs                 ...     64980
Shell pairs after pre-screening             ...     43420
Total number of primitive shell pairs       ...    225475
Primitive shell pairs kept                  ...     94764
          la=0 lb=0:  13891 shell pairs
          la=1 lb=0:  17830 shell pairs
          la=1 lb=1:   5636 shell pairs
          la=2 lb=0:   3495 shell pairs
          la=2 lb=1:   2343 shell pairs
          la=2 lb=2:    225 shell pairs

Calculating one electron integrals          ... done (  0.3 sec)
Calculating RI/J V-Matrix + Cholesky decomp.... done (  0.6 sec)
Calculating Nuclear repulsion               ... done (  0.0 sec) ENN=   2840.978403779709 Eh

SHARK setup successfully completed in   2.6 seconds

Maximum memory used throughout the entire GTOINT-calculation: 204.9 MB
-------------------------------------------------------------------------------
                                 ORCA SCF
-------------------------------------------------------------------------------

------------
SCF SETTINGS
------------
Hamiltonian:
 Density Functional     Method          .... DFT(GTOs)
  Functional kind                       .... Exchange-Correlation
  Functional name                       .... wB97M-V exchange-correlation functional
  Functional family                     .... Hybrid MGGA
  Functional refs                              
    [ 0] N. Mardirossian and M. Head-Gordon, J. Chem. Phys. 144, 214110 (2016)
  Fraction of HF Exchange (short range) .... 0.1500
  Fraction of HF Exchange (long range)  .... 1.0000
  Range separation parameter mu         .... 0.3000
  Functional external parameters         .... 0
   Density functional embedding theory  .... OFF
 Long-range corrected/Screened/Range-Separated Hybrid DFT is turned on
   Amount of maximum screened exact exchange              ....  0.850000
   Range separation parameter mu (erf(mu*r12)/r12)        ....  0.300000
   NL short-range parameter             ....  6.000000
   NL long-range parameter              ....  0.010000
 RI-approximation to the Coulomb term is turned on
   Number of AuxJ basis functions       .... 1690
   RIJ-ON(X) (HFX calculated with O(N)) .... on


General Settings:
 Integral files         IntName         .... CURCUMIN-OPT-FREQ-TS-WB97M-V-2X-6-311+G-D-363
 Hartree-Fock type      HFTyp           .... UHF
 Total Charge           Charge          ....    0
 Multiplicity           Mult            ....    2
 Number of Electrons    NEL             ....  217
 Basis Dimension        Dim             ....  720
 Nuclear Repulsion      ENuc            ....   2840.9784037797 Eh

Convergence Acceleration:
 DIIS                   CNVDIIS         .... on
   Start iteration      DIISMaxIt       ....    12
   Startup error        DIISStart       ....  0.200000
   # of expansion vecs  DIISMaxEq       ....     5
   Bias factor          DIISBfac        ....   1.050
   Max. coefficient     DIISMaxC        ....  10.000
 Trust-Rad. Augm. Hess. CNVTRAH         .... off
 SOSCF                  CNVSOSCF        .... off
 Level Shifting         CNVShift        .... on
   Level shift para.    LevelShift      ....    0.2500
   Turn off err/grad.   ShiftErr        ....    0.0010
 Zerner damping         CNVZerner       .... off
 Static damping         CNVDamp         .... on
   Fraction old density DampFac         ....    0.7000
   Max. Damping (<1)    DampMax         ....    0.9800
   Min. Damping (>=0)   DampMin         ....    0.0000
   Turn off err/grad.   DampErr         ....    0.1000
 Fernandez-Rico         CNVRico         .... off

SCF Procedure:
 Maximum # iterations   MaxIter         ....   125
 SCF integral mode      SCFMode         .... Direct
   Integral package                     .... SHARK and LIBINT hybrid scheme
 Reset frequency        DirectResetFreq ....    20
 Integral Threshold     Thresh          ....  2.500e-11 Eh
 Primitive CutOff       TCut            ....  2.500e-12 Eh

Convergence Tolerance:
 Convergence Check Mode ConvCheckMode   .... Total+1el-Energy
 Convergence forced     ConvForced      .... 0
 Energy Change          TolE            ....  1.000e-08 Eh
 1-El. energy change                    ....  1.000e-05 Eh
 DIIS Error             TolErr          ....  5.000e-07


Diagonalization of the overlap matrix:
Smallest eigenvalue                        ... 3.073e-07
Time for diagonalization                   ...    0.132 sec
Threshold for overlap eigenvalues          ... 1.000e-08
Number of eigenvalues below threshold      ... 0
Time for construction of square roots      ...    0.107 sec
Total time needed                          ...    0.240 sec

Time for model grid setup =    2.747 sec

------------------------------
INITIAL GUESS: MODEL POTENTIAL
------------------------------
Loading Hartree-Fock densities                     ... done
Calculating cut-offs                               ... done
Initializing the effective Hamiltonian             ... done
Setting up the integral package (SHARK)            ... done
Starting the Coulomb interaction                   ... done (   5.3 sec)
Reading the grid                                   ... done
Mapping shells                                     ... done
Starting the XC term evaluation                    ... done (   2.6 sec)
  promolecular density results
     # of electrons  =    216.991274077
     EX              =   -185.071218437
     EC              =     -7.320364587
     EX+EC           =   -192.391583024
Transforming the Hamiltonian                       ... done (   0.1 sec)
Diagonalizing the Hamiltonian                      ... done (   0.1 sec)
Back transforming the eigenvectors                 ... done (   0.0 sec)
Now organizing SCF variables                       ... done
                      ------------------
                      INITIAL GUESS DONE (  11.0 sec)
                      ------------------
-------------------
DFT GRID GENERATION
-------------------

General Integration Accuracy     IntAcc      ... 4.388
Radial Grid Type                 RadialGrid  ... OptM3 with GC (2021)
Angular Grid (max. ang.)         AngularGrid ... 4 (Lebedev-302)
Angular grid pruning method      GridPruning ... 4 (adaptive)
Weight generation scheme         WeightScheme... Becke
Basis function cutoff            BFCut       ... 1.0000e-11
Integration weight cutoff        WCut        ... 1.0000e-14
Angular grids for H and He will be reduced by one unit
Partially contracted basis set               ... off
Rotationally invariant grid construction     ... off

Total number of grid points                  ...   250834
Total number of batches                      ...     3942
Average number of points per batch           ...       63
Average number of grid points per atom       ...     5017

------------------
NL GRID GENERATION
------------------

General Integration Accuracy     IntAcc      ... 4.004
Radial Grid Type                 RadialGrid  ... OptM3 with GC (2021)
Angular Grid (max. ang.)         AngularGrid ... 2 (Lebedev-110)
Angular grid pruning method      GridPruning ... 4 (adaptive)
Weight generation scheme         WeightScheme... Becke
Basis function cutoff            BFCut       ... 1.0000e-10
Integration weight cutoff        WCut        ... 1.0000e-14
Angular grids for H and He will be reduced by one unit
Partially contracted basis set               ... off
Rotationally invariant grid construction     ... off

Total number of grid points                  ...    83231
Total number of batches                      ...     1323
Average number of points per batch           ...       62
Average number of grid points per atom       ...     1665
Time for grid setup =   10.773 sec


--------------------
CPCM SOLVATION MODEL
--------------------
CPCM parameters:
  Epsilon                                         ...       7.0000
  Refrac                                          ...       1.8534
  Rsolv                                           ...       1.3000
  Surface type                                    ... GAUSSIAN VDW
  Epsilon function type                           ...         CPCM
Radii:
 Radius for C  used is    3.8550 Bohr (=   2.0400 Ang.)
 Radius for H  used is    2.4944 Bohr (=   1.3200 Ang.)
 Radius for O  used is    3.4469 Bohr (=   1.8240 Ang.)
 Radius for N  used is    3.5149 Bohr (=   1.8600 Ang.)
Calculating surface                               ...        done! (  0.0s)
GEPOL surface points                              ...         2640
GEPOL Volume                                      ...    3191.9984
GEPOL Surface-area                                ...    1627.1888
Calculating surface distance matrix               ...        done! (  0.1s)
Performing Cholesky decomposition & store         ...        done! (  0.8s)
Overall time for CPCM initialization              ...                 0.8s
--------------
SCF ITERATIONS
--------------
ITER       Energy         Delta-E        Max-DP      RMS-DP      [F,P]     Damp
               ***  Starting incremental Fock matrix formation  ***
  0  -1467.6773485896   0.000000000000 4.65862803  0.01524975  0.1485954 0.7000
  1  -1467.9927359669  -0.315387377302 2.43429827  0.00813452  0.0701308 0.7000
                               ***Turning on DIIS***
  2  -1468.1464772695  -0.153741302675 2.70416090  0.01420520  0.0267964 0.0000
  3  -1468.4166324015  -0.270155131990 4.36811785  0.01364000  0.0362753 0.0000
  4  -1468.4531489688  -0.036516567322 1.41456482  0.00432125  0.0112584 0.0000
  5  -1468.4575533899  -0.004404421103 1.64490514  0.00633404  0.0067006 0.0000
  6  -1468.4598205813  -0.002267191390 1.53501570  0.00711626  0.0050717 0.0000
  7  -1468.4614342241  -0.001613642805 1.06202842  0.00471422  0.0033148 0.0000
  8  -1468.4622145419  -0.000780317751 1.08168963  0.00400047  0.0016505 0.0000
  9  -1468.4625121685  -0.000297626575 0.69673497  0.00413652  0.0007697 0.0000
 10  -1468.4626658548  -0.000153686318 0.67431774  0.00354343  0.0002987 0.0000
 11  -1468.4626850996  -0.000019244855 0.78233921  0.00375965  0.0002296 0.0000
 12  -1468.4626918642  -0.000006764582 0.76704401  0.00253946  0.0002365 0.0000
 13  -1468.4626946421  -0.000002777855 0.83313870  0.00372992  0.0001385 0.0000
 14  -1468.4626961701  -0.000001528044 0.34072273  0.00170092  0.0000542 0.0000
 15  -1468.4626966858  -0.000000515667 0.37498865  0.00178504  0.0000333 0.0000
 16  -1468.4626970026  -0.000000316846 0.42733852  0.00198333  0.0000293 0.0000
 17  -1468.4626971918  -0.000000189192 0.60833430  0.00249203  0.0000175 0.0000
 18  -1468.4626972756  -0.000000083809 0.81474108  0.00288943  0.0000224 0.0000
 19  -1468.4626972847  -0.000000009074 0.57501685  0.00179603  0.0000176 0.0000
               *** Restarting incremental Fock matrix formation ***
                                   *** Resetting DIIS ***
 20  -1468.4626972403   0.000000044383 0.59350503  0.00147364  0.0000076 0.0000
 21  -1468.4626972385   0.000000001853 0.65701293  0.00212352  0.0000105 0.0000
 22  -1468.4626972062   0.000000032229 1.53033698  0.00523513  0.0000049 0.0000
 23  -1468.4626970017   0.000000204499 0.56699897  0.00168237  0.0000038 0.0000
 24  -1468.4626968800   0.000000121739 0.92162133  0.00334653  0.0000024 0.0000
 25  -1468.4626969792  -0.000000099209 0.14946744  0.00051311  0.0000016 0.0000
                 **** Energy Check signals convergence ****

               *****************************************************
               *                     SUCCESS                       *
               *           SCF CONVERGED AFTER  26 CYCLES          *
               *****************************************************


----------------
TOTAL SCF ENERGY
----------------

Total Energy       :        -1468.46269698 Eh          -39958.90146 eV

Components:
Nuclear Repulsion  :         2840.97840378 Eh           77306.95258 eV
Electronic Energy  :        -4309.44110076 Eh         -117265.85403 eV
One Electron Energy:        -7651.35753482 Eh         -208204.02341 eV
Two Electron Energy:         3341.91643406 Eh           90938.16938 eV
CPCM Dielectric    :           -0.04750533 Eh              -1.29269 eV

Virial components:
Potential Energy   :        -2933.15334612 Eh          -79815.16027 eV
Kinetic Energy     :         1464.69064914 Eh           39856.25882 eV
Virial Ratio       :            2.00257532


DFT components:
N(Alpha)           :      108.999910781373 electrons
N(Beta)            :      107.999921738378 electrons
N(Total)           :      216.999832519752 electrons
NL Energy, E(C,NL) :        0.812952971646 Eh       
E(XC)              :     -139.440687872907 Eh       
DFET-embed. en.    :        0.000000000000 Eh       
CPCM Solvation Model Properties:
Surface-charge          :           -0.03899263
Charge-correction       :           -0.00004381 Eh              -0.00119 eV
Free-energy (cav+disp)  :  This term is not implemented in the current solvation scheme

---------------
SCF CONVERGENCE
---------------

  Last Energy change         ...   -2.9900e-10  Tolerance :   1.0000e-08
  Last MAX-Density change    ...    1.8441e-01  Tolerance :   1.0000e-07
  Last RMS-Density change    ...    5.3059e-04  Tolerance :   5.0000e-09
  Last DIIS Error            ...    1.3074e-06  Tolerance :   5.0000e-07

             **** THE GBW FILE WAS UPDATED (CURCUMIN-OPT-FREQ-TS-WB97M-V-2X-6-311+G-D-363.gbw) ****
             **** DENSITY CURCUMIN-OPT-FREQ-TS-WB97M-V-2X-6-311+G-D-363.scfp WAS UPDATED ****
             **** ENERGY FILE WAS UPDATED (CURCUMIN-OPT-FREQ-TS-WB97M-V-2X-6-311+G-D-363.en.tmp) ****
----------------------
UHF SPIN CONTAMINATION
----------------------

Warning: in a DFT calculation there is little theoretical justification to 
         calculate <S**2> as in Hartree-Fock theory. We will do it anyways
         but you should keep in mind that the values have only limited relevance

Expectation value of <S**2>     :     0.772605
Ideal value S*(S+1) for S=0.5   :     0.750000
Deviation                       :     0.022605

             **** THE GBW FILE WAS UPDATED (CURCUMIN-OPT-FREQ-TS-WB97M-V-2X-6-311+G-D-363.gbw) ****
             **** DENSITY CURCUMIN-OPT-FREQ-TS-WB97M-V-2X-6-311+G-D-363.scfp WAS UPDATED ****
----------------
ORBITAL ENERGIES
----------------
                 SPIN UP ORBITALS
  NO   OCC          E(Eh)            E(eV) 
   0   1.0000     -19.394053      -527.7390 
   1   1.0000     -19.393706      -527.7296 
   2   1.0000     -19.386055      -527.5214 
   3   1.0000     -19.375946      -527.2463 
   4   1.0000     -19.375240      -527.2271 
   5   1.0000     -19.356439      -526.7155 
   6   1.0000     -19.341386      -526.3059 
   7   1.0000     -19.335086      -526.1344 
   8   1.0000     -14.774836      -402.0437 
   9   1.0000     -10.458214      -284.5825 
  10   1.0000     -10.453014      -284.4410 
  11   1.0000     -10.444017      -284.1961 
  12   1.0000     -10.442351      -284.1508 
  13   1.0000     -10.441582      -284.1299 
  14   1.0000     -10.426351      -283.7154 
  15   1.0000     -10.410546      -283.2854 
  16   1.0000     -10.396503      -282.9032 
  17   1.0000     -10.392042      -282.7818 
  18   1.0000     -10.389142      -282.7029 
  19   1.0000     -10.384040      -282.5641 
  20   1.0000     -10.380845      -282.4772 
  21   1.0000     -10.379643      -282.4445 
  22   1.0000     -10.378237      -282.4062 
  23   1.0000     -10.368378      -282.1379 
  24   1.0000     -10.367494      -282.1138 
  25   1.0000     -10.362780      -281.9856 
  26   1.0000     -10.362653      -281.9821 
  27   1.0000     -10.360683      -281.9285 
  28   1.0000     -10.358171      -281.8602 
  29   1.0000     -10.356043      -281.8022 
  30   1.0000      -1.398789       -38.0630 
  31   1.0000      -1.229482       -33.4559 
  32   1.0000      -1.219895       -33.1950 
  33   1.0000      -1.214295       -33.0427 
  34   1.0000      -1.204840       -32.7854 
  35   1.0000      -1.193754       -32.4837 
  36   1.0000      -1.186052       -32.2741 
  37   1.0000      -1.185803       -32.2673 
  38   1.0000      -1.037275       -28.2257 
  39   1.0000      -1.002558       -27.2810 
  40   1.0000      -0.961804       -26.1720 
  41   1.0000      -0.948431       -25.8081 
  42   1.0000      -0.944013       -25.6879 
  43   1.0000      -0.911685       -24.8082 
  44   1.0000      -0.889296       -24.1990 
  45   1.0000      -0.887374       -24.1467 
  46   1.0000      -0.863855       -23.5067 
  47   1.0000      -0.848386       -23.0858 
  48   1.0000      -0.823612       -22.4116 
  49   1.0000      -0.812515       -22.1097 
  50   1.0000      -0.787306       -21.4237 
  51   1.0000      -0.783028       -21.3073 
  52   1.0000      -0.751629       -20.4529 
  53   1.0000      -0.745594       -20.2887 
  54   1.0000      -0.737701       -20.0739 
  55   1.0000      -0.707509       -19.2523 
  56   1.0000      -0.706280       -19.2189 
  57   1.0000      -0.693741       -18.8776 
  58   1.0000      -0.677654       -18.4399 
  59   1.0000      -0.670118       -18.2348 
  60   1.0000      -0.657268       -17.8852 
  61   1.0000      -0.653823       -17.7914 
  62   1.0000      -0.646618       -17.5954 
  63   1.0000      -0.639336       -17.3972 
  64   1.0000      -0.630207       -17.1488 
  65   1.0000      -0.628230       -17.0950 
  66   1.0000      -0.620570       -16.8866 
  67   1.0000      -0.606198       -16.4955 
  68   1.0000      -0.598758       -16.2930 
  69   1.0000      -0.597437       -16.2571 
  70   1.0000      -0.587135       -15.9767 
  71   1.0000      -0.579538       -15.7700 
  72   1.0000      -0.571148       -15.5417 
  73   1.0000      -0.565663       -15.3925 
  74   1.0000      -0.563198       -15.3254 
  75   1.0000      -0.554500       -15.0887 
  76   1.0000      -0.548210       -14.9176 
  77   1.0000      -0.547248       -14.8914 
  78   1.0000      -0.544064       -14.8047 
  79   1.0000      -0.538814       -14.6619 
  80   1.0000      -0.532341       -14.4857 
  81   1.0000      -0.528870       -14.3913 
  82   1.0000      -0.525172       -14.2906 
  83   1.0000      -0.519095       -14.1253 
  84   1.0000      -0.513006       -13.9596 
  85   1.0000      -0.511103       -13.9078 
  86   1.0000      -0.497444       -13.5361 
  87   1.0000      -0.495579       -13.4854 
  88   1.0000      -0.485709       -13.2168 
  89   1.0000      -0.484481       -13.1834 
  90   1.0000      -0.475248       -12.9321 
  91   1.0000      -0.474177       -12.9030 
  92   1.0000      -0.469718       -12.7817 
  93   1.0000      -0.467898       -12.7321 
  94   1.0000      -0.447018       -12.1640 
  95   1.0000      -0.443347       -12.0641 
  96   1.0000      -0.440578       -11.9887 
  97   1.0000      -0.438911       -11.9434 
  98   1.0000      -0.408989       -11.1292 
  99   1.0000      -0.405585       -11.0365 
 100   1.0000      -0.401388       -10.9223 
 101   1.0000      -0.396295       -10.7837 
 102   1.0000      -0.389454       -10.5976 
 103   1.0000      -0.386549       -10.5185 
 104   1.0000      -0.363507        -9.8915 
 105   1.0000      -0.350283        -9.5317 
 106   1.0000      -0.333866        -9.0850 
 107   1.0000      -0.310232        -8.4418 
 108   1.0000      -0.307695        -8.3728 
 109   0.0000      -0.019488        -0.5303 
 110   0.0000      -0.006926        -0.1885 
 111   0.0000      -0.002399        -0.0653 
 112   0.0000       0.032112         0.8738 
 113   0.0000       0.036067         0.9814 
 114   0.0000       0.037695         1.0257 
 115   0.0000       0.041094         1.1182 
 116   0.0000       0.047317         1.2876 
 117   0.0000       0.049428         1.3450 
 118   0.0000       0.050819         1.3829 
 119   0.0000       0.054121         1.4727 
 120   0.0000       0.057700         1.5701 
 121   0.0000       0.060870         1.6564 
 122   0.0000       0.063088         1.7167 
 123   0.0000       0.065015         1.7692 
 124   0.0000       0.068460         1.8629 
 125   0.0000       0.070697         1.9238 
 126   0.0000       0.075159         2.0452 
 127   0.0000       0.076971         2.0945 
 128   0.0000       0.080098         2.1796 
 129   0.0000       0.082412         2.2425 
 130   0.0000       0.085954         2.3389 
 131   0.0000       0.087680         2.3859 
 132   0.0000       0.090376         2.4593 
 133   0.0000       0.095782         2.6063 
 134   0.0000       0.098046         2.6680 
 135   0.0000       0.099910         2.7187 
 136   0.0000       0.103046         2.8040 
 137   0.0000       0.104114         2.8331 
 138   0.0000       0.108542         2.9536 
 139   0.0000       0.114260         3.1092 
 140   0.0000       0.115257         3.1363 
 141   0.0000       0.116819         3.1788 
 142   0.0000       0.119880         3.2621 
 143   0.0000       0.125295         3.4094 
 144   0.0000       0.132480         3.6050 
 145   0.0000       0.134620         3.6632 
 146   0.0000       0.136023         3.7014 
 147   0.0000       0.139874         3.8062 
 148   0.0000       0.142384         3.8745 
 149   0.0000       0.146424         3.9844 
 150   0.0000       0.147500         4.0137 
 151   0.0000       0.151603         4.1253 
 152   0.0000       0.154588         4.2066 
 153   0.0000       0.156892         4.2693 
 154   0.0000       0.159804         4.3485 
 155   0.0000       0.162699         4.4273 
 156   0.0000       0.168132         4.5751 
 157   0.0000       0.171388         4.6637 
 158   0.0000       0.173301         4.7158 
 159   0.0000       0.175913         4.7868 
 160   0.0000       0.179104         4.8737 
 161   0.0000       0.183039         4.9807 
 162   0.0000       0.183751         5.0001 
 163   0.0000       0.185495         5.0476 
 164   0.0000       0.188162         5.1202 
 165   0.0000       0.193109         5.2548 
 166   0.0000       0.196533         5.3479 
 167   0.0000       0.198618         5.4047 
 168   0.0000       0.199388         5.4256 
 169   0.0000       0.200525         5.4566 
 170   0.0000       0.204981         5.5778 
 171   0.0000       0.206792         5.6271 
 172   0.0000       0.210192         5.7196 
 173   0.0000       0.212830         5.7914 
 174   0.0000       0.213774         5.8171 
 175   0.0000       0.215777         5.8716 
 176   0.0000       0.219772         5.9803 
 177   0.0000       0.220954         6.0125 
 178   0.0000       0.221683         6.0323 
 179   0.0000       0.223671         6.0864 
 180   0.0000       0.229837         6.2542 
 181   0.0000       0.233184         6.3453 
 182   0.0000       0.234760         6.3881 
 183   0.0000       0.236954         6.4478 
 184   0.0000       0.238562         6.4916 
 185   0.0000       0.241742         6.5781 
 186   0.0000       0.245052         6.6682 
 187   0.0000       0.247199         6.7266 
 188   0.0000       0.248416         6.7597 
 189   0.0000       0.253129         6.8880 
 190   0.0000       0.255254         6.9458 
 191   0.0000       0.256178         6.9710 
 192   0.0000       0.260666         7.0931 
 193   0.0000       0.261236         7.1086 
 194   0.0000       0.266766         7.2591 
 195   0.0000       0.268136         7.2964 
 196   0.0000       0.269977         7.3465 
 197   0.0000       0.270944         7.3728 
 198   0.0000       0.275516         7.4972 
 199   0.0000       0.279449         7.6042 
 200   0.0000       0.279879         7.6159 
 201   0.0000       0.281245         7.6531 
 202   0.0000       0.285649         7.7729 
 203   0.0000       0.286219         7.7884 
 204   0.0000       0.288831         7.8595 
 205   0.0000       0.293832         7.9956 
 206   0.0000       0.294270         8.0075 
 207   0.0000       0.295111         8.0304 
 208   0.0000       0.299637         8.1535 
 209   0.0000       0.302951         8.2437 
 210   0.0000       0.305317         8.3081 
 211   0.0000       0.308832         8.4038 
 212   0.0000       0.310591         8.4516 
 213   0.0000       0.312723         8.5096 
 214   0.0000       0.316844         8.6218 
 215   0.0000       0.318262         8.6604 
 216   0.0000       0.319508         8.6943 
 217   0.0000       0.321904         8.7595 
 218   0.0000       0.328649         8.9430 
 219   0.0000       0.331816         9.0292 
 220   0.0000       0.335452         9.1281 
 221   0.0000       0.337924         9.1954 
 222   0.0000       0.339766         9.2455 
 223   0.0000       0.341047         9.2804 
 224   0.0000       0.343776         9.3546 
 225   0.0000       0.346058         9.4167 
 226   0.0000       0.350788         9.5454 
 227   0.0000       0.352744         9.5987 
 228   0.0000       0.353775         9.6267 
 229   0.0000       0.356509         9.7011 
 230   0.0000       0.360724         9.8158 
 231   0.0000       0.362246         9.8572 
 232   0.0000       0.363664         9.8958 
 233   0.0000       0.365594         9.9483 
 234   0.0000       0.369781        10.0622 
 235   0.0000       0.371775        10.1165 
 236   0.0000       0.375123        10.2076 
 237   0.0000       0.378091        10.2884 
[...]
 52:    569.73   0.011675   59.00  0.006395  ( 0.059221  0.030887 -0.043975)
 53:    580.79   0.006891   34.82  0.003702  (-0.026520 -0.041559 -0.035664)
 54:    594.67   0.000025    0.13  0.000013  (-0.001694 -0.000195  0.003183)
 55:    603.94   0.001323    6.69  0.000684  ( 0.017281  0.019614  0.000627)
 56:    618.39   0.002227   11.25  0.001124  (-0.032030  0.006062  0.007809)
 57:    623.91   0.004480   22.64  0.002241  (-0.038648 -0.026973  0.004393)
 58:    646.31   0.000616    3.11  0.000297  (-0.000812 -0.015992 -0.006393)
 59:    684.90   0.004046   20.44  0.001843  ( 0.038296 -0.007245  0.018007)
 60:    718.65   0.003176   16.05  0.001379  ( 0.009062  0.022753  0.027920)
 61:    730.67   0.001556    7.86  0.000665  ( 0.013607  0.001648 -0.021836)
 62:    751.26   0.000952    4.81  0.000395  (-0.001669  0.011893  0.015847)
 63:    768.39   0.001711    8.64  0.000695  ( 0.021490 -0.011416 -0.010128)
 64:    770.96   0.001277    6.46  0.000517  (-0.012314 -0.001846 -0.019027)
 65:    806.86   0.003448   17.43  0.001334  (-0.034435  0.008173  0.009007)
 66:    817.06   0.007133   36.05  0.002724  ( 0.033870  0.035575  0.017648)
 67:    831.04   0.010968   55.43  0.004118  (-0.057155  0.023878  0.016779)
 68:    838.76   0.006727   33.99  0.002503  ( 0.033537  0.036576 -0.006340)
 69:    839.10   0.022454  113.48  0.008351  (-0.074798  0.035399 -0.038770)
 70:    853.50   0.002137   10.80  0.000781  ( 0.018516  0.004853 -0.020367)
 71:    879.30   0.000296    1.50  0.000105  (-0.007937  0.006258 -0.001747)
 72:    884.80   0.005351   27.04  0.001887  ( 0.028992  0.018591 -0.026478)
 73:    913.36   0.000875    4.42  0.000299  (-0.006648  0.006612 -0.014532)
 74:    919.50   0.002286   11.55  0.000776  (-0.004446  0.023278  0.014639)
 75:    954.12   0.003082   15.57  0.001008  (-0.020013  0.010732 -0.022187)
 76:    965.65   0.004477   22.63  0.001447  (-0.026197  0.005878  0.026944)
 77:    969.14   0.001914    9.67  0.000616  (-0.021406  0.009576  0.008143)
 78:    975.63   0.001050    5.31  0.000336  (-0.006316  0.012095  0.012234)
 79:    983.00   0.001652    8.35  0.000524  (-0.009516 -0.020815  0.000748)
 80:   1005.29   0.023735  119.95  0.007368  ( 0.070559 -0.048053 -0.008955)
 81:   1008.79   0.029386  148.50  0.009090  (-0.091722 -0.012492 -0.022831)
 82:   1018.34   0.021499  108.65  0.006588  ( 0.070650 -0.038133 -0.011948)
 83:   1054.66   0.024183  122.21  0.007155  ( 0.070809 -0.010819  0.044994)
 84:   1090.58   0.023474  118.63  0.006717  ( 0.006414 -0.081526  0.005410)
 85:   1136.72   0.037847  191.26  0.010390  ( 0.046314  0.084249 -0.033870)
 86:   1156.70   0.023712  119.83  0.006397  ( 0.010842  0.065188  0.045057)
 87:   1167.85   0.025363  128.17  0.006777  (-0.060515  0.004094  0.055663)
 88:   1174.44   0.005051   25.52  0.001342  ( 0.022632 -0.011778 -0.026289)
 89:   1175.59   0.002065   10.43  0.000548  (-0.014319 -0.017068 -0.007191)
 90:   1182.87   0.007353   37.16  0.001940  ( 0.013210  0.041282 -0.007815)
 91:   1189.87   0.007419   37.49  0.001946  ( 0.030347 -0.009726 -0.030501)
 92:   1197.24   0.014834   74.97  0.003867  (-0.027881 -0.024822 -0.049730)
 93:   1211.39   0.022228  112.33  0.005726  ( 0.044217 -0.038406 -0.047916)
 94:   1219.04   0.037300  188.50  0.009549  (-0.082200 -0.052594  0.005062)
 95:   1235.61   0.063567  321.24  0.016054  ( 0.122880  0.029887  0.007855)
 96:   1251.68   0.040592  205.14  0.010120  ( 0.099576 -0.010785  0.009414)
 97:   1270.85   0.008139   41.13  0.001999  (-0.007120  0.006149  0.043705)
 98:   1284.22   0.013267   67.05  0.003224  (-0.027798 -0.016790 -0.046576)
 99:   1288.12   0.023419  118.35  0.005674  (-0.044681  0.057658  0.018783)
100:   1303.27   0.054010  272.95  0.012933  (-0.113178  0.011046  0.001076)
101:   1308.60   0.064852  327.73  0.015465  (-0.053180 -0.091786 -0.064904)
102:   1314.44   0.035762  180.73  0.008490  (-0.059161 -0.063624 -0.030698)
103:   1316.54   0.094311  476.61  0.022355  ( 0.002167  0.103641  0.107744)
104:   1327.52   0.013457   68.01  0.003163  (-0.050795  0.013939  0.019720)
105:   1339.84   0.003304   16.70  0.000770  (-0.011664  0.020526  0.014566)
106:   1350.91   0.038969  196.93  0.009002  (-0.058041  0.038033  0.064705)
107:   1360.45   0.007655   38.69  0.001756  ( 0.032471  0.026471  0.000918)
108:   1361.99   0.013616   68.81  0.003120  (-0.022576  0.046323  0.021547)
109:   1375.63   0.021235  107.32  0.004817  (-0.041379 -0.036375 -0.042213)
110:   1444.18   0.007949   40.17  0.001718  ( 0.016929  0.033127  0.018267)
111:   1449.51   0.002580   13.04  0.000556  ( 0.009566 -0.013013 -0.017165)
112:   1461.32   0.034720  175.46  0.007414  ( 0.071503  0.047914  0.002457)
113:   1464.89   0.001271    6.42  0.000271  (-0.009726 -0.002549 -0.013025)
114:   1480.28   0.000920    4.65  0.000194  (-0.004916  0.012547 -0.003512)
115:   1483.21   0.003132   15.83  0.000659  (-0.012786 -0.019736  0.010293)
116:   1485.59   0.003777   19.09  0.000793  (-0.022728 -0.009811  0.013434)
117:   1488.79   0.003570   18.04  0.000748  (-0.004852 -0.018686 -0.019379)
118:   1492.69   0.009079   45.88  0.001898  ( 0.022010  0.014922  0.034509)
119:   1494.31   0.000549    2.77  0.000115  ( 0.004386 -0.004850 -0.008477)
120:   1548.47   0.048704  246.13  0.009815  (-0.050619  0.044455  0.072640)
121:   1555.77   0.078504  396.73  0.015747  (-0.077360 -0.077671 -0.061070)
122:   1624.72   0.111625  564.11  0.021440  ( 0.096481 -0.101944  0.041702)
123:   1640.07   0.044731  226.05  0.008511  ( 0.000552  0.066187 -0.064267)
124:   1654.11   0.025478  128.75  0.004807  (-0.042742  0.014860  0.052526)
125:   1662.27   0.002351   11.88  0.000441  ( 0.004910  0.010633 -0.017443)
126:   1673.50   0.090264  456.15  0.016832  (-0.077592 -0.102644  0.016597)
127:   1708.49   0.048433  244.76  0.008847  (-0.069096 -0.061648 -0.016489)
128:   1712.15   0.043585  220.26  0.007944  ( 0.003899 -0.088966  0.003712)
129:   1721.49   0.249956  1263.18  0.045311  (-0.119066 -0.118013  0.131176)
130:   1750.88   0.049057  247.91  0.008743  (-0.035957  0.013486  0.085257)
131:   3044.67   0.013309   67.26  0.001364  ( 0.027810 -0.018647  0.015588)
132:   3063.27   0.009436   47.68  0.000961  ( 0.015644 -0.024839  0.009977)
133:   3081.19   0.000016    0.08  0.000002  (-0.000434  0.000324 -0.001144)
134:   3119.65   0.008303   41.96  0.000831  (-0.016451 -0.023663  0.000026)
135:   3134.60   0.001158    5.85  0.000115  (-0.010580  0.000073 -0.001829)
136:   3144.69   0.005612   28.36  0.000557  (-0.018429 -0.000378  0.014735)
137:   3165.07   0.007372   37.26  0.000727  (-0.001233  0.006736  0.026076)
138:   3176.96   0.000247    1.25  0.000024  (-0.000738  0.002956  0.003870)
139:   3180.01   0.000508    2.57  0.000050  (-0.003994  0.005731 -0.001031)
140:   3181.33   0.002965   14.98  0.000291  (-0.010187 -0.012863 -0.004648)
141:   3181.77   0.004631   23.40  0.000454  ( 0.005404  0.016526  0.012326)
142:   3186.68   0.001385    7.00  0.000136  (-0.006003 -0.003437 -0.009372)
143:   3189.20   0.000387    1.96  0.000038  ( 0.001744 -0.004850 -0.003368)
144:   3193.11   0.001615    8.16  0.000158  (-0.009769  0.004944  0.006165)
145:   3197.26   0.002388   12.07  0.000233  ( 0.003361  0.005326 -0.013906)
146:   3206.07   0.000957    4.84  0.000093  ( 0.000645 -0.000871  0.009593)
147:   3208.52   0.000412    2.08  0.000040  (-0.003766 -0.004819  0.001641)
148:   3794.45   0.043370  219.18  0.003567  ( 0.051175  0.016079 -0.026257)
149:   3796.63   0.037650  190.27  0.003095  (-0.033269 -0.041076  0.017338)

* The epsilon (eps) is given for a Dirac delta lineshape.
** The dipole moment derivative (T) already includes vibrational overlap.

The first frequency considered to be a vibration is 7
The total number of vibrations considered is 143


--------------------------
THERMOCHEMISTRY AT 363.15K
--------------------------

Temperature         ... 363.15 K
Pressure            ... 1.00 atm
Total Mass          ... 414.39 AMU

Throughout the following assumptions are being made:
  (1) The electronic state is orbitally nondegenerate
      but the spin degeneracy is treated
  (2) There are no thermally accessible electronically excited states
  (3) Hindered rotations indicated by low frequency modes are not
      treated as such but are treated as vibrations and this may
      cause some error
  (4) All equations used are the standard statistical mechanics
      equations for an ideal gas
  (5) All vibrations are strictly harmonic

freq.      10.20  E(vib)   ...       0.71 
freq.      21.22  E(vib)   ...       0.69 
freq.      23.95  E(vib)   ...       0.69 
freq.      39.81  E(vib)   ...       0.67 
freq.      45.34  E(vib)   ...       0.66 
freq.      63.21  E(vib)   ...       0.64 
freq.      73.54  E(vib)   ...       0.62 
freq.      75.18  E(vib)   ...       0.62 
freq.      77.70  E(vib)   ...       0.62 
freq.      89.26  E(vib)   ...       0.60 
freq.     104.15  E(vib)   ...       0.58 
freq.     111.31  E(vib)   ...       0.57 
freq.     114.57  E(vib)   ...       0.57 
freq.     128.64  E(vib)   ...       0.55 
freq.     152.13  E(vib)   ...       0.53 
freq.     160.23  E(vib)   ...       0.52 
freq.     164.22  E(vib)   ...       0.51 
freq.     171.82  E(vib)   ...       0.50 
freq.     176.76  E(vib)   ...       0.50 
freq.     187.60  E(vib)   ...       0.49 
freq.     203.73  E(vib)   ...       0.47 
freq.     207.35  E(vib)   ...       0.47 
freq.     223.81  E(vib)   ...       0.45 
freq.     227.24  E(vib)   ...       0.44 
freq.     282.40  E(vib)   ...       0.39 
freq.     297.99  E(vib)   ...       0.38 
freq.     304.78  E(vib)   ...       0.37 
freq.     313.77  E(vib)   ...       0.36 
freq.     330.53  E(vib)   ...       0.35 
freq.     337.82  E(vib)   ...       0.34 
freq.     373.97  E(vib)   ...       0.31 
freq.     381.39  E(vib)   ...       0.31 
freq.     384.50  E(vib)   ...       0.31 
freq.     390.42  E(vib)   ...       0.30 
freq.     401.94  E(vib)   ...       0.29 
freq.     428.74  E(vib)   ...       0.27 
freq.     441.37  E(vib)   ...       0.27 
freq.     449.37  E(vib)   ...       0.26 
freq.     464.31  E(vib)   ...       0.25 
freq.     476.82  E(vib)   ...       0.24 
freq.     484.37  E(vib)   ...       0.24 
freq.     500.23  E(vib)   ...       0.23 
freq.     525.77  E(vib)   ...       0.21 
freq.     530.12  E(vib)   ...       0.21 
freq.     562.24  E(vib)   ...       0.19 
freq.     569.73  E(vib)   ...       0.19 
freq.     580.79  E(vib)   ...       0.18 
freq.     594.67  E(vib)   ...       0.18 
freq.     603.94  E(vib)   ...       0.17 
freq.     618.39  E(vib)   ...       0.17 
freq.     623.91  E(vib)   ...       0.16 
freq.     646.31  E(vib)   ...       0.15 
freq.     684.90  E(vib)   ...       0.14 
freq.     718.65  E(vib)   ...       0.13 
freq.     730.67  E(vib)   ...       0.12 
freq.     751.26  E(vib)   ...       0.12 
freq.     768.39  E(vib)   ...       0.11 
freq.     770.96  E(vib)   ...       0.11 
freq.     806.86  E(vib)   ...       0.10 
freq.     817.06  E(vib)   ...       0.10 
freq.     831.04  E(vib)   ...       0.09 
freq.     838.76  E(vib)   ...       0.09 
freq.     839.10  E(vib)   ...       0.09 
freq.     853.50  E(vib)   ...       0.09 
freq.     879.30  E(vib)   ...       0.08 
freq.     884.80  E(vib)   ...       0.08 
freq.     913.36  E(vib)   ...       0.07 
freq.     919.50  E(vib)   ...       0.07 
freq.     954.12  E(vib)   ...       0.06 
freq.     965.65  E(vib)   ...       0.06 
freq.     969.14  E(vib)   ...       0.06 
freq.     975.63  E(vib)   ...       0.06 
freq.     983.00  E(vib)   ...       0.06 
freq.    1005.29  E(vib)   ...       0.05 
freq.    1008.79  E(vib)   ...       0.05 
freq.    1018.34  E(vib)   ...       0.05 
freq.    1054.66  E(vib)   ...       0.05 
freq.    1090.58  E(vib)   ...       0.04 
freq.    1136.72  E(vib)   ...       0.04 
freq.    1156.70  E(vib)   ...       0.03 
freq.    1167.85  E(vib)   ...       0.03 
freq.    1174.44  E(vib)   ...       0.03 
freq.    1175.59  E(vib)   ...       0.03 
freq.    1182.87  E(vib)   ...       0.03 
freq.    1189.87  E(vib)   ...       0.03 
freq.    1197.24  E(vib)   ...       0.03 
freq.    1211.39  E(vib)   ...       0.03 
freq.    1219.04  E(vib)   ...       0.03 
freq.    1235.61  E(vib)   ...       0.03 
freq.    1251.68  E(vib)   ...       0.03 
freq.    1270.85  E(vib)   ...       0.02 
freq.    1284.22  E(vib)   ...       0.02 
freq.    1288.12  E(vib)   ...       0.02 
freq.    1303.27  E(vib)   ...       0.02 
freq.    1308.60  E(vib)   ...       0.02 
freq.    1314.44  E(vib)   ...       0.02 
freq.    1316.54  E(vib)   ...       0.02 
freq.    1327.52  E(vib)   ...       0.02 
freq.    1339.84  E(vib)   ...       0.02 
freq.    1350.91  E(vib)   ...       0.02 
freq.    1360.45  E(vib)   ...       0.02 
freq.    1361.99  E(vib)   ...       0.02 
freq.    1375.63  E(vib)   ...       0.02 
freq.    1444.18  E(vib)   ...       0.01 
freq.    1449.51  E(vib)   ...       0.01 
freq.    1461.32  E(vib)   ...       0.01 
freq.    1464.89  E(vib)   ...       0.01 
freq.    1480.28  E(vib)   ...       0.01 
freq.    1483.21  E(vib)   ...       0.01 
freq.    1485.59  E(vib)   ...       0.01 
freq.    1488.79  E(vib)   ...       0.01 
freq.    1492.69  E(vib)   ...       0.01 
freq.    1494.31  E(vib)   ...       0.01 
freq.    1548.47  E(vib)   ...       0.01 
freq.    1555.77  E(vib)   ...       0.01 
freq.    1624.72  E(vib)   ...       0.01 
freq.    1640.07  E(vib)   ...       0.01 
freq.    1654.11  E(vib)   ...       0.01 
freq.    1662.27  E(vib)   ...       0.01 
freq.    1673.50  E(vib)   ...       0.01 
freq.    1708.49  E(vib)   ...       0.01 
freq.    1712.15  E(vib)   ...       0.01 
freq.    1721.49  E(vib)   ...       0.01 
freq.    1750.88  E(vib)   ...       0.00 
freq.    3044.67  E(vib)   ...       0.00 
freq.    3063.27  E(vib)   ...       0.00 
freq.    3081.19  E(vib)   ...       0.00 
freq.    3119.65  E(vib)   ...       0.00 
freq.    3134.60  E(vib)   ...       0.00 
freq.    3144.69  E(vib)   ...       0.00 
freq.    3165.07  E(vib)   ...       0.00 
freq.    3176.96  E(vib)   ...       0.00 
freq.    3180.01  E(vib)   ...       0.00 
freq.    3181.33  E(vib)   ...       0.00 
freq.    3181.77  E(vib)   ...       0.00 
freq.    3186.68  E(vib)   ...       0.00 
freq.    3189.20  E(vib)   ...       0.00 
freq.    3193.11  E(vib)   ...       0.00 
freq.    3197.26  E(vib)   ...       0.00 
freq.    3206.07  E(vib)   ...       0.00 
freq.    3208.52  E(vib)   ...       0.00 
freq.    3794.45  E(vib)   ...       0.00 
freq.    3796.63  E(vib)   ...       0.00 

------------
INNER ENERGY
------------

The inner energy is: U= E(el) + E(ZPE) + E(vib) + E(rot) + E(trans)
    E(el)   - is the total energy from the electronic structure calculation
              = E(kin-el) + E(nuc-el) + E(el-el) + E(nuc-nuc)
    E(ZPE)  - the the zero temperature vibrational energy from the frequency calculation
    E(vib)  - the the finite temperature correction to E(ZPE) due to population
              of excited vibrational states
    E(rot)  - is the rotational thermal energy
    E(trans)- is the translational thermal energy

Summary of contributions to the inner energy U:
Electronic energy                ...  -1468.46269728 Eh
Zero point energy                ...      0.37482710 Eh     235.21 kcal/mol
Thermal vibrational correction   ...      0.03813849 Eh      23.93 kcal/mol
Thermal rotational correction    ...      0.00172503 Eh       1.08 kcal/mol
Thermal translational correction ...      0.00172503 Eh       1.08 kcal/mol
-----------------------------------------------------------------------
Total thermal energy                  -1468.04628162 Eh


Summary of corrections to the electronic energy:
(perhaps to be used in another calculation)
Total thermal correction                  0.04158856 Eh      26.10 kcal/mol
Non-thermal (ZPE) correction              0.37482710 Eh     235.21 kcal/mol
-----------------------------------------------------------------------
Total correction                          0.41641566 Eh     261.30 kcal/mol


--------
ENTHALPY
--------

The enthalpy is H = U + kB*T
                kB is Boltzmann's constant
Total free energy                 ...  -1468.04628162 Eh 
Thermal Enthalpy correction       ...      0.00115006 Eh       0.72 kcal/mol
-----------------------------------------------------------------------
Total Enthalpy                    ...  -1468.04513156 Eh


Note: Only C1 symmetry has been detected, increase convergence thresholds 
      if your molecule has a higher symmetry. Symmetry factor of 1.0 is   
      used for the rotational entropy correction. 
 

Note: Rotational entropy computed according to Herzberg 
Infrared and Raman Spectra, Chapter V,1, Van Nostrand Reinhold, 1945 
Point Group:  C1, Symmetry Number:   1  
Rotational constants in cm-1:     0.007276     0.002619     0.002237 

Vibrational entropy computed according to the QRRHO of S. Grimme
Chem.Eur.J. 2012 18 9955


-------
ENTROPY
-------

The entropy contributions are T*S = T*(S(el)+S(vib)+S(rot)+S(trans))
     S(el)   - electronic entropy
     S(vib)  - vibrational entropy
     S(rot)  - rotational entropy
     S(trans)- translational entropy
The entropies will be listed as multiplied by the temperature to get
units of energy

Electronic entropy                ...      0.00079714 Eh      0.50 kcal/mol
Vibrational entropy               ...      0.07021888 Eh     44.06 kcal/mol
Rotational entropy                ...      0.02168276 Eh     13.61 kcal/mol
Translational entropy             ...      0.02600477 Eh     16.32 kcal/mol
-----------------------------------------------------------------------
Final entropy term                ...      0.11870355 Eh     74.49 kcal/mol

In case the symmetry of your molecule has not been determined correctly
or in case you have a reason to use a different symmetry number we print 
out the resulting rotational entropy values for sn=1,12 :
 --------------------------------------------------------
|  sn= 1 | S(rot)=       0.02168276 Eh     13.61 kcal/mol|
|  sn= 2 | S(rot)=       0.02088563 Eh     13.11 kcal/mol|
|  sn= 3 | S(rot)=       0.02041933 Eh     12.81 kcal/mol|
|  sn= 4 | S(rot)=       0.02008849 Eh     12.61 kcal/mol|
|  sn= 5 | S(rot)=       0.01983187 Eh     12.44 kcal/mol|
|  sn= 6 | S(rot)=       0.01962220 Eh     12.31 kcal/mol|
|  sn= 7 | S(rot)=       0.01944492 Eh     12.20 kcal/mol|
|  sn= 8 | S(rot)=       0.01929136 Eh     12.11 kcal/mol|
|  sn= 9 | S(rot)=       0.01915590 Eh     12.02 kcal/mol|
|  sn=10 | S(rot)=       0.01903474 Eh     11.94 kcal/mol|
|  sn=11 | S(rot)=       0.01892513 Eh     11.88 kcal/mol|
|  sn=12 | S(rot)=       0.01882506 Eh     11.81 kcal/mol|
 --------------------------------------------------------


-------------------
GIBBS FREE ENERGY
-------------------

The Gibbs free energy is G = H - T*S

Total enthalpy                    ...  -1468.04513156 Eh 
Total entropy correction          ...     -0.11870355 Eh    -74.49 kcal/mol
-----------------------------------------------------------------------
Final Gibbs free energy         ...  -1468.16383511 Eh

For completeness - the Gibbs free energy minus the electronic energy
G-E(el)                           ...      0.29886216 Eh    187.54 kcal/mol



Timings for individual modules:

Sum of individual times         ...  1936435.889 sec (=32273.931 min)
GTO integral calculation        ...       53.315 sec (=   0.889 min)   0.0 %
SCF iterations                  ...   198217.447 sec (=3303.624 min)  10.2 %
SCF Gradient evaluation         ...    27071.295 sec (= 451.188 min)   1.4 %
Geometry relaxation             ...        2.724 sec (=   0.045 min)   0.0 %
Numerical frequency calculation ...  1711091.108 sec (=28518.185 min)  88.4 %
                             ****ORCA TERMINATED NORMALLY****
TOTAL RUN TIME: 22 days 9 hours 2 minutes 8 seconds 131 msec
