
                                 *****************
                                 * O   R   C   A *
                                 *****************

                                            #,                                       
                                            ###                                      
                                            ####                                     
                                            #####                                    
                                            ######                                   
                                           ########,                                 
                                     ,,################,,,,,                         
                               ,,#################################,,                 
                          ,,##########################################,,             
                       ,#########################################, ''#####,          
                    ,#############################################,,   '####,        
                  ,##################################################,,,,####,       
                ,###########''''           ''''###############################       
              ,#####''   ,,,,##########,,,,          '''####'''          '####       
            ,##' ,,,,###########################,,,                        '##       
           ' ,,###''''                  '''############,,,                           
         ,,##''                                '''############,,,,        ,,,,,,###''
      ,#''                                            '''#######################'''  
     '                                                          ''''####''''         
             ,#######,   #######,   ,#######,      ##                                
            ,#'     '#,  ##    ##  ,#'     '#,    #''#        ######   ,####,        
            ##       ##  ##   ,#'  ##            #'  '#       #        #'  '#        
            ##       ##  #######   ##           ,######,      #####,   #    #        
            '#,     ,#'  ##    ##  '#,     ,#' ,#      #,         ##   #,  ,#        
             '#######'   ##     ##  '#######'  #'      '#     #####' # '####'        



                  #######################################################
                  #                        -***-                        #
                  #          Department of theory and spectroscopy      #
                  #    Directorship and core code : Frank Neese         #
                  #        Max Planck Institute fuer Kohlenforschung    #
                  #                Kaiser Wilhelm Platz 1               #
                  #                 D-45470 Muelheim/Ruhr               #
                  #                      Germany                        #
                  #                                                     #
                  #                  All rights reserved                #
                  #                        -***-                        #
                  #######################################################


                         Program Version 5.0.4 -  RELEASE  -


 With contributions from (in alphabetic order):
   Daniel Aravena         : Magnetic Suceptibility
   Michael Atanasov       : Ab Initio Ligand Field Theory (pilot matlab implementation)
   Alexander A. Auer      : GIAO ZORA, VPT2 properties, NMR spectrum
   Ute Becker             : Parallelization
   Giovanni Bistoni       : ED, misc. LED, open-shell LED, HFLD
   Martin Brehm           : Molecular dynamics
   Dmytro Bykov           : SCF Hessian
   Vijay G. Chilkuri      : MRCI spin determinant printing, contributions to CSF-ICE
   Dipayan Datta          : RHF DLPNO-CCSD density
   Achintya Kumar Dutta   : EOM-CC, STEOM-CC
   Dmitry Ganyushin       : Spin-Orbit,Spin-Spin,Magnetic field MRCI
   Miquel Garcia          : C-PCM and meta-GGA Hessian, CC/C-PCM, Gaussian charge scheme
   Yang Guo               : DLPNO-NEVPT2, F12-NEVPT2, CIM, IAO-localization
   Andreas Hansen         : Spin unrestricted coupled pair/coupled cluster methods
   Benjamin Helmich-Paris : MC-RPA, TRAH-SCF, COSX integrals
   Lee Huntington         : MR-EOM, pCC
   Robert Izsak           : Overlap fitted RIJCOSX, COSX-SCS-MP3, EOM
   Marcus Kettner         : VPT2
   Christian Kollmar      : KDIIS, OOCD, Brueckner-CCSD(T), CCSD density, CASPT2, CASPT2-K
   Simone Kossmann        : Meta GGA functionals, TD-DFT gradient, OOMP2, MP2 Hessian
   Martin Krupicka        : Initial AUTO-CI
   Lucas Lang             : DCDCAS
   Marvin Lechner         : AUTO-CI (C++ implementation), FIC-MRCC
   Dagmar Lenk            : GEPOL surface, SMD
   Dimitrios Liakos       : Extrapolation schemes; Compound Job, initial MDCI parallelization
   Dimitrios Manganas     : Further ROCIS development; embedding schemes
   Dimitrios Pantazis     : SARC Basis sets
   Anastasios Papadopoulos: AUTO-CI, single reference methods and gradients
   Taras Petrenko         : DFT Hessian,TD-DFT gradient, ASA, ECA, R-Raman, ABS, FL, XAS/XES, NRVS
   Peter Pinski           : DLPNO-MP2, DLPNO-MP2 Gradient
   Christoph Reimann      : Effective Core Potentials
   Marius Retegan         : Local ZFS, SOC
   Christoph Riplinger    : Optimizer, TS searches, QM/MM, DLPNO-CCSD(T), (RO)-DLPNO pert. Triples
   Tobias Risthaus        : Range-separated hybrids, TD-DFT gradient, RPA, STAB
   Michael Roemelt        : Original ROCIS implementation
   Masaaki Saitow         : Open-shell DLPNO-CCSD energy and density
   Barbara Sandhoefer     : DKH picture change effects
   Avijit Sen             : IP-ROCIS
   Kantharuban Sivalingam : CASSCF convergence, NEVPT2, FIC-MRCI
   Bernardo de Souza      : ESD, SOC TD-DFT
   Georgi Stoychev        : AutoAux, RI-MP2 NMR, DLPNO-MP2 response
   Willem Van den Heuvel  : Paramagnetic NMR
   Boris Wezisla          : Elementary symmetry handling
   Frank Wennmohs         : Technical directorship


 We gratefully acknowledge several colleagues who have allowed us to
 interface, adapt or use parts of their codes:
   Stefan Grimme, W. Hujo, H. Kruse, P. Pracht,  : VdW corrections, initial TS optimization,
                  C. Bannwarth, S. Ehlert          DFT functionals, gCP, sTDA/sTD-DF
   Ed Valeev, F. Pavosevic, A. Kumar             : LibInt (2-el integral package), F12 methods
   Garnet Chan, S. Sharma, J. Yang, R. Olivares  : DMRG
   Ulf Ekstrom                                   : XCFun DFT Library
   Mihaly Kallay                                 : mrcc  (arbitrary order and MRCC methods)
   Jiri Pittner, Ondrej Demel                    : Mk-CCSD
   Frank Weinhold                                : gennbo (NPA and NBO analysis)
   Christopher J. Cramer and Donald G. Truhlar   : smd solvation model
   Lars Goerigk                                  : TD-DFT with DH, B97 family of functionals
   V. Asgeirsson, H. Jonsson                     : NEB implementation
   FAccTs GmbH                                   : IRC, NEB, NEB-TS, DLPNO-Multilevel, CI-OPT
                                                   MM, QMMM, 2- and 3-layer-ONIOM, Crystal-QMMM,
                                                   LR-CPCM, SF, NACMEs, symmetry and pop. for TD-DFT,
                                                   nearIR, NL-DFT gradient (VV10), updates on ESD,
                                                   ML-optimized integration grids
   S Lehtola, MJT Oliveira, MAL Marques          : LibXC Library
   Liviu Ungur et al                             : ANISO software


 Your calculation uses the libint2 library for the computation of 2-el integrals
 For citations please refer to: http://libint.valeyev.net

 Your ORCA version has been built with support for libXC version: 5.1.0
 For citations please refer to: https://tddft.org/programs/libxc/

 This ORCA versions uses:
   CBLAS   interface :  Fast vector & matrix operations
   LAPACKE interface :  Fast linear algebra routines
   SCALAPACK package :  Parallel linear algebra routines
   Shared memory     :  Shared parallel matrices
   BLAS/LAPACK       :  OpenBLAS 0.3.15  USE64BITINT DYNAMIC_ARCH NO_AFFINITY Zen SINGLE_THREADED
        Core in use  :  Zen
   Copyright (c) 2011-2014, The OpenBLAS Project


Your calculation utilizes the DFT-NL dispersion correction.
Cite in your paper:
Vydrov, O. A.; Van Voorhis, T. J. Chem. Phys. 2010, 133, 244103
Hujo, W.; Grimme, S. J. Chem. Theory Comput. 2011, 7, 3866 
   

================================================================================

----- Orbital basis set information -----
Your calculation utilizes the basis: 6-311+G(d)
   H, Li - Ne  : R. Krishnan, J. S. Binkley, R. Seeger and J. A. Pople, J. Chem. Phys. 72, 650 (1980).
   Na - Ar     : A. D. McLean and G. S. Chandler J. Chem. Phys. 72, 5639, (1980).
   K  - Ca     : J.-P. Blaudeau, M. P. McGrath, L. A. Curtiss and L. Radom, J. Chem. Phys. 107, 5016 (1997).
   Ga - Kr     : L. A. Curtiss, M. P. McGrath, J.-P. Blandeau, N. E. Davis, R. C. Binning and L. Radom, J. Chem. Phys. 103, 6104 (1995).
   Pol./Diff.
   H, Li - Cl  : T. Clark, J. Chandrasekhar and P. v. R. Schleyer, J. Comp. Chem. 4, 294 (1983).
   H - Ne      : M. J. Frisch, J. A. Pople and J. S. Binkley, J. Chem. Phys. 80, 3265 (1984).

----- AuxJ basis set information -----
Your calculation utilizes the auxiliary basis: def2/J
   F. Weigend, Phys. Chem. Chem. Phys. 8, 1057 (2006).

================================================================================
                                        WARNINGS
                       Please study these warnings very carefully!
================================================================================

Using LibXC functional ID 531 : wB97M-V exchange-correlation functional
[ 1]  N. Mardirossian and M. Head-Gordon, J. Chem. Phys. 144, 214110 (2016)
Using LibXC functional ID 531 : wB97M-V exchange-correlation functional
[ 1]  N. Mardirossian and M. Head-Gordon, J. Chem. Phys. 144, 214110 (2016)

WARNING: B97M-V or wB97M-V functional requested.
  ===> : libXC variant has now been activated.
         Any manually given DFX/HFX/RangeSep scaling parameters are IGNORED!

Your calculation utilizes LibXC
 by S Lehtola, C Steigemann, MJT Oliveira & MAL Marques
Please cite in your paper:
 S Lehtola, C Steigemann, MJT Oliveira & MAL Marques, SoftwareX, 7, (2018), 1.
   


WARNING: your system is open-shell and RHF/RKS was chosen
  ===> : WILL SWITCH to UHF/UKS


WARNING: Geometry Optimization
  ===> : Switching off AutoStart
         For restart on a previous wavefunction, please use MOREAD

WARNING: Analytic gradients for DFT-NL dispersion can only be done using the self-consistent method,
  ===>   Switching to SCNL

WARNING: Self-consistent DFT-NL dispersion not compatible with AutoTRAH.
  ===>   Switching AutoTRAH off


INFO   : the flag for use of the SHARK integral package has been found!

================================================================================
                                       INPUT FILE
================================================================================
NAME = CURCUMIN-OPT-FREQ-Reag-WB97M-V-6-311+G-D-298.inp
|  1> ! Opt NumFreq wb97M-V 6-311+G(d) CPCM RIJDX
|  2> %maxcore 2000
|  3> %cpcm
|  4> epsilon 7 # Dielectric constant
|  5> refrac 1.85341 # Refractive index
|  6> end
|  7> 
|  8> * xyz 0 2
|  9> C     -2.751635    0.256058   -0.312564
| 10> H     -2.341337    0.675132   -1.228229
| 11> C     -1.998279    0.298418    0.805510
| 12> H     -2.364682   -0.091341    1.750987
| 13> C     -0.643946    0.861900    0.897689
| 14> O     -0.060407    0.887355    1.971457
| 15> C     -4.093930   -0.293825   -0.457346
| 16> C     -4.730160   -0.207514   -1.705364
| 17> C     -4.790893   -0.921728    0.593892
| 18> C     -6.010944   -0.711446   -1.895166
| 19> H     -4.217903    0.267623   -2.535693
| 20> C     -6.067014   -1.429181    0.419890
| 21> H     -4.350054   -1.019209    1.579525
| 22> C     -6.694027   -1.318931   -0.841558
| 23> H     -6.493820   -0.624671   -2.864908
| 24> O     -7.954729   -1.806719   -0.962212
| 25> H     -8.273583   -1.668120   -1.865243
| 26> O     -6.723111   -1.972090    1.492617
| 27> C     -6.944534   -3.389985    1.434552
| 28> H     -5.993450   -3.925579    1.348123
| 29> H     -7.425351   -3.658790    2.374681
| 30> H     -7.597478   -3.659899    0.602582
| 31> C      2.698306   -0.003742   -0.184978
| 32> H      1.792465   -0.578045   -0.363154
| 33> C      2.594082    1.332352   -0.030504
| 34> H      3.468268    1.947962    0.161071
| 35> C      1.345820    2.098566   -0.086866
| 36> O      1.368921    3.312774    0.082083
| 37> C      3.912516   -0.808800   -0.139369
| 38> C      3.815157   -2.194816   -0.338400
| 39> C      5.193132   -0.265822    0.084827
| 40> C      4.942378   -3.006369   -0.305057
| 41> H      2.842945   -2.643303   -0.515701
| 42> C      6.324963   -1.061673    0.123272
| 43> H      5.330341    0.796862    0.248582
| 44> C      6.202153   -2.456064   -0.068483
| 45> H      4.848112   -4.078902   -0.452677
| 46> O      7.332900   -3.203542    0.002458
| 47> H      7.117122   -4.136044   -0.139478
| 48> O      7.535273   -0.489053    0.412317
| 49> C      8.484971   -0.462874   -0.664542
| 50> H      8.078633    0.079824   -1.524393
| 51> H      9.357780    0.066918   -0.283886
| 52> H      8.775369   -1.470507   -0.967492
| 53> C      0.018587    1.406103   -0.372506
| 54> H      0.130300    0.590509   -1.092464
| 55> H     -0.640617    2.145105   -0.832419
| 56> O     -1.356703    4.806173   -0.822513
| 57> O     -0.285703    5.932410    0.728617
| 58> N     -0.819257    4.988892    0.231428
| 59> *
| 60> 
| 61>                          ****END OF INPUT****
================================================================================

                       *****************************
                       * Geometry Optimization Run *
                       *****************************

Geometry optimization settings:
Update method            Update   .... BFGS
Choice of coordinates    CoordSys .... Z-matrix Internals
Initial Hessian          InHess   .... Almoef's Model

Convergence Tolerances:
Energy Change            TolE     ....  5.0000e-06 Eh
Max. Gradient            TolMAXG  ....  3.0000e-04 Eh/bohr
RMS Gradient             TolRMSG  ....  1.0000e-04 Eh/bohr
Max. Displacement        TolMAXD  ....  4.0000e-03 bohr
RMS Displacement         TolRMSD  ....  2.0000e-03 bohr
Strict Convergence                ....  False
------------------------------------------------------------------------------
                        ORCA OPTIMIZATION COORDINATE SETUP
------------------------------------------------------------------------------

The optimization will be done in new redundant internal coordinates
Making redundant internal coordinates   ...  (new redundants) done
Evaluating the initial hessian          ...  (Almloef) done
Evaluating the coordinates              ...  done
Calculating the B-matrix                .... done
Calculating the G-matrix                .... done
Diagonalizing the G-matrix              .... done
Small eigenvalue found = 6.503e-04
Small eigenvalue found = 1.206e-03
Small eigenvalue found = 4.704e-03
Small eigenvalue found = 6.184e-03
Small eigenvalue found = 7.584e-03
Small eigenvalue found = 1.084e-02
Small eigenvalue found = 1.684e-02
Small eigenvalue found = 2.215e-02
Small eigenvalue found = 2.695e-02
Small eigenvalue found = 2.880e-02
The first mode is                       ....  112
The number of degrees of freedom        ....  144

    -----------------------------------------------------------------
                    Redundant Internal Coordinates


    -----------------------------------------------------------------
         Definition                    Initial Value    Approx d2E/dq
    -----------------------------------------------------------------
      1. B(H   1,C   0)                  1.0874         0.363574   
      2. B(C   2,C   0)                  1.3489         0.726727   
      3. B(H   3,C   2)                  1.0863         0.365002   
      4. B(C   4,C   2)                  1.4698         0.466089   
      5. B(O   5,C   4)                  1.2224         1.035971   
      6. B(C   6,C   0)                  1.4578         0.487100   
      7. B(C   7,C   6)                  1.4035         0.594586   
      8. B(C   8,C   6)                  1.4089         0.582795   
      9. B(C   9,C   7)                  1.3894         0.626219   
     10. B(H  10,C   7)                  1.0852         0.366537   
     11. B(C  11,C   8)                  1.3843         0.638031   
     12. B(H  12,C   8)                  1.0841         0.367964   
     13. B(C  13,C  11)                  1.4130         0.574187   
     14. B(C  13,C   9)                  1.3949         0.613663   
     15. B(H  14,C   9)                  1.0868         0.364380   
     16. B(O  15,C  13)                  1.3572         0.631366   
     17. B(H  16,O  15)                  0.9676         0.505551   
     18. B(O  17,C  11)                  1.3697         0.603023   
     19. B(C  18,O  17)                  1.4363         0.472150   
     20. B(H  19,C  18)                  1.0949         0.353625   
     21. B(H  20,C  18)                  1.0896         0.360596   
     22. B(H  21,C  18)                  1.0915         0.358126   
     23. B(H  23,C  22)                  1.0873         0.363753   
     24. B(C  24,C  22)                  1.3490         0.726289   
     25. B(H  25,C  24)                  1.0862         0.365133   
     26. B(C  26,C  24)                  1.4657         0.473028   
     27. B(O  27,C  26)                  1.2261         1.021716   
     28. B(C  28,C  22)                  1.4576         0.487459   
     29. B(C  29,C  28)                  1.4036         0.594317   
     30. B(C  30,C  28)                  1.4089         0.582837   
     31. B(C  31,C  29)                  1.3894         0.626237   
     32. B(H  32,C  29)                  1.0853         0.366436   
     33. B(C  33,C  30)                  1.3842         0.638346   
     34. B(H  34,C  30)                  1.0839         0.368198   
     35. B(C  35,C  33)                  1.4129         0.574466   
     36. B(C  35,C  31)                  1.3949         0.613578   
     37. B(H  36,C  31)                  1.0867         0.364438   
     38. B(O  37,C  35)                  1.3573         0.630955   
     39. B(H  38,O  37)                  0.9676         0.505624   
     40. B(O  39,C  33)                  1.3698         0.602752   
     41. B(C  40,O  39)                  1.4360         0.472506   
     42. B(H  41,C  40)                  1.0950         0.353575   
     43. B(H  42,C  40)                  1.0897         0.360541   
     44. B(H  43,C  40)                  1.0915         0.358084   
     45. B(C  44,C  26)                  1.5240         0.381870   
     46. B(C  44,C   4)                  1.5325         0.370183   
     47. B(H  45,C  44)                  1.0936         0.355338   
     48. B(H  46,C  44)                  1.0919         0.357626   
     49. B(O  47,H  46)                  2.7558         0.000710   
     50. B(O  47,O  27)                  3.2369         0.000567   
     51. B(O  48,O  27)                  3.1652         0.000738   
     52. B(N  49,H  46)                  3.0415         0.000248   
     53. B(N  49,O  27)                  2.7604         0.003263   
     54. B(N  49,O  48)                  1.1925         1.035332   
     55. B(N  49,O  47)                  1.1971         1.018092   
     56. A(C   2,C   0,C   6)          127.4769         0.427689   
     57. A(H   1,C   0,C   2)          118.3696         0.363164   
     58. A(H   1,C   0,C   6)          114.1532         0.339428   
     59. A(C   0,C   2,C   4)          125.3572         0.424325   
     60. A(H   3,C   2,C   4)          113.1890         0.337162   
     61. A(C   0,C   2,H   3)          121.4522         0.363407   
     62. A(C   2,C   4,O   5)          120.1968         0.449354   
     63. A(C   2,C   4,C  44)          118.8509         0.376846   
     64. A(O   5,C   4,C  44)          120.9516         0.431045   
     65. A(C   0,C   6,C   8)          123.3320         0.411185   
     66. A(C   7,C   6,C   8)          117.8157         0.426058   
     67. A(C   0,C   6,C   7)          118.8507         0.412649   
     68. A(C   6,C   7,H  10)          119.5598         0.351471   
     69. A(C   6,C   7,C   9)          121.1351         0.431586   
     70. A(C   9,C   7,H  10)          119.3033         0.354569   
     71. A(C   6,C   8,C  11)          121.7085         0.431482   
     72. A(C   6,C   8,H  12)          121.1486         0.350514   
     73. A(C  11,C   8,H  12)          117.1405         0.355929   
     74. A(C   7,C   9,H  14)          120.1672         0.354214   
     75. A(C   7,C   9,C  13)          120.4111         0.434043   
     76. A(C  13,C   9,H  14)          119.4179         0.353001   
     77. A(C  13,C  11,O  17)          121.1695         0.423225   
     78. A(C   8,C  11,O  17)          119.2387         0.431297   
     79. A(C   8,C  11,C  13)          119.5172         0.430330   
     80. A(C  11,C  13,O  15)          117.6154         0.426718   
     81. A(C   9,C  13,O  15)          122.9754         0.431838   
     82. A(C   9,C  13,C  11)          119.4062         0.427335   
     83. A(C  13,O  15,H  16)          109.7296         0.369485   
     84. A(C  11,O  17,C  18)          115.6901         0.406116   
     85. A(O  17,C  18,H  21)          111.5410         0.334780   
     86. A(H  19,C  18,H  20)          109.3129         0.290075   
     87. A(O  17,C  18,H  20)          106.0627         0.335163   
     88. A(O  17,C  18,H  19)          110.6207         0.334078   
     89. A(H  20,C  18,H  21)          109.4313         0.290651   
     90. A(H  19,C  18,H  21)          109.7848         0.289762   
     91. A(C  24,C  22,C  28)          127.4314         0.427699   
     92. A(H  23,C  22,C  24)          118.5254         0.363157   
     93. A(H  23,C  22,C  28)          114.0430         0.339498   
     94. A(H  25,C  24,C  26)          113.3220         0.338013   
     95. A(C  22,C  24,C  26)          125.3891         0.425403   
     96. A(C  22,C  24,H  25)          121.2873         0.363392   
     97. A(C  24,C  26,O  27)          119.7570         0.449429   
     98. A(O  27,C  26,C  44)          119.4842         0.432381   
     99. A(C  24,C  26,C  44)          120.7535         0.379849   
    100. A(O  47,O  27,N  49)           21.1696         0.109883   
    101. A(O  47,O  27,O  48)           40.0973         0.103915   
    102. A(C  26,O  27,O  48)          146.9190         0.171079   
    103. A(O  48,O  27,N  49)           21.8759         0.111167   
    104. A(C  26,O  27,O  47)          113.7352         0.166326   
    105. A(C  26,O  27,N  49)          126.4286         0.203920   
    106. A(C  29,C  28,C  30)          117.7855         0.426029   
    107. A(C  22,C  28,C  30)          123.3187         0.411244   
    108. A(C  22,C  28,C  29)          118.8937         0.412670   
    109. A(C  31,C  29,H  32)          119.2973         0.354554   
    110. A(C  28,C  29,H  32)          119.5629         0.351428   
    111. A(C  28,C  29,C  31)          121.1388         0.431553   
    112. A(C  33,C  30,H  34)          117.1286         0.355997   
    113. A(C  28,C  30,H  34)          121.1259         0.350556   
    114. A(C  28,C  30,C  33)          121.7404         0.431525   
    115. A(C  35,C  31,H  36)          119.3879         0.353002   
    116. A(C  29,C  31,H  36)          120.1883         0.354225   
    117. A(C  29,C  31,C  35)          120.4205         0.434035   
    118. A(C  35,C  33,O  39)          121.1993         0.423228   
    119. A(C  30,C  33,O  39)          119.2097         0.431300   
    120. A(C  30,C  33,C  35)          119.5121         0.430406   
    121. A(C  33,C  35,O  37)          117.6450         0.426705   
    122. A(C  31,C  35,O  37)          122.9538         0.431777   
    123. A(C  31,C  35,C  33)          119.3974         0.427361   
    124. A(C  35,O  37,H  38)          109.7110         0.369453   
    125. A(C  33,O  39,C  40)          115.7039         0.406138   
    126. A(H  41,C  40,H  42)          109.3045         0.290061   
    127. A(O  39,C  40,H  42)          106.0587         0.335196   
    128. A(O  39,C  40,H  41)          110.6388         0.334112   
    129. A(H  42,C  40,H  43)          109.4317         0.290639   
    130. A(H  41,C  40,H  43)          109.7740         0.289751   
    131. A(O  39,C  40,H  43)          111.5456         0.334816   
    132. A(H  45,C  44,H  46)          106.8058         0.289918   
    133. A(C  26,C  44,H  46)          107.2896         0.325123   
    134. A(C   4,C  44,H  46)          109.1752         0.323468   
    135. A(C  26,C  44,H  45)          111.9180         0.324780   
    136. A(C   4,C  44,H  45)          108.9643         0.323127   
    137. A(C   4,C  44,C  26)          112.4890         0.364150   
    138. A(O  27,O  47,N  49)           56.3809         0.165616   
    139. A(O  27,O  48,N  49)           59.5955         0.170634   
    140. A(O  27,N  49,O  48)           98.5286         0.203298   
    141. A(O  27,N  49,O  47)          102.4495         0.202864   
    142. A(O  47,N  49,O  48)          133.5277         0.508333   
    143. D(H   3,C   2,C   0,H   1)    179.0277         0.037442   
    144. D(C   4,C   2,C   0,H   1)     -0.4599         0.037442   
    145. D(H   3,C   2,C   0,C   6)     -0.7330         0.037442   
    146. D(C   4,C   2,C   0,C   6)    179.7794         0.037442   
    147. D(O   5,C   4,C   2,H   3)     -1.7265         0.014794   
    148. D(C  44,C   4,C   2,H   3)    177.9698         0.014794   
    149. D(O   5,C   4,C   2,C   0)    177.7980         0.014794   
    150. D(C  44,C   4,C   2,C   0)     -2.5058         0.014794   
    151. D(C   8,C   6,C   0,H   1)    177.9243         0.016155   
    152. D(C   7,C   6,C   0,H   1)     -1.6017         0.016155   
    153. D(C   8,C   6,C   0,C   2)     -2.3064         0.016155   
    154. D(C   7,C   6,C   0,C   2)    178.1676         0.016155   
    155. D(C   9,C   7,C   6,C   0)   -179.7635         0.024348   
    156. D(C   9,C   7,C   6,C   8)      0.6843         0.024348   
    157. D(H  10,C   7,C   6,C   0)     -0.2558         0.024348   
    158. D(H  10,C   7,C   6,C   8)   -179.8081         0.024348   
    159. D(H  12,C   8,C   6,C   7)    179.9151         0.023346   
    160. D(C  11,C   8,C   6,C   0)    179.8170         0.023346   
    161. D(C  11,C   8,C   6,C   7)     -0.6524         0.023346   
    162. D(H  12,C   8,C   6,C   0)      0.3845         0.023346   
    163. D(H  14,C   9,C   7,H  10)     -0.3021         0.027169   
    164. D(C  13,C   9,C   7,H  10)   -179.5832         0.027169   
    165. D(H  14,C   9,C   7,C   6)    179.2069         0.027169   
    166. D(C  13,C   9,C   7,C   6)     -0.0743         0.027169   
    167. D(O  17,C  11,C   8,H  12)      2.5669         0.028272   
    168. D(O  17,C  11,C   8,C   6)   -176.8873         0.028272   
    169. D(C  13,C  11,C   8,H  12)    179.4646         0.028272   
    170. D(C  13,C  11,C   8,C   6)      0.0104         0.028272   
    171. D(O  15,C  13,C   9,C   7)    178.7685         0.026027   
    172. D(C  11,C  13,C   9,H  14)   -179.8719         0.026027   
    173. D(C  11,C  13,C   9,C   7)     -0.5855         0.026027   
    174. D(O  15,C  13,C  11,O  17)     -1.9370         0.022630   
    175. D(O  15,C  13,C  11,C   8)   -178.7732         0.022630   
    176. D(C   9,C  13,C  11,O  17)    177.4513         0.022630   
    177. D(C   9,C  13,C  11,C   8)      0.6151         0.022630   
    178. D(O  15,C  13,C   9,H  14)     -0.5180         0.026027   
    179. D(H  16,O  15,C  13,C  11)    179.6793         0.029325   
    180. D(H  16,O  15,C  13,C   9)      0.3145         0.029325   
    181. D(C  18,O  17,C  11,C  13)     70.9363         0.026576   
    182. D(C  18,O  17,C  11,C   8)   -112.2189         0.026576   
    183. D(H  21,C  18,O  17,C  11)    -63.6857         0.017575   
    184. D(H  19,C  18,O  17,C  11)     58.8178         0.017575   
    185. D(H  20,C  18,O  17,C  11)    177.2466         0.017575   
    186. D(C  26,C  24,C  22,C  28)    179.9152         0.037393   
    187. D(C  26,C  24,C  22,H  23)     -0.2460         0.037393   
    188. D(H  25,C  24,C  22,C  28)     -0.5669         0.037393   
    189. D(H  25,C  24,C  22,H  23)    179.2720         0.037393   
    190. D(C  44,C  26,C  24,C  22)     -1.6000         0.015235   
    191. D(O  27,C  26,C  24,H  25)     -0.3042         0.015235   
    192. D(O  27,C  26,C  24,C  22)    179.2472         0.015235   
    193. D(C  44,C  26,C  24,H  25)    178.8486         0.015235   
    194. D(N  49,O  27,C  26,C  44)      5.9806         0.103967   
    195. D(N  49,O  27,C  26,C  24)   -174.8557         0.103967   
    196. D(O  48,O  27,C  26,C  44)     17.4292         0.103967   
    197. D(O  48,O  27,C  26,C  24)   -163.4071         0.103967   
    198. D(O  47,O  27,C  26,C  44)    -13.7043         0.103967   
    199. D(O  47,O  27,C  26,C  24)    165.4593         0.103967   
    200. D(C  30,C  28,C  22,C  24)      0.0991         0.016179   
    201. D(C  30,C  28,C  22,H  23)   -179.7458         0.016179   
    202. D(C  29,C  28,C  22,C  24)   -179.3552         0.016179   
    203. D(C  29,C  28,C  22,H  23)      0.7998         0.016179   
    204. D(C  31,C  29,C  28,C  30)      0.4985         0.024325   
    205. D(C  31,C  29,C  28,C  22)    179.9832         0.024325   
    206. D(H  32,C  29,C  28,C  30)   -179.8693         0.024325   
    207. D(H  32,C  29,C  28,C  22)     -0.3846         0.024325   
    208. D(H  34,C  30,C  28,C  29)   -179.7696         0.023349   
    209. D(H  34,C  30,C  28,C  22)      0.7704         0.023349   
    210. D(C  33,C  30,C  28,C  29)     -0.6203         0.023349   
    211. D(C  33,C  30,C  28,C  22)    179.9197         0.023349   
    212. D(H  36,C  31,C  29,H  32)     -0.1604         0.027171   
    213. D(H  36,C  31,C  29,C  28)    179.4727         0.027171   
    214. D(C  35,C  31,C  29,H  32)   -179.4927         0.027171   
    215. D(C  35,C  31,C  29,C  28)      0.1405         0.027171   
    216. D(O  39,C  33,C  30,H  34)      2.4746         0.028302   
    217. D(O  39,C  33,C  30,C  28)   -176.7072         0.028302   
    218. D(C  35,C  33,C  30,H  34)    179.2835         0.028302   
    219. D(C  35,C  33,C  30,C  28)      0.1018         0.028302   
    220. D(O  37,C  35,C  33,O  39)     -2.0126         0.022653   
    221. D(O  37,C  35,C  33,C  30)   -178.7563         0.022653   
    222. D(C  31,C  35,C  33,O  39)    177.2940         0.022653   
    223. D(C  31,C  35,C  33,C  30)      0.5503         0.022653   
    224. D(O  37,C  35,C  31,H  36)     -0.7411         0.026019   
    225. D(O  37,C  35,C  31,C  29)    178.5964         0.026019   
    226. D(C  33,C  35,C  31,H  36)    179.9909         0.026019   
    227. D(C  33,C  35,C  31,C  29)     -0.6715         0.026019   
    228. D(H  38,O  37,C  35,C  33)    179.6475         0.029284   
    229. D(H  38,O  37,C  35,C  31)      0.3675         0.029284   
    230. D(C  40,O  39,C  33,C  35)     70.9963         0.026551   
    231. D(C  40,O  39,C  33,C  30)   -112.2504         0.026551   
    232. D(H  43,C  40,O  39,C  33)    -63.9020         0.017602   
    233. D(H  42,C  40,O  39,C  33)    177.0297         0.017602   
    234. D(H  41,C  40,O  39,C  33)     58.6036         0.017602   
    235. D(H  46,C  44,C  26,O  27)     25.9899         0.010875   
    236. D(H  45,C  44,C  26,O  27)    142.8393         0.010875   
    237. D(H  45,C  44,C  26,C  24)    -36.3159         0.010875   
    238. D(C   4,C  44,C  26,O  27)    -94.0879         0.010875   
    239. D(C   4,C  44,C  26,C  24)     86.7570         0.010875   
    240. D(H  46,C  44,C   4,O   5)   -125.9202         0.010261   
    241. D(H  46,C  44,C   4,C   2)     54.3859         0.010261   
    242. D(H  45,C  44,C   4,O   5)    117.7729         0.010261   
    243. D(H  45,C  44,C   4,C   2)    -61.9210         0.010261   
    244. D(H  46,C  44,C  26,C  24)   -153.1653         0.010875   
    245. D(C  26,C  44,C   4,O   5)     -6.9390         0.010261   
    246. D(C  26,C  44,C   4,C   2)    173.3671         0.010261   
    247. D(N  49,O  47,O  27,O  48)    -22.6474         0.001500   
    248. D(N  49,O  47,O  27,C  26)    131.3664         0.001500   
    249. D(N  49,O  48,O  27,O  47)     21.9136         0.001500   
    250. D(N  49,O  48,O  27,C  26)    -25.3800         0.001500   
    251. D(O  47,N  49,O  48,O  27)   -116.3020         0.117374   
    252. D(O  48,N  49,O  47,O  27)    114.7825         0.123065   
    253. D(O  48,N  49,O  27,O  47)   -138.2693         0.001501   
    254. D(O  48,N  49,O  27,C  26)    163.0960         0.001501   
    255. D(O  47,N  49,O  27,O  48)    138.2693         0.001501   
    256. D(O  47,N  49,O  27,C  26)    -58.6347         0.001501   
    -----------------------------------------------------------------

Number of atoms                         .... 50
Number of degrees of freedom            .... 256

         *************************************************************
         *                GEOMETRY OPTIMIZATION CYCLE   1            *
         *************************************************************
---------------------------------
CARTESIAN COORDINATES (ANGSTROEM)
---------------------------------
  C     -2.751635    0.256058   -0.312564
  H     -2.341337    0.675132   -1.228229
  C     -1.998279    0.298418    0.805510
  H     -2.364682   -0.091341    1.750987
  C     -0.643946    0.861900    0.897689
  O     -0.060407    0.887355    1.971457
  C     -4.093930   -0.293825   -0.457346
  C     -4.730160   -0.207514   -1.705364
  C     -4.790893   -0.921728    0.593892
  C     -6.010944   -0.711446   -1.895166
  H     -4.217903    0.267623   -2.535693
  C     -6.067014   -1.429181    0.419890
  H     -4.350054   -1.019209    1.579525
  C     -6.694027   -1.318931   -0.841558
  H     -6.493820   -0.624671   -2.864908
  O     -7.954729   -1.806719   -0.962212
  H     -8.273583   -1.668120   -1.865243
  O     -6.723111   -1.972090    1.492617
  C     -6.944534   -3.389985    1.434552
  H     -5.993450   -3.925579    1.348123
  H     -7.425351   -3.658790    2.374681
  H     -7.597478   -3.659899    0.602582
  C      2.698306   -0.003742   -0.184978
  H      1.792465   -0.578045   -0.363154
  C      2.594082    1.332352   -0.030504
  H      3.468268    1.947962    0.161071
  C      1.345820    2.098566   -0.086866
  O      1.368921    3.312774    0.082083
  C      3.912516   -0.808800   -0.139369
  C      3.815157   -2.194816   -0.338400
  C      5.193132   -0.265822    0.084827
  C      4.942378   -3.006369   -0.305057
  H      2.842945   -2.643303   -0.515701
  C      6.324963   -1.061673    0.123272
  H      5.330341    0.796862    0.248582
  C      6.202153   -2.456064   -0.068483
  H      4.848112   -4.078902   -0.452677
  O      7.332900   -3.203542    0.002458
  H      7.117122   -4.136044   -0.139478
  O      7.535273   -0.489053    0.412317
  C      8.484971   -0.462874   -0.664542
  H      8.078633    0.079824   -1.524393
  H      9.357780    0.066918   -0.283886
  H      8.775369   -1.470507   -0.967492
  C      0.018587    1.406103   -0.372506
  H      0.130300    0.590509   -1.092464
  H     -0.640617    2.145105   -0.832419
  O     -1.356703    4.806173   -0.822513
  O     -0.285703    5.932410    0.728617
  N     -0.819257    4.988892    0.231428

----------------------------
CARTESIAN COORDINATES (A.U.)
----------------------------
  NO LB      ZA    FRAG     MASS         X           Y           Z
   0 C     6.0000    0    12.011   -5.199837    0.483879   -0.590660
   1 H     1.0000    0     1.008   -4.424486    1.275815   -2.321016
   2 C     6.0000    0    12.011   -3.776200    0.563928    1.522193
   3 H     1.0000    0     1.008   -4.468601   -0.172609    3.308886
   4 C     6.0000    0    12.011   -1.216882    1.628755    1.696386
   5 O     8.0000    0    15.999   -0.114153    1.676858    3.725514
   6 C     6.0000    0    12.011   -7.736407   -0.555249   -0.864259
   7 C     6.0000    0    12.011   -8.938707   -0.392145   -3.222671
   8 C     6.0000    0    12.011   -9.053476   -1.741813    1.122293
   9 C     6.0000    0    12.011  -11.359038   -1.344438   -3.581345
  10 H     1.0000    0     1.008   -7.970682    0.505734   -4.791765
  11 C     6.0000    0    12.011  -11.464995   -2.700761    0.793477
  12 H     1.0000    0     1.008   -8.220411   -1.926026    2.984870
  13 C     6.0000    0    12.011  -12.649878   -2.492418   -1.590314
  14 H     1.0000    0     1.008  -12.271541   -1.180457   -5.413892
  15 O     8.0000    0    15.999  -15.032259   -3.414204   -1.818317
  16 H     1.0000    0     1.008  -15.634806   -3.152290   -3.524798
  17 O     8.0000    0    15.999  -12.704839   -3.726710    2.820637
  18 C     6.0000    0    12.011  -13.123267   -6.406143    2.710910
  19 H     1.0000    0     1.008  -11.325979   -7.418269    2.547583
  20 H     1.0000    0     1.008  -14.031880   -6.914111    4.487497
  21 H     1.0000    0     1.008  -14.357153   -6.916207    1.138715
  22 C     6.0000    0    12.011    5.099059   -0.007071   -0.349558
  23 H     1.0000    0     1.008    3.387268   -1.092347   -0.686262
  24 C     6.0000    0    12.011    4.902105    2.517780   -0.057644
  25 H     1.0000    0     1.008    6.554077    3.681115    0.304380
  26 C     6.0000    0    12.011    2.543231    3.965715   -0.164153
  27 O     8.0000    0    15.999    2.586886    6.260236    0.155114
  28 C     6.0000    0    12.011    7.393584   -1.528410   -0.263369
  29 C     6.0000    0    12.011    7.209602   -4.147601   -0.639483
  30 C     6.0000    0    12.011    9.813597   -0.502331    0.160300
  31 C     6.0000    0    12.011    9.339741   -5.681214   -0.576474
  32 H     1.0000    0     1.008    5.372387   -4.995119   -0.974534
  33 C     6.0000    0    12.011   11.952448   -2.006271    0.232950
  34 H     1.0000    0     1.008   10.072885    1.505851    0.469752
  35 C     6.0000    0    12.011   11.720371   -4.641288   -0.129414
  36 H     1.0000    0     1.008    9.161604   -7.708008   -0.855436
  37 O     8.0000    0    15.999   13.857173   -6.053817    0.004645
  38 H     1.0000    0     1.008   13.449411   -7.815990   -0.263575
  39 O     8.0000    0    15.999   14.239602   -0.924176    0.779166
  40 C     6.0000    0    12.011   16.034271   -0.874705   -1.255802
  41 H     1.0000    0     1.008   15.266404    0.150845   -2.880685
  42 H     1.0000    0     1.008   17.683641    0.126457   -0.536467
  43 H     1.0000    0     1.008   16.583044   -2.778856   -1.828295
  44 C     6.0000    0    12.011    0.035124    2.657150   -0.703934
  45 H     1.0000    0     1.008    0.246231    1.115900   -2.064458
  46 H     1.0000    0     1.008   -1.210591    4.053661   -1.573044
  47 O     8.0000    0    15.999   -2.563797    9.082351   -1.554324
  48 O     8.0000    0    15.999   -0.539900   11.210630    1.376887
  49 N     7.0000    0    14.007   -1.548171    9.427640    0.437336

--------------------------------
INTERNAL COORDINATES (ANGSTROEM)
--------------------------------
 C      0   0   0     0.000000000000     0.00000000     0.00000000
 H      1   0   0     1.087386710653     0.00000000     0.00000000
 C      1   2   0     1.348862150782   118.36955048     0.00000000
 H      3   1   2     1.086319471435   121.45215818   179.02773430
 C      3   1   2     1.469771005039   125.35715683   359.54014745
 O      5   3   1     1.222351602187   120.19684073   177.79798671
 C      1   2   3     1.457768502965   114.15316858   179.79190449
 C      7   1   2     1.403491050896   118.85072068   358.39830471
 C      7   1   2     1.408943197372   123.33196952   177.92433280
 C      8   7   1     1.389381126431   121.13510809   180.23651268
 H      8   7   1     1.085176783321   119.55979754   359.74421016
 C      9   7   1     1.384294061915   121.70853976   179.81696278
 H      9   7   1     1.084118987921   121.14863530     0.38447975
 C     10   8   7     1.394894342873   120.41105097   359.92574144
 H     10   8   7     1.086783639261   120.16715632   179.20685682
 O     14  10   8     1.357152921916   122.97539247   178.76846170
 H     16  14  10     0.967647943768   109.72957647     0.31449808
 O     12   9   7     1.369655676518   119.23872349   183.11270507
 C     18  12   9     1.436254127994   115.69005508   247.78112891
 H     19  18  12     1.094939121565   110.62073506    58.81775289
 H     19  18  12     1.089625464164   106.06269756   177.24659888
 H     19  18  12     1.091495998816   111.54099596   296.31432118
 C      6   5   3     3.613137582352    80.50736126   140.15647208
 H     23   6   5     1.087252748935    65.91776821   313.51345711
 C     23   6   5     1.349026328760    68.18608683    91.44228118
 H     25  23   6     1.086221807607   121.28727676   135.14477481
 C     25  23   6     1.465748474154   125.38913654   315.62682525
 O     27  25  23     1.226123357606   119.75698451   179.24715008
 C     23   6   5     1.457568004707   138.90210697   213.92899231
 C     29  23   6     1.403614073062   118.89366191    81.11217715
 C     29  23   6     1.408923807151   123.31865616   260.56655932
 C     30  29  23     1.389372955797   121.13877929   179.98316449
 H     30  29  23     1.085252231840   119.56292053   359.61537823
 C     31  29  23     1.384159761295   121.74035904   179.91969836
 H     31  29  23     1.083946167280   121.12589134     0.77039449
 C     32  30  29     1.394932220979   120.42045687     0.14050762
 H     32  30  29     1.086740437844   120.18827763   179.47274439
 O     36  32  30     1.357330012920   122.95376292   178.59644097
 H     38  36  32     0.967608367773   109.71096314     0.36750365
 O     34  31  29     1.369777709165   119.20972482   183.29282246
 C     40  34  31     1.436049071977   115.70394322   247.74964361
 H     41  40  34     1.094977365816   110.63880988    58.60355985
 H     41  40  34     1.089666969345   106.05866861   177.02967301
 H     41  40  34     1.091528269718   111.54556647   296.09796725
 C     27  25  23     1.524021867382   120.75345276   358.40002188
 H     45  27  25     1.093623741956   111.91804949   323.68409087
 H     45  27  25     1.091876292072   107.28956469   206.83474531
 O     47  45  27     2.755750385803   143.99167635   323.89815853
 O     48  47  45     2.195781195172   111.78240550   356.76934741
 N     49  48  47     1.192519596888    23.28323157   327.15792418

---------------------------
INTERNAL COORDINATES (A.U.)
---------------------------
 C      0   0   0     0.000000000000     0.00000000     0.00000000
 H      1   0   0     2.054863084800     0.00000000     0.00000000
 C      1   2   0     2.548980057390   118.36955048     0.00000000
 H      3   1   2     2.052846294958   121.45215818   179.02773430
 C      3   1   2     2.777464679102   125.35715683   359.54014745
 O      5   3   1     2.309909767494   120.19684073   177.79798671
 C      1   2   3     2.754783237261   114.15316858   179.79190449
 C      7   1   2     2.652213717603   118.85072068   358.39830471
 C      7   1   2     2.662516781285   123.33196952   177.92433280
 C      8   7   1     2.625549824595   121.13510809   180.23651268
 H      8   7   1     2.050686927366   119.55979754   359.74421016
 C      9   7   1     2.615936665833   121.70853976   179.81696278
 H      9   7   1     2.048687983755   121.14863530     0.38447975
 C     10   8   7     2.635968293785   120.41105097   359.92574144
 H     10   8   7     2.053723445029   120.16715632   179.20685682
 O     14  10   8     2.564647344271   122.97539247   178.76846170
 H     16  14  10     1.828589607773   109.72957647     0.31449808
 O     12   9   7     2.588274126390   119.23872349   183.11270507
 C     18  12   9     2.714126960622   115.69005508   247.78112891
 H     19  18  12     2.069135073074   110.62073506    58.81775289
 H     19  18  12     2.059093715817   106.06269756   177.24659888
 H     19  18  12     2.062628514034   111.54099596   296.31432118
 C      6   5   3     6.827840514823    80.50736126   140.15647208
 H     23   6   5     2.054609933840    65.91776821   313.51345711
 C     23   6   5     2.549290308806    68.18608683    91.44228118
 H     25  23   6     2.052661737070   121.28727676   135.14477481
 C     25  23   6     2.769863197364   125.38913654   315.62682525
 O     27  25  23     2.317037352279   119.75698451   179.24715008
 C     23   6   5     2.754404350462   138.90210697   213.92899231
 C     29  23   6     2.652446195805   118.89366191    81.11217715
 C     29  23   6     2.662480139076   123.31865616   260.56655932
 C     30  29  23     2.625534384332   121.13877929   179.98316449
 H     30  29  23     2.050829504405   119.56292053   359.61537823
 C     31  29  23     2.615682874441   121.74035904   179.91969836
 H     31  29  23     2.048361400074   121.12589134     0.77039449
 C     32  30  29     2.636039873033   120.42045687     0.14050762
 H     32  30  29     2.053641806183   120.18827763   179.47274439
 O     36  32  30     2.564981997771   122.95376292   178.59644097
 H     38  36  32     1.828514819981   109.71096314     0.36750365
 O     34  31  29     2.588504734672   119.20972482   183.29282246
 C     40  34  31     2.713739460908   115.70394322   247.74964361
 H     41  40  34     2.069207344234   110.63880988    58.60355985
 H     41  40  34     2.059172149242   106.05866861   177.02967301
 H     41  40  34     2.062689497199   111.54556647   296.09796725
 C     27  25  23     2.879983951459   120.75345276   358.40002188
 H     45  27  25     2.066649365850   111.91804949   323.68409087
 H     45  27  25     2.063347164138   107.28956469   206.83474531
 O     47  45  27     5.207613522616   143.99167635   323.89815853
 O     48  47  45     4.149425108889   111.78240550   356.76934741
 N     49  48  47     2.253535447452    23.28323157   327.15792418

---------------------
BASIS SET INFORMATION
---------------------
There are 4 groups of distinct atoms

 Group   1 Type C   : 12s6p1d contracted to 5s4p1d pattern {63111/3111/1}
 Group   2 Type H   : 5s contracted to 3s pattern {311}
 Group   3 Type O   : 12s6p1d contracted to 5s4p1d pattern {63111/3111/1}
 Group   4 Type N   : 12s6p1d contracted to 5s4p1d pattern {63111/3111/1}

Atom   0C    basis set group =>   1
Atom   1H    basis set group =>   2
Atom   2C    basis set group =>   1
Atom   3H    basis set group =>   2
Atom   4C    basis set group =>   1
Atom   5O    basis set group =>   3
Atom   6C    basis set group =>   1
Atom   7C    basis set group =>   1
Atom   8C    basis set group =>   1
Atom   9C    basis set group =>   1
Atom  10H    basis set group =>   2
Atom  11C    basis set group =>   1
Atom  12H    basis set group =>   2
Atom  13C    basis set group =>   1
Atom  14H    basis set group =>   2
Atom  15O    basis set group =>   3
Atom  16H    basis set group =>   2
Atom  17O    basis set group =>   3
Atom  18C    basis set group =>   1
Atom  19H    basis set group =>   2
Atom  20H    basis set group =>   2
Atom  21H    basis set group =>   2
Atom  22C    basis set group =>   1
Atom  23H    basis set group =>   2
Atom  24C    basis set group =>   1
Atom  25H    basis set group =>   2
Atom  26C    basis set group =>   1
Atom  27O    basis set group =>   3
Atom  28C    basis set group =>   1
Atom  29C    basis set group =>   1
Atom  30C    basis set group =>   1
Atom  31C    basis set group =>   1
Atom  32H    basis set group =>   2
Atom  33C    basis set group =>   1
Atom  34H    basis set group =>   2
Atom  35C    basis set group =>   1
Atom  36H    basis set group =>   2
Atom  37O    basis set group =>   3
Atom  38H    basis set group =>   2
Atom  39O    basis set group =>   3
Atom  40C    basis set group =>   1
Atom  41H    basis set group =>   2
Atom  42H    basis set group =>   2
Atom  43H    basis set group =>   2
Atom  44C    basis set group =>   1
Atom  45H    basis set group =>   2
Atom  46H    basis set group =>   2
Atom  47O    basis set group =>   3
Atom  48O    basis set group =>   3
Atom  49N    basis set group =>   4
---------------------------------
AUXILIARY/J BASIS SET INFORMATION
---------------------------------
There are 4 groups of distinct atoms

 Group   1 Type C   : 12s5p4d2f1g contracted to 6s4p3d1f1g pattern {711111/2111/211/2/1}
 Group   2 Type H   : 5s2p1d contracted to 3s1p1d pattern {311/2/1}
 Group   3 Type O   : 12s5p4d2f1g contracted to 6s4p3d1f1g pattern {711111/2111/211/2/1}
 Group   4 Type N   : 12s5p4d2f1g contracted to 6s4p3d1f1g pattern {711111/2111/211/2/1}

Atom   0C    basis set group =>   1
Atom   1H    basis set group =>   2
Atom   2C    basis set group =>   1
Atom   3H    basis set group =>   2
Atom   4C    basis set group =>   1
Atom   5O    basis set group =>   3
Atom   6C    basis set group =>   1
Atom   7C    basis set group =>   1
Atom   8C    basis set group =>   1
Atom   9C    basis set group =>   1
Atom  10H    basis set group =>   2
Atom  11C    basis set group =>   1
Atom  12H    basis set group =>   2
Atom  13C    basis set group =>   1
Atom  14H    basis set group =>   2
Atom  15O    basis set group =>   3
Atom  16H    basis set group =>   2
Atom  17O    basis set group =>   3
Atom  18C    basis set group =>   1
Atom  19H    basis set group =>   2
Atom  20H    basis set group =>   2
Atom  21H    basis set group =>   2
Atom  22C    basis set group =>   1
Atom  23H    basis set group =>   2
Atom  24C    basis set group =>   1
Atom  25H    basis set group =>   2
Atom  26C    basis set group =>   1
Atom  27O    basis set group =>   3
Atom  28C    basis set group =>   1
Atom  29C    basis set group =>   1
Atom  30C    basis set group =>   1
Atom  31C    basis set group =>   1
Atom  32H    basis set group =>   2
Atom  33C    basis set group =>   1
Atom  34H    basis set group =>   2
Atom  35C    basis set group =>   1
Atom  36H    basis set group =>   2
Atom  37O    basis set group =>   3
Atom  38H    basis set group =>   2
Atom  39O    basis set group =>   3
Atom  40C    basis set group =>   1
Atom  41H    basis set group =>   2
Atom  42H    basis set group =>   2
Atom  43H    basis set group =>   2
Atom  44C    basis set group =>   1
Atom  45H    basis set group =>   2
Atom  46H    basis set group =>   2
Atom  47O    basis set group =>   3
Atom  48O    basis set group =>   3
Atom  49N    basis set group =>   4
------------------------------------------------------------------------------
                           ORCA GTO INTEGRAL CALCULATION
                           -- RI-GTO INTEGRALS CHOSEN --
------------------------------------------------------------------------------
------------------------------------------------------------------------------
                   ___                                                        
                  /   \      - P O W E R E D   B Y -                         
                 /     \                                                     
                 |  |  |   _    _      __       _____    __    __             
                 |  |  |  | |  | |    /  \     |  _  \  |  |  /  |          
                  \  \/   | |  | |   /    \    | | | |  |  | /  /          
                 / \  \   | |__| |  /  /\  \   | |_| |  |  |/  /          
                |  |  |   |  __  | /  /__\  \  |    /   |      \           
                |  |  |   | |  | | |   __   |  |    \   |  |\   \          
                \     /   | |  | | |  |  |  |  | |\  \  |  | \   \       
                 \___/    |_|  |_| |__|  |__|  |_| \__\ |__|  \__/        
                                                                              
                      - O R C A' S   B I G   F R I E N D -                    
                                      &                                       
                       - I N T E G R A L  F E E D E R -                       
                                                                              
 v1 FN, 2020, v2 2021                                                         
------------------------------------------------------------------------------


Reading SHARK input file CURCUMIN-OPT-FREQ-Reag-WB97M-V-6-311+G-D-298.SHARKINP.tmp ... ok
----------------------
SHARK INTEGRAL PACKAGE
----------------------

Number of atoms                             ...     50
Number of basis functions                   ...    720
Number of shells                            ...    360
Maximum angular momentum                    ...      2
Integral batch strategy                     ... SHARK/LIBINT Hybrid
RI-J (if used) integral strategy            ... SPLIT-RIJ (Revised 2003 algorithm where possible)
Printlevel                                  ...      1
Contraction scheme used                     ... SEGMENTED contraction
Coulomb Range Separation                    ... NOT USED
Exchange Range Separation                   ... Long Range
   Mu parameter                             ...  0.300000
   Scaling (regular/separated)              ...  0.150000  0.850000
Finite Nucleus Model                        ... NOT USED
Auxiliary Coulomb fitting basis             ... AVAILABLE
   # of basis functions in Aux-J            ...   1690
   # of shells in Aux-J                     ...    550
   Maximum angular momentum in Aux-J        ...      4
Auxiliary J/K fitting basis                 ... NOT available
Auxiliary Correlation fitting basis         ... NOT available
Auxiliary 'external' fitting basis          ... NOT available
Integral threshold                          ...     2.500000e-11
Primitive cut-off                           ...     2.500000e-12
Primitive pair pre-selection threshold      ...     2.500000e-12

Calculating pre-screening integrals         ... done (  0.1 sec) Dimension = 360
Organizing shell pair data                  ... done (  0.3 sec)
Shell pair information
Total number of shell pairs                 ...     64980
Shell pairs after pre-screening             ...     38285
Total number of primitive shell pairs       ...    225475
Primitive shell pairs kept                  ...     83251
          la=0 lb=0:  12310 shell pairs
          la=1 lb=0:  15751 shell pairs
          la=1 lb=1:   5018 shell pairs
          la=2 lb=0:   3007 shell pairs
          la=2 lb=1:   2010 shell pairs
          la=2 lb=2:    189 shell pairs

Calculating one electron integrals          ... done (  0.1 sec)
Calculating RI/J V-Matrix + Cholesky decomp.... done (  0.5 sec)
Calculating Nuclear repulsion               ... done (  0.0 sec) ENN=   2550.849908631144 Eh

SHARK setup successfully completed in   1.7 seconds

Maximum memory used throughout the entire GTOINT-calculation: 178.9 MB
-------------------------------------------------------------------------------
                                 ORCA SCF
-------------------------------------------------------------------------------

------------
SCF SETTINGS
------------
Hamiltonian:
 Density Functional     Method          .... DFT(GTOs)
  Functional kind                       .... Exchange-Correlation
  Functional name                       .... wB97M-V exchange-correlation functional
  Functional family                     .... Hybrid MGGA
  Functional refs                              
    [ 0] N. Mardirossian and M. Head-Gordon, J. Chem. Phys. 144, 214110 (2016)
  Fraction of HF Exchange (short range) .... 0.1500
  Fraction of HF Exchange (long range)  .... 1.0000
  Range separation parameter mu         .... 0.3000
  Functional external parameters         .... 0
   Density functional embedding theory  .... OFF
 Long-range corrected/Screened/Range-Separated Hybrid DFT is turned on
   Amount of maximum screened exact exchange              ....  0.850000
   Range separation parameter mu (erf(mu*r12)/r12)        ....  0.300000
   NL short-range parameter             ....  6.000000
   NL long-range parameter              ....  0.010000
 RI-approximation to the Coulomb term is turned on
   Number of AuxJ basis functions       .... 1690
   RIJ-ON(X) (HFX calculated with O(N)) .... on


General Settings:
 Integral files         IntName         .... CURCUMIN-OPT-FREQ-Reag-WB97M-V-6-311+G-D-298
 Hartree-Fock type      HFTyp           .... UHF
 Total Charge           Charge          ....    0
 Multiplicity           Mult            ....    2
 Number of Electrons    NEL             ....  217
 Basis Dimension        Dim             ....  720
 Nuclear Repulsion      ENuc            ....   2550.8499086311 Eh

Convergence Acceleration:
 DIIS                   CNVDIIS         .... on
   Start iteration      DIISMaxIt       ....    12
   Startup error        DIISStart       ....  0.200000
   # of expansion vecs  DIISMaxEq       ....     5
   Bias factor          DIISBfac        ....   1.050
   Max. coefficient     DIISMaxC        ....  10.000
 Trust-Rad. Augm. Hess. CNVTRAH         .... off
 SOSCF                  CNVSOSCF        .... off
 Level Shifting         CNVShift        .... on
   Level shift para.    LevelShift      ....    0.2500
   Turn off err/grad.   ShiftErr        ....    0.0010
 Zerner damping         CNVZerner       .... off
 Static damping         CNVDamp         .... on
   Fraction old density DampFac         ....    0.7000
   Max. Damping (<1)    DampMax         ....    0.9800
   Min. Damping (>=0)   DampMin         ....    0.0000
   Turn off err/grad.   DampErr         ....    0.1000
 Fernandez-Rico         CNVRico         .... off

SCF Procedure:
 Maximum # iterations   MaxIter         ....   125
 SCF integral mode      SCFMode         .... Direct
   Integral package                     .... SHARK and LIBINT hybrid scheme
 Reset frequency        DirectResetFreq ....    20
 Integral Threshold     Thresh          ....  2.500e-11 Eh
 Primitive CutOff       TCut            ....  2.500e-12 Eh

Convergence Tolerance:
 Convergence Check Mode ConvCheckMode   .... Total+1el-Energy
 Convergence forced     ConvForced      .... 0
 Energy Change          TolE            ....  1.000e-08 Eh
 1-El. energy change                    ....  1.000e-05 Eh
 DIIS Error             TolErr          ....  5.000e-07


Diagonalization of the overlap matrix:
Smallest eigenvalue                        ... 1.227e-07
Time for diagonalization                   ...    0.049 sec
Threshold for overlap eigenvalues          ... 1.000e-08
Number of eigenvalues below threshold      ... 0
Time for construction of square roots      ...    0.272 sec
Total time needed                          ...    0.322 sec

Time for model grid setup =    1.153 sec

------------------------------
INITIAL GUESS: MODEL POTENTIAL
------------------------------
Loading Hartree-Fock densities                     ... done
Calculating cut-offs                               ... done
Initializing the effective Hamiltonian             ... done
Setting up the integral package (SHARK)            ... done
Starting the Coulomb interaction                   ... done (   1.7 sec)
Reading the grid                                   ... done
Mapping shells                                     ... done
Starting the XC term evaluation                    ... done (   1.2 sec)
  promolecular density results
     # of electrons  =    216.986719940
     EX              =   -185.012114908
     EC              =     -7.284009854
     EX+EC           =   -192.296124762
Transforming the Hamiltonian                       ... done (   0.0 sec)
Diagonalizing the Hamiltonian                      ... done (   0.0 sec)
Back transforming the eigenvectors                 ... done (   0.0 sec)
Now organizing SCF variables                       ... done
                      ------------------
                      INITIAL GUESS DONE (   4.3 sec)
                      ------------------
-------------------
DFT GRID GENERATION
-------------------

General Integration Accuracy     IntAcc      ... 4.388
Radial Grid Type                 RadialGrid  ... OptM3 with GC (2021)
Angular Grid (max. ang.)         AngularGrid ... 4 (Lebedev-302)
Angular grid pruning method      GridPruning ... 4 (adaptive)
Weight generation scheme         WeightScheme... Becke
Basis function cutoff            BFCut       ... 1.0000e-11
Integration weight cutoff        WCut        ... 1.0000e-14
Angular grids for H and He will be reduced by one unit
Partially contracted basis set               ... off
Rotationally invariant grid construction     ... off

Total number of grid points                  ...   251839
Total number of batches                      ...     3960
Average number of points per batch           ...       63
Average number of grid points per atom       ...     5037

------------------
NL GRID GENERATION
------------------

General Integration Accuracy     IntAcc      ... 4.004
Radial Grid Type                 RadialGrid  ... OptM3 with GC (2021)
Angular Grid (max. ang.)         AngularGrid ... 2 (Lebedev-110)
Angular grid pruning method      GridPruning ... 4 (adaptive)
Weight generation scheme         WeightScheme... Becke
Basis function cutoff            BFCut       ... 1.0000e-10
Integration weight cutoff        WCut        ... 1.0000e-14
Angular grids for H and He will be reduced by one unit
Partially contracted basis set               ... off
Rotationally invariant grid construction     ... off

Total number of grid points                  ...    83798
Total number of batches                      ...     1335
Average number of points per batch           ...       62
Average number of grid points per atom       ...     1676
Time for grid setup =    5.142 sec


--------------------
CPCM SOLVATION MODEL
--------------------
CPCM parameters:
  Epsilon                                         ...       7.0000
  Refrac                                          ...       1.8534
  Rsolv                                           ...       1.3000
  Surface type                                    ... GAUSSIAN VDW
  Epsilon function type                           ...         CPCM
Radii:
 Radius for C  used is    3.8550 Bohr (=   2.0400 Ang.)
 Radius for H  used is    2.4944 Bohr (=   1.3200 Ang.)
 Radius for O  used is    3.4469 Bohr (=   1.8240 Ang.)
 Radius for N  used is    3.5149 Bohr (=   1.8600 Ang.)
Calculating surface                               ...        done! (  0.0s)
GEPOL surface points                              ...         2784
GEPOL Volume                                      ...    3275.7545
GEPOL Surface-area                                ...    1736.7543
Calculating surface distance matrix               ...        done! (  0.0s)
Performing Cholesky decomposition & store         ...        done! (  0.9s)
Overall time for CPCM initialization              ...                 0.9s
--------------
SCF ITERATIONS
--------------
ITER       Energy         Delta-E        Max-DP      RMS-DP      [F,P]     Damp
               ***  Starting incremental Fock matrix formation  ***
  0  -1467.8623481871   0.000000000000 5.73777785  0.02026921  0.1479342 0.7000
  1  -1468.1403926376  -0.278044450468 3.64532552  0.01378735  0.0717428 0.7000
                               ***Turning on DIIS***
  2  -1468.2780843548  -0.137691717218 8.92112371  0.04066686  0.0284350 0.0000
  3  -1468.5159456889  -0.237861334102 5.05266445  0.02355675  0.0365594 0.0000
  4  -1468.5452910481  -0.029345359214 2.06877662  0.01239684  0.0065257 0.0000
  5  -1468.5471051547  -0.001814106583 3.27423395  0.01741725  0.0023884 0.0000
  6  -1468.5474486242  -0.000343469491 2.60928607  0.01190092  0.0007846 0.0000
  7  -1468.5476459514  -0.000197327199 1.69643126  0.00858221  0.0006221 0.0000
  8  -1468.5476885579  -0.000042606524 1.80357130  0.00968755  0.0003323 0.0000
  9  -1468.5476968376  -0.000008279713 3.41286172  0.01707220  0.0001674 0.0000
 10  -1468.5476985512  -0.000001713645 2.58852402  0.01240135  0.0000974 0.0000
 11  -1468.5476989188  -0.000000367569 3.42662592  0.01922280  0.0000979 0.0000
 12  -1468.5476990576  -0.000000138742 4.31284673  0.02257704  0.0000292 0.0000
 13  -1468.5476988867   0.000000170820 1.12735231  0.00641825  0.0000088 0.0000
 14  -1468.5476989512  -0.000000064433 2.37904288  0.01087291  0.0000063 0.0000
 15  -1468.5476989309   0.000000020218 2.05340924  0.00710192  0.0000044 0.0000
 16  -1468.5476988005   0.000000130471 1.37761125  0.00456945  0.0000031 0.0000
 17  -1468.5476987295   0.000000070964 0.69606688  0.00231103  0.0000021 0.0000
 18  -1468.5476987665  -0.000000037016 0.79088102  0.00218570  0.0000014 0.0000
 19  -1468.5476987958  -0.000000029230 0.58165779  0.00216087  0.0000010 0.0000
               *** Restarting incremental Fock matrix formation ***
                                   *** Resetting DIIS ***
                            ***DIIS convergence achieved***

               *****************************************************
               *                     SUCCESS                       *
               *           SCF CONVERGED AFTER  20 CYCLES          *
               *****************************************************


----------------
TOTAL SCF ENERGY
----------------

Total Energy       :        -1468.54769883 Eh          -39961.21447 eV

Components:
Nuclear Repulsion  :         2550.84990863 Eh           69412.15486 eV
Electronic Energy  :        -4019.39760746 Eh         -109373.36933 eV
One Electron Energy:        -7071.42751742 Eh         -192423.32536 eV
Two Electron Energy:         3052.02990996 Eh           83049.95603 eV
CPCM Dielectric    :           -0.04712235 Eh              -1.28226 eV

Virial components:
Potential Energy   :        -2933.11516231 Eh          -79814.12124 eV
Kinetic Energy     :         1464.56746348 Eh           39852.90676 eV
Virial Ratio       :            2.00271769


DFT components:
N(Alpha)           :      109.000174688787 electrons
N(Beta)            :      108.000146861577 electrons
N(Total)           :      217.000321550364 electrons
NL Energy, E(C,NL) :        0.824949089476 Eh       
E(XC)              :     -139.367890582852 Eh       
DFET-embed. en.    :        0.000000000000 Eh       
CPCM Solvation Model Properties:
Surface-charge          :           -0.03909853
Charge-correction       :            0.00012371 Eh               0.00337 eV
Free-energy (cav+disp)  :  This term is not implemented in the current solvation scheme

---------------
SCF CONVERGENCE
---------------

  Last Energy change         ...   -3.5015e-08  Tolerance :   1.0000e-08
  Last MAX-Density change    ...    4.7112e-01  Tolerance :   1.0000e-07
  Last RMS-Density change    ...    1.5522e-03  Tolerance :   5.0000e-09
  Last DIIS Error            ...    4.0862e-07  Tolerance :   5.0000e-07

             **** THE GBW FILE WAS UPDATED (CURCUMIN-OPT-FREQ-Reag-WB97M-V-6-311+G-D-298.gbw) ****
             **** DENSITY CURCUMIN-OPT-FREQ-Reag-WB97M-V-6-311+G-D-298.scfp WAS UPDATED ****
             **** ENERGY FILE WAS UPDATED (CURCUMIN-OPT-FREQ-Reag-WB97M-V-6-311+G-D-298.en.tmp) ****
----------------------
UHF SPIN CONTAMINATION
----------------------

Warning: in a DFT calculation there is little theoretical justification to 
         calculate <S**2> as in Hartree-Fock theory. We will do it anyways
         but you should keep in mind that the values have only limited relevance

Expectation value of <S**2>     :     0.753443
Ideal value S*(S+1) for S=0.5   :     0.750000
Deviation                       :     0.003443

             **** THE GBW FILE WAS UPDATED (CURCUMIN-OPT-FREQ-Reag-WB97M-V-6-311+G-D-298.gbw) ****
             **** DENSITY CURCUMIN-OPT-FREQ-Reag-WB97M-V-6-311+G-D-298.scfp WAS UPDATED ****
----------------
ORBITAL ENERGIES
----------------
                 SPIN UP ORBITALS
  NO   OCC          E(Eh)            E(eV) 
   0   1.0000     -19.441691      -529.0353 
   1   1.0000     -19.440001      -528.9893 
   2   1.0000     -19.379089      -527.3318 
   3   1.0000     -19.378317      -527.3108 
   4   1.0000     -19.359830      -526.8078 
   5   1.0000     -19.358873      -526.7817 
   6   1.0000     -19.335052      -526.1335 
   7   1.0000     -19.332448      -526.0627 
   8   1.0000     -14.755672      -401.5223 
   9   1.0000     -10.454261      -284.4749 
  10   1.0000     -10.449352      -284.3413 
  11   1.0000     -10.430060      -283.8163 
  12   1.0000     -10.429131      -283.7911 
  13   1.0000     -10.415093      -283.4091 
  14   1.0000     -10.414073      -283.3813 
  15   1.0000     -10.385962      -282.6164 
  16   1.0000     -10.385132      -282.5938 
  17   1.0000     -10.382334      -282.5177 
  18   1.0000     -10.381016      -282.4818 
  19   1.0000     -10.370457      -282.1945 
  20   1.0000     -10.369328      -282.1638 
  21   1.0000     -10.365262      -282.0531 
  22   1.0000     -10.364353      -282.0284 
  23   1.0000     -10.362983      -281.9911 
  24   1.0000     -10.361856      -281.9604 
  25   1.0000     -10.361479      -281.9502 
  26   1.0000     -10.360853      -281.9332 
  27   1.0000     -10.359976      -281.9093 
  28   1.0000     -10.356806      -281.8230 
  29   1.0000     -10.354304      -281.7549 
  30   1.0000      -1.417672       -38.5768 
  31   1.0000      -1.266712       -34.4690 
  32   1.0000      -1.216847       -33.1121 
  33   1.0000      -1.215965       -33.0881 
  34   1.0000      -1.188666       -32.3452 
  35   1.0000      -1.188440       -32.3391 
  36   1.0000      -1.187523       -32.3141 
  37   1.0000      -1.179270       -32.0896 
  38   1.0000      -1.002447       -27.2780 
  39   1.0000      -1.001373       -27.2487 
  40   1.0000      -0.946861       -25.7654 
  41   1.0000      -0.939889       -25.5757 
  42   1.0000      -0.901113       -24.5205 
  43   1.0000      -0.891421       -24.2568 
  44   1.0000      -0.890479       -24.2312 
  45   1.0000      -0.875572       -23.8255 
  46   1.0000      -0.855320       -23.2744 
  47   1.0000      -0.815087       -22.1796 
  48   1.0000      -0.814172       -22.1547 
  49   1.0000      -0.796263       -21.6674 
  50   1.0000      -0.790351       -21.5066 
  51   1.0000      -0.782981       -21.3060 
  52   1.0000      -0.751177       -20.4406 
  53   1.0000      -0.742500       -20.2045 
  54   1.0000      -0.708493       -19.2791 
  55   1.0000      -0.707216       -19.2443 
  56   1.0000      -0.691804       -18.8249 
  57   1.0000      -0.685608       -18.6563 
  58   1.0000      -0.683980       -18.6121 
  59   1.0000      -0.681303       -18.5392 
  60   1.0000      -0.673551       -18.3283 
  61   1.0000      -0.669156       -18.2087 
  62   1.0000      -0.644328       -17.5331 
  63   1.0000      -0.630882       -17.1672 
  64   1.0000      -0.628562       -17.1040 
  65   1.0000      -0.624174       -16.9847 
  66   1.0000      -0.615529       -16.7494 
  67   1.0000      -0.597519       -16.2593 
  68   1.0000      -0.590776       -16.0758 
  69   1.0000      -0.588158       -16.0046 
  70   1.0000      -0.582086       -15.8394 
  71   1.0000      -0.580729       -15.8024 
  72   1.0000      -0.579860       -15.7788 
  73   1.0000      -0.560684       -15.2570 
  74   1.0000      -0.551730       -15.0133 
  75   1.0000      -0.549877       -14.9629 
  76   1.0000      -0.549443       -14.9511 
  77   1.0000      -0.547444       -14.8967 
  78   1.0000      -0.538867       -14.6633 
  79   1.0000      -0.535762       -14.5788 
  80   1.0000      -0.534642       -14.5483 
  81   1.0000      -0.527959       -14.3665 
  82   1.0000      -0.524554       -14.2738 
  83   1.0000      -0.519313       -14.1312 
  84   1.0000      -0.503035       -13.6883 
  85   1.0000      -0.489494       -13.3198 
  86   1.0000      -0.486903       -13.2493 
  87   1.0000      -0.486011       -13.2250 
  88   1.0000      -0.484411       -13.1815 
  89   1.0000      -0.482506       -13.1296 
  90   1.0000      -0.481066       -13.0905 
  91   1.0000      -0.477816       -13.0020 
  92   1.0000      -0.475877       -12.9493 
  93   1.0000      -0.473499       -12.8846 
  94   1.0000      -0.470135       -12.7930 
  95   1.0000      -0.467849       -12.7308 
  96   1.0000      -0.448530       -12.2051 
  97   1.0000      -0.447677       -12.1819 
  98   1.0000      -0.398805       -10.8520 
  99   1.0000      -0.396483       -10.7888 
 100   1.0000      -0.393923       -10.7192 
 101   1.0000      -0.392056       -10.6684 
 102   1.0000      -0.389347       -10.5947 
 103   1.0000      -0.376376       -10.2417 
 104   1.0000      -0.364034        -9.9059 
 105   1.0000      -0.349308        -9.5051 
 106   1.0000      -0.348255        -9.4765 
 107   1.0000      -0.308837        -8.4039 
 108   1.0000      -0.307242        -8.3605 
 109   0.0000      -0.008478        -0.2307 
 110   0.0000      -0.007806        -0.2124 
 111   0.0000       0.010455         0.2845 
 112   0.0000       0.031632         0.8608 
 113   0.0000       0.036943         1.0053 
 114   0.0000       0.041738         1.1357 
 115   0.0000       0.045211         1.2303 
 116   0.0000       0.047581         1.2947 
 117   0.0000       0.049334         1.3425 
 118   0.0000       0.050690         1.3793 
 119   0.0000       0.053802         1.4640 
 120   0.0000       0.056253         1.5307 
 121   0.0000       0.060848         1.6558 
 122   0.0000       0.062525         1.7014 
 123   0.0000       0.067909         1.8479 
 124   0.0000       0.069351         1.8871 
 125   0.0000       0.071562         1.9473 
 126   0.0000       0.074147         2.0176 
 127   0.0000       0.077891         2.1195 
 128   0.0000       0.079996         2.1768 
 129   0.0000       0.081204         2.2097 
 130   0.0000       0.085065         2.3147 
 131   0.0000       0.089167         2.4264 
 132   0.0000       0.089951         2.4477 
 133   0.0000       0.091117         2.4794 
 134   0.0000       0.094661         2.5759 
 135   0.0000       0.095522         2.5993 
 136   0.0000       0.098865         2.6903 
 137   0.0000       0.103248         2.8095 
 138   0.0000       0.106683         2.9030 
 139   0.0000       0.111481         3.0336 
 140   0.0000       0.113897         3.0993 
 141   0.0000       0.116383         3.1669 
 142   0.0000       0.121260         3.2997 
 143   0.0000       0.122868         3.3434 
 144   0.0000       0.124132         3.3778 
 145   0.0000       0.130290         3.5454 
 146   0.0000       0.132693         3.6108 
 147   0.0000       0.134991         3.6733 
 148   0.0000       0.138803         3.7770 
 149   0.0000       0.141912         3.8616 
 150   0.0000       0.144187         3.9235 
 151   0.0000       0.151244         4.1156 
 152   0.0000       0.151580         4.1247 
 153   0.0000       0.155812         4.2399 
 154   0.0000       0.158802         4.3212 
 155   0.0000       0.159202         4.3321 
 156   0.0000       0.167036         4.5453 
 157   0.0000       0.168755         4.5921 
 158   0.0000       0.170722         4.6456 
 159   0.0000       0.173624         4.7245 
 160   0.0000       0.174592         4.7509 
 161   0.0000       0.178245         4.8503 
 162   0.0000       0.182884         4.9765 
 163   0.0000       0.184519         5.0210 
 164   0.0000       0.187255         5.0955 
 165   0.0000       0.187409         5.0997 
 166   0.0000       0.190615         5.1869 
 167   0.0000       0.194356         5.2887 
 168   0.0000       0.196588         5.3494 
 169   0.0000       0.199409         5.4262 
 170   0.0000       0.199752         5.4355 
 171   0.0000       0.201645         5.4870 
 172   0.0000       0.203297         5.5320 
 173   0.0000       0.207937         5.6582 
 174   0.0000       0.210354         5.7240 
 175   0.0000       0.216613         5.8943 
 176   0.0000       0.217742         5.9251 
 177   0.0000       0.219658         5.9772 
 178   0.0000       0.220168         5.9911 
 179   0.0000       0.224108         6.0983 
 180   0.0000       0.227300         6.1852 
 181   0.0000       0.228512         6.2181 
 182   0.0000       0.232551         6.3280 
 183   0.0000       0.233419         6.3517 
 184   0.0000       0.233927         6.3655 
 185   0.0000       0.236759         6.4426 
 186   0.0000       0.239472         6.5164 
 187   0.0000       0.240865         6.5543 
 188   0.0000       0.242529         6.5995 
 189   0.0000       0.246316         6.7026 
 190   0.0000       0.252075         6.8593 
 191   0.0000       0.255772         6.9599 
 192   0.0000       0.257142         6.9972 
 193   0.0000       0.257634         7.0106 
 194   0.0000       0.261261         7.1093 
 195   0.0000       0.264190         7.1890 
 196   0.0000       0.266499         7.2518 
 197   0.0000       0.270390         7.3577 
 198   0.0000       0.273008         7.4289 
 199   0.0000       0.275369         7.4932 
 200   0.0000       0.276030         7.5111 
 201   0.0000       0.280350         7.6287 
 202   0.0000       0.283206         7.7064 
 203   0.0000       0.285497         7.7688 
 204   0.0000       0.285944         7.7809 
 205   0.0000       0.289666         7.8822 
 206   0.0000       0.290447         7.9035 
 207   0.0000       0.293700         7.9920 
 208   0.0000       0.294776         8.0213 
 209   0.0000       0.296723         8.0742 
 210   0.0000       0.299030         8.1370 
 211   0.0000       0.302061         8.2195 
 212   0.0000       0.306305         8.3350 
 213   0.0000       0.308485         8.3943 
 214   0.0000       0.310420         8.4470 
 215   0.0000       0.311656         8.4806 
 216   0.0000       0.317185         8.6310 
 217   0.0000       0.318083         8.6555 
 218   0.0000       0.318844         8.6762 
 219   0.0000       0.320305         8.7159 
 220   0.0000       0.325054         8.8452 
 221   0.0000       0.326409         8.8820 
 222   0.0000       0.331352         9.0166 
 223   0.0000       0.332528         9.0485 
 224   0.0000       0.335900         9.1403 
 225   0.0000       0.337990         9.1972 
 226   0.0000       0.341605         9.2955 
 227   0.0000       0.343024         9.3342 
 228   0.0000       0.345622         9.4048 
 229   0.0000       0.348384         9.4800 
 230   0.0000       0.351172         9.5559 
 231   0.0000       0.351943         9.5769 
 232   0.0000       0.355294         9.6681 
 233   0.0000       0.358419         9.7531 
 234   0.0000       0.360136         9.7998 
 235   0.0000       0.364787         9.9264 
 236   0.0000       0.370324        10.0770 
 237   0.0000       0.372718        10.1422 
 238   0.0000       0.373657        10.1677 
 239   0.0000       0.376602        10.2479 
 240   0.0000       0.377744        10.2789 
 241   0.0000       0.379454        10.3255 
 242   0.0000       0.380829        10.3629 
 243   0.0000       0.384232        10.4555 
 244   0.0000       0.387821        10.5531 
 245   0.0000       0.391973        10.6661 
 246   0.0000       0.396435        10.7876 
 247   0.0000       0.397063        10.8046 
 248   0.0000       0.402649        10.9566 
 249   0.0000       0.409785        11.1508 
 250   0.0000       0.410945        11.1824 
 251   0.0000       0.414029        11.2663 
 252   0.0000       0.415652        11.3105 
 253   0.0000       0.418562        11.3896 
 254   0.0000       0.422654        11.5010 
 255   0.0000       0.423933        11.5358 
 256   0.0000       0.426874        11.6158 
 257   0.0000       0.433479        11.7956 
 258   0.0000       0.436316        11.8728 
 259   0.0000       0.438534        11.9331 
[...]
 52:    580.51   0.016892   85.37  0.009081  (-0.082715  0.043417 -0.018809)
 53:    593.20   0.005256   26.56  0.002765  (-0.033230 -0.034743 -0.021297)
 54:    595.60   0.000584    2.95  0.000306  ( 0.015009  0.003240  0.008389)
 55:    612.86   0.002516   12.72  0.001281  (-0.034127  0.001794 -0.010652)
 56:    649.02   0.000227    1.15  0.000109  (-0.004274  0.009370  0.001802)
 57:    654.56   0.001444    7.30  0.000688  (-0.015563  0.016725  0.012901)
 58:    719.17   0.002033   10.27  0.000882  ( 0.007506 -0.012989  0.025636)
 59:    753.89   0.000841    4.25  0.000348  ( 0.010124  0.005867  0.014530)
 60:    754.88   0.000696    3.52  0.000288  (-0.016902 -0.000530  0.001362)
 61:    771.38   0.000963    4.87  0.000390  ( 0.007276  0.006178  0.017274)
 62:    772.11   0.002202   11.13  0.000890  (-0.028585 -0.004573  0.007209)
 63:    773.14   0.002583   13.05  0.001042  ( 0.013159 -0.026960  0.011935)
 64:    818.57   0.010623   53.68  0.004050  ( 0.056874 -0.025758  0.012314)
 65:    818.92   0.004542   22.95  0.001731  ( 0.021917  0.034749  0.006563)
 66:    833.64   0.013694   69.21  0.005126  (-0.001612 -0.016756  0.069591)
 67:    836.95   0.016376   82.76  0.006106  ( 0.039553 -0.064990 -0.017829)
 68:    861.36   0.002304   11.64  0.000835  (-0.014333  0.004152  0.024741)
 69:    874.50   0.000123    0.62  0.000044  (-0.005118  0.004114 -0.000917)
 70:    889.26   0.003427   17.32  0.001203  (-0.006720  0.021249 -0.026572)
 71:    916.65   0.002537   12.82  0.000864  (-0.016227  0.006251  0.023693)
 72:    923.49   0.001617    8.17  0.000547  ( 0.022157 -0.006206  0.004132)
 73:    926.21   0.001681    8.49  0.000566  (-0.017873  0.015068  0.004459)
 74:    961.21   0.006542   33.06  0.002124  ( 0.016807 -0.030719 -0.029963)
 75:    968.50   0.000539    2.72  0.000174  ( 0.009169 -0.001422 -0.009354)
 76:    968.57   0.001274    6.44  0.000411  ( 0.006419  0.002553  0.019048)
 77:    974.15   0.005097   25.76  0.001633  ( 0.002227 -0.036444 -0.017308)
 78:    981.88   0.001661    8.39  0.000528  (-0.001218 -0.008274 -0.021402)
 79:   1011.59   0.012270   62.01  0.003785  (-0.001437 -0.006692  0.061141)
 80:   1018.75   0.014588   73.72  0.004469  ( 0.033678 -0.056732 -0.010764)
 81:   1055.39   0.024952  126.10  0.007378  ( 0.068433 -0.007740 -0.051331)
 82:   1057.54   0.024618  124.41  0.007265  ( 0.023676  0.079247 -0.020588)
 83:   1141.43   0.037303  188.51  0.010199  ( 0.077030  0.002394  0.065263)
 84:   1144.23   0.037601  190.02  0.010255  ( 0.016269 -0.095634  0.029057)
 85:   1171.84   0.075932  383.73  0.020221  (-0.133751  0.044618 -0.018457)
 86:   1175.57   0.002076   10.49  0.000551  ( 0.021269  0.009563  0.002701)
 87:   1177.01   0.002397   12.11  0.000635  (-0.019005  0.015814 -0.004912)
 88:   1185.66   0.009519   48.10  0.002505  (-0.045778  0.007519 -0.018792)
 89:   1189.31   0.004184   21.14  0.001098  ( 0.017527 -0.018741  0.020963)
 90:   1199.64   0.031253  157.94  0.008130  ( 0.073571  0.040254  0.033121)
 91:   1200.75   0.020777  105.00  0.005400  ( 0.068530 -0.024943 -0.009012)
 92:   1204.34   0.089913  454.38  0.023298  (-0.117982 -0.096806 -0.002588)
 93:   1220.83   0.012353   62.43  0.003158  ( 0.020477 -0.052322  0.000871)
 94:   1221.70   0.004525   22.87  0.001156  (-0.014721  0.018762 -0.024232)
 95:   1267.84   0.015490   78.28  0.003813  (-0.058828  0.018688 -0.001628)
 96:   1271.20   0.014442   72.98  0.003545  (-0.017997 -0.040340  0.039927)
 97:   1285.58   0.006624   33.48  0.001608  (-0.039517  0.002031 -0.006502)
 98:   1287.15   0.037259  188.29  0.009033  ( 0.091481  0.012267 -0.022673)
 99:   1302.10   0.045991  232.42  0.011022  ( 0.046877 -0.093941 -0.000154)
100:   1311.07   0.002390   12.08  0.000569  ( 0.012189  0.020404  0.001989)
101:   1314.14   0.086907  439.19  0.020638  (-0.114033  0.087097 -0.006938)
102:   1324.12   0.148002  747.94  0.034881  (-0.172996 -0.068406  0.016538)
103:   1338.24   0.000745    3.77  0.000174  (-0.010938 -0.002514 -0.006916)
104:   1362.94   0.041109  207.75  0.009412  ( 0.096948 -0.002171 -0.002962)
105:   1365.67   0.008449   42.70  0.001931  ( 0.027086  0.034374 -0.003943)
106:   1370.86   0.023920  120.88  0.005445  ( 0.065302  0.012341 -0.032069)
107:   1377.46   0.014963   75.62  0.003390  (-0.038965 -0.042320  0.008981)
108:   1379.36   0.029289  148.01  0.006626  (-0.074941  0.030907 -0.007406)
109:   1442.64   0.000353    1.78  0.000076  (-0.007863  0.001825 -0.003341)
110:   1464.57   0.005497   27.78  0.001171  (-0.032954 -0.006378 -0.006690)
111:   1465.43   0.002330   11.78  0.000496  (-0.015949  0.004367 -0.014926)
112:   1469.46   0.007132   36.04  0.001515  ( 0.025620 -0.002137  0.029218)
113:   1483.42   0.003267   16.51  0.000687  ( 0.016429  0.001859  0.020344)
114:   1484.31   0.003234   16.34  0.000680  ( 0.002624 -0.025643  0.003923)
115:   1492.99   0.003204   16.19  0.000670  ( 0.023229 -0.009586  0.006182)
116:   1493.40   0.012651   63.93  0.002644  ( 0.042114  0.019767 -0.021893)
117:   1494.42   0.000712    3.60  0.000149  ( 0.009883 -0.000061 -0.007135)
118:   1495.84   0.000806    4.07  0.000168  ( 0.008264  0.001364  0.009900)
119:   1559.86   0.090130  455.48  0.018031  (-0.125822 -0.046434  0.006644)
120:   1560.43   0.055619  281.07  0.011123  (-0.081151  0.066389 -0.011403)
121:   1662.40   0.002998   15.15  0.000563  ( 0.006649  0.017712 -0.014312)
122:   1662.41   0.001779    8.99  0.000334  ( 0.008802  0.009337  0.013011)
123:   1675.29   0.090134  455.50  0.016790  (-0.103292  0.062058 -0.047636)
124:   1676.00   0.060046  303.45  0.011180  ( 0.042362  0.089101  0.038037)
125:   1706.19   0.209019  1056.30  0.038230  ( 0.140771  0.108859  0.081014)
126:   1713.98   0.089196  450.76  0.016240  ( 0.064776 -0.108821  0.014210)
127:   1716.05   0.032730  165.40  0.005952  (-0.070665 -0.015814 -0.026615)
128:   1722.03   0.091950  464.68  0.016663  ( 0.058976 -0.092733  0.067716)
129:   1741.08   0.182160  920.56  0.032650  (-0.057180 -0.147731 -0.086923)
130:   3044.78   0.013242   66.92  0.001357  (-0.020674 -0.005158  0.030053)
131:   3045.34   0.012921   65.30  0.001324  ( 0.005705 -0.034593  0.009739)
132:   3086.46   0.001097    5.54  0.000111  ( 0.008368  0.006291  0.001131)
133:   3119.51   0.008554   43.23  0.000856  ( 0.015134 -0.024423  0.005499)
134:   3121.35   0.008451   42.71  0.000845  (-0.025894 -0.007766 -0.010682)
135:   3131.62   0.000813    4.11  0.000081  (-0.006343  0.006033  0.002085)
136:   3165.32   0.007151   36.14  0.000705  (-0.014165 -0.002854  0.022276)
137:   3165.39   0.007000   35.37  0.000690  (-0.022231 -0.010635 -0.009097)
138:   3167.91   0.002680   13.54  0.000264  (-0.015992 -0.002007 -0.002060)
139:   3170.29   0.001344    6.79  0.000132  ( 0.007949  0.004912 -0.006704)
140:   3180.22   0.002845   14.38  0.000279  (-0.012728  0.010704 -0.001619)
141:   3180.36   0.003359   16.98  0.000330  (-0.016536 -0.007045 -0.002558)
142:   3186.34   0.002344   11.85  0.000230  ( 0.014700  0.003631  0.000554)
143:   3187.40   0.001262    6.38  0.000124  (-0.006553 -0.005218  0.007307)
144:   3195.72   0.002806   14.18  0.000274  ( 0.008534  0.014168  0.000683)
145:   3196.30   0.002626   13.27  0.000256  (-0.000605  0.002355 -0.015827)
146:   3204.80   0.000754    3.81  0.000073  (-0.003152 -0.001841  0.007752)
147:   3205.09   0.000854    4.32  0.000083  ( 0.007891  0.004564  0.000207)
148:   3797.63   0.038947  196.82  0.003200  ( 0.039592  0.013989  0.037911)
149:   3800.03   0.040099  202.64  0.003293  (-0.014939  0.055317 -0.003135)

* The epsilon (eps) is given for a Dirac delta lineshape.
** The dipole moment derivative (T) already includes vibrational overlap.

The first frequency considered to be a vibration is 6
The total number of vibrations considered is 144


--------------------------
THERMOCHEMISTRY AT 298.15K
--------------------------

Temperature         ... 298.15 K
Pressure            ... 1.00 atm
Total Mass          ... 414.39 AMU

Throughout the following assumptions are being made:
  (1) The electronic state is orbitally nondegenerate
      but the spin degeneracy is treated
  (2) There are no thermally accessible electronically excited states
  (3) Hindered rotations indicated by low frequency modes are not
      treated as such but are treated as vibrations and this may
      cause some error
  (4) All equations used are the standard statistical mechanics
      equations for an ideal gas
  (5) All vibrations are strictly harmonic

freq.       8.02  E(vib)   ...       0.58 
freq.      16.00  E(vib)   ...       0.57 
freq.      26.56  E(vib)   ...       0.56 
freq.      30.14  E(vib)   ...       0.55 
freq.      33.55  E(vib)   ...       0.55 
freq.      35.45  E(vib)   ...       0.54 
freq.      51.38  E(vib)   ...       0.52 
freq.      56.06  E(vib)   ...       0.52 
freq.      60.59  E(vib)   ...       0.51 
freq.      75.03  E(vib)   ...       0.49 
freq.      75.48  E(vib)   ...       0.49 
freq.      80.00  E(vib)   ...       0.49 
freq.      88.41  E(vib)   ...       0.48 
freq.      90.69  E(vib)   ...       0.47 
freq.     105.92  E(vib)   ...       0.45 
freq.     122.83  E(vib)   ...       0.43 
freq.     132.57  E(vib)   ...       0.42 
freq.     137.27  E(vib)   ...       0.42 
freq.     146.74  E(vib)   ...       0.41 
freq.     153.45  E(vib)   ...       0.40 
freq.     155.12  E(vib)   ...       0.40 
freq.     169.51  E(vib)   ...       0.38 
freq.     176.57  E(vib)   ...       0.38 
freq.     180.84  E(vib)   ...       0.37 
freq.     203.66  E(vib)   ...       0.35 
freq.     210.89  E(vib)   ...       0.34 
freq.     243.36  E(vib)   ...       0.31 
freq.     298.63  E(vib)   ...       0.26 
freq.     300.64  E(vib)   ...       0.26 
freq.     317.30  E(vib)   ...       0.25 
freq.     319.92  E(vib)   ...       0.25 
freq.     335.72  E(vib)   ...       0.24 
freq.     340.03  E(vib)   ...       0.23 
freq.     373.50  E(vib)   ...       0.21 
freq.     384.13  E(vib)   ...       0.20 
freq.     400.24  E(vib)   ...       0.19 
freq.     401.05  E(vib)   ...       0.19 
freq.     417.98  E(vib)   ...       0.18 
freq.     461.13  E(vib)   ...       0.16 
freq.     471.59  E(vib)   ...       0.15 
freq.     474.42  E(vib)   ...       0.15 
freq.     503.31  E(vib)   ...       0.14 
freq.     504.94  E(vib)   ...       0.14 
freq.     545.80  E(vib)   ...       0.12 
freq.     559.07  E(vib)   ...       0.12 
freq.     568.80  E(vib)   ...       0.11 
freq.     580.51  E(vib)   ...       0.11 
freq.     593.20  E(vib)   ...       0.10 
freq.     595.60  E(vib)   ...       0.10 
freq.     612.86  E(vib)   ...       0.10 
freq.     649.02  E(vib)   ...       0.08 
freq.     654.56  E(vib)   ...       0.08 
freq.     719.17  E(vib)   ...       0.07 
freq.     753.89  E(vib)   ...       0.06 
freq.     754.88  E(vib)   ...       0.06 
freq.     771.38  E(vib)   ...       0.05 
freq.     772.11  E(vib)   ...       0.05 
freq.     773.14  E(vib)   ...       0.05 
freq.     818.57  E(vib)   ...       0.05 
freq.     818.92  E(vib)   ...       0.05 
freq.     833.64  E(vib)   ...       0.04 
freq.     836.95  E(vib)   ...       0.04 
freq.     861.36  E(vib)   ...       0.04 
freq.     874.50  E(vib)   ...       0.04 
freq.     889.26  E(vib)   ...       0.04 
freq.     916.65  E(vib)   ...       0.03 
freq.     923.49  E(vib)   ...       0.03 
freq.     926.21  E(vib)   ...       0.03 
freq.     961.21  E(vib)   ...       0.03 
freq.     968.50  E(vib)   ...       0.03 
freq.     968.57  E(vib)   ...       0.03 
freq.     974.15  E(vib)   ...       0.03 
freq.     981.88  E(vib)   ...       0.02 
freq.    1011.59  E(vib)   ...       0.02 
freq.    1018.75  E(vib)   ...       0.02 
freq.    1055.39  E(vib)   ...       0.02 
freq.    1057.54  E(vib)   ...       0.02 
freq.    1141.43  E(vib)   ...       0.01 
freq.    1144.23  E(vib)   ...       0.01 
freq.    1171.84  E(vib)   ...       0.01 
freq.    1175.57  E(vib)   ...       0.01 
freq.    1177.01  E(vib)   ...       0.01 
freq.    1185.66  E(vib)   ...       0.01 
freq.    1189.31  E(vib)   ...       0.01 
freq.    1199.64  E(vib)   ...       0.01 
freq.    1200.75  E(vib)   ...       0.01 
freq.    1204.34  E(vib)   ...       0.01 
freq.    1220.83  E(vib)   ...       0.01 
freq.    1221.70  E(vib)   ...       0.01 
freq.    1267.84  E(vib)   ...       0.01 
freq.    1271.20  E(vib)   ...       0.01 
freq.    1285.58  E(vib)   ...       0.01 
freq.    1287.15  E(vib)   ...       0.01 
freq.    1302.10  E(vib)   ...       0.01 
freq.    1311.07  E(vib)   ...       0.01 
freq.    1314.14  E(vib)   ...       0.01 
freq.    1324.12  E(vib)   ...       0.01 
freq.    1338.24  E(vib)   ...       0.01 
freq.    1362.94  E(vib)   ...       0.01 
freq.    1365.67  E(vib)   ...       0.01 
freq.    1370.86  E(vib)   ...       0.01 
freq.    1377.46  E(vib)   ...       0.01 
freq.    1379.36  E(vib)   ...       0.01 
freq.    1442.64  E(vib)   ...       0.00 
freq.    1464.57  E(vib)   ...       0.00 
freq.    1465.43  E(vib)   ...       0.00 
freq.    1469.46  E(vib)   ...       0.00 
freq.    1483.42  E(vib)   ...       0.00 
freq.    1484.31  E(vib)   ...       0.00 
freq.    1492.99  E(vib)   ...       0.00 
freq.    1493.40  E(vib)   ...       0.00 
freq.    1494.42  E(vib)   ...       0.00 
freq.    1495.84  E(vib)   ...       0.00 
freq.    1559.86  E(vib)   ...       0.00 
freq.    1560.43  E(vib)   ...       0.00 
freq.    1662.40  E(vib)   ...       0.00 
freq.    1662.41  E(vib)   ...       0.00 
freq.    1675.29  E(vib)   ...       0.00 
freq.    1676.00  E(vib)   ...       0.00 
freq.    1706.19  E(vib)   ...       0.00 
freq.    1713.98  E(vib)   ...       0.00 
freq.    1716.05  E(vib)   ...       0.00 
freq.    1722.03  E(vib)   ...       0.00 
freq.    1741.08  E(vib)   ...       0.00 
freq.    3044.78  E(vib)   ...       0.00 
freq.    3045.34  E(vib)   ...       0.00 
freq.    3086.46  E(vib)   ...       0.00 
freq.    3119.51  E(vib)   ...       0.00 
freq.    3121.35  E(vib)   ...       0.00 
freq.    3131.62  E(vib)   ...       0.00 
freq.    3165.32  E(vib)   ...       0.00 
freq.    3165.39  E(vib)   ...       0.00 
freq.    3167.91  E(vib)   ...       0.00 
freq.    3170.29  E(vib)   ...       0.00 
freq.    3180.22  E(vib)   ...       0.00 
freq.    3180.36  E(vib)   ...       0.00 
freq.    3186.34  E(vib)   ...       0.00 
freq.    3187.40  E(vib)   ...       0.00 
freq.    3195.72  E(vib)   ...       0.00 
freq.    3196.30  E(vib)   ...       0.00 
freq.    3204.80  E(vib)   ...       0.00 
freq.    3205.09  E(vib)   ...       0.00 
freq.    3797.63  E(vib)   ...       0.00 
freq.    3800.03  E(vib)   ...       0.00 

------------
INNER ENERGY
------------

The inner energy is: U= E(el) + E(ZPE) + E(vib) + E(rot) + E(trans)
    E(el)   - is the total energy from the electronic structure calculation
              = E(kin-el) + E(nuc-el) + E(el-el) + E(nuc-nuc)
    E(ZPE)  - the the zero temperature vibrational energy from the frequency calculation
    E(vib)  - the the finite temperature correction to E(ZPE) due to population
              of excited vibrational states
    E(rot)  - is the rotational thermal energy
    E(trans)- is the translational thermal energy

Summary of contributions to the inner energy U:
Electronic energy                ...  -1468.55119896 Eh
Zero point energy                ...      0.38067225 Eh     238.87 kcal/mol
Thermal vibrational correction   ...      0.02826926 Eh      17.74 kcal/mol
Thermal rotational correction    ...      0.00141627 Eh       0.89 kcal/mol
Thermal translational correction ...      0.00141627 Eh       0.89 kcal/mol
-----------------------------------------------------------------------
Total thermal energy                  -1468.13942490 Eh


Summary of corrections to the electronic energy:
(perhaps to be used in another calculation)
Total thermal correction                  0.03110181 Eh      19.52 kcal/mol
Non-thermal (ZPE) correction              0.38067225 Eh     238.87 kcal/mol
-----------------------------------------------------------------------
Total correction                          0.41177406 Eh     258.39 kcal/mol


--------
ENTHALPY
--------

The enthalpy is H = U + kB*T
                kB is Boltzmann's constant
Total free energy                 ...  -1468.13942490 Eh 
Thermal Enthalpy correction       ...      0.00094421 Eh       0.59 kcal/mol
-----------------------------------------------------------------------
Total Enthalpy                    ...  -1468.13848069 Eh


Note: Only C1 symmetry has been detected, increase convergence thresholds 
      if your molecule has a higher symmetry. Symmetry factor of 1.0 is   
      used for the rotational entropy correction. 
 

Note: Rotational entropy computed according to Herzberg 
Infrared and Raman Spectra, Chapter V,1, Van Nostrand Reinhold, 1945 
Point Group:  C1, Symmetry Number:   1  
Rotational constants in cm-1:     0.006048     0.001764     0.001454 

Vibrational entropy computed according to the QRRHO of S. Grimme
Chem.Eur.J. 2012 18 9955


-------
ENTROPY
-------

The entropy contributions are T*S = T*(S(el)+S(vib)+S(rot)+S(trans))
     S(el)   - electronic entropy
     S(vib)  - vibrational entropy
     S(rot)  - rotational entropy
     S(trans)- translational entropy
The entropies will be listed as multiplied by the temperature to get
units of energy

Electronic entropy                ...      0.00065446 Eh      0.41 kcal/mol
Vibrational entropy               ...      0.05288574 Eh     33.19 kcal/mol
Rotational entropy                ...      0.01799999 Eh     11.30 kcal/mol
Translational entropy             ...      0.02088467 Eh     13.11 kcal/mol
-----------------------------------------------------------------------
Final entropy term                ...      0.09242485 Eh     58.00 kcal/mol

In case the symmetry of your molecule has not been determined correctly
or in case you have a reason to use a different symmetry number we print 
out the resulting rotational entropy values for sn=1,12 :
 --------------------------------------------------------
|  sn= 1 | S(rot)=       0.01799999 Eh     11.30 kcal/mol|
|  sn= 2 | S(rot)=       0.01734554 Eh     10.88 kcal/mol|
|  sn= 3 | S(rot)=       0.01696270 Eh     10.64 kcal/mol|
|  sn= 4 | S(rot)=       0.01669108 Eh     10.47 kcal/mol|
|  sn= 5 | S(rot)=       0.01648039 Eh     10.34 kcal/mol|
|  sn= 6 | S(rot)=       0.01630825 Eh     10.23 kcal/mol|
|  sn= 7 | S(rot)=       0.01616270 Eh     10.14 kcal/mol|
|  sn= 8 | S(rot)=       0.01603662 Eh     10.06 kcal/mol|
|  sn= 9 | S(rot)=       0.01592542 Eh      9.99 kcal/mol|
|  sn=10 | S(rot)=       0.01582594 Eh      9.93 kcal/mol|
|  sn=11 | S(rot)=       0.01573595 Eh      9.87 kcal/mol|
|  sn=12 | S(rot)=       0.01565379 Eh      9.82 kcal/mol|
 --------------------------------------------------------


-------------------
GIBBS FREE ENERGY
-------------------

The Gibbs free energy is G = H - T*S

Total enthalpy                    ...  -1468.13848069 Eh 
Total entropy correction          ...     -0.09242485 Eh    -58.00 kcal/mol
-----------------------------------------------------------------------
Final Gibbs free energy         ...  -1468.23090554 Eh

For completeness - the Gibbs free energy minus the electronic energy
G-E(el)                           ...      0.32029341 Eh    200.99 kcal/mol



Timings for individual modules:

Sum of individual times         ...   806434.293 sec (=13440.572 min)
GTO integral calculation        ...      102.979 sec (=   1.716 min)   0.0 %
SCF iterations                  ...   162297.309 sec (=2704.955 min)  20.1 %
SCF Gradient evaluation         ...    25695.294 sec (= 428.255 min)   3.2 %
Geometry relaxation             ...        7.465 sec (=   0.124 min)   0.0 %
Numerical frequency calculation ...   618331.246 sec (=10305.521 min)  76.7 %
                             ****ORCA TERMINATED NORMALLY****
TOTAL RUN TIME: 9 days 7 hours 42 minutes 7 seconds 534 msec
