
                                 *****************
                                 * O   R   C   A *
                                 *****************

                                            #,                                       
                                            ###                                      
                                            ####                                     
                                            #####                                    
                                            ######                                   
                                           ########,                                 
                                     ,,################,,,,,                         
                               ,,#################################,,                 
                          ,,##########################################,,             
                       ,#########################################, ''#####,          
                    ,#############################################,,   '####,        
                  ,##################################################,,,,####,       
                ,###########''''           ''''###############################       
              ,#####''   ,,,,##########,,,,          '''####'''          '####       
            ,##' ,,,,###########################,,,                        '##       
           ' ,,###''''                  '''############,,,                           
         ,,##''                                '''############,,,,        ,,,,,,###''
      ,#''                                            '''#######################'''  
     '                                                          ''''####''''         
             ,#######,   #######,   ,#######,      ##                                
            ,#'     '#,  ##    ##  ,#'     '#,    #''#        ######   ,####,        
            ##       ##  ##   ,#'  ##            #'  '#       #        #'  '#        
            ##       ##  #######   ##           ,######,      #####,   #    #        
            '#,     ,#'  ##    ##  '#,     ,#' ,#      #,         ##   #,  ,#        
             '#######'   ##     ##  '#######'  #'      '#     #####' # '####'        



                  #######################################################
                  #                        -***-                        #
                  #          Department of theory and spectroscopy      #
                  #    Directorship and core code : Frank Neese         #
                  #        Max Planck Institute fuer Kohlenforschung    #
                  #                Kaiser Wilhelm Platz 1               #
                  #                 D-45470 Muelheim/Ruhr               #
                  #                      Germany                        #
                  #                                                     #
                  #                  All rights reserved                #
                  #                        -***-                        #
                  #######################################################


                         Program Version 5.0.4 -  RELEASE  -


 With contributions from (in alphabetic order):
   Daniel Aravena         : Magnetic Suceptibility
   Michael Atanasov       : Ab Initio Ligand Field Theory (pilot matlab implementation)
   Alexander A. Auer      : GIAO ZORA, VPT2 properties, NMR spectrum
   Ute Becker             : Parallelization
   Giovanni Bistoni       : ED, misc. LED, open-shell LED, HFLD
   Martin Brehm           : Molecular dynamics
   Dmytro Bykov           : SCF Hessian
   Vijay G. Chilkuri      : MRCI spin determinant printing, contributions to CSF-ICE
   Dipayan Datta          : RHF DLPNO-CCSD density
   Achintya Kumar Dutta   : EOM-CC, STEOM-CC
   Dmitry Ganyushin       : Spin-Orbit,Spin-Spin,Magnetic field MRCI
   Miquel Garcia          : C-PCM and meta-GGA Hessian, CC/C-PCM, Gaussian charge scheme
   Yang Guo               : DLPNO-NEVPT2, F12-NEVPT2, CIM, IAO-localization
   Andreas Hansen         : Spin unrestricted coupled pair/coupled cluster methods
   Benjamin Helmich-Paris : MC-RPA, TRAH-SCF, COSX integrals
   Lee Huntington         : MR-EOM, pCC
   Robert Izsak           : Overlap fitted RIJCOSX, COSX-SCS-MP3, EOM
   Marcus Kettner         : VPT2
   Christian Kollmar      : KDIIS, OOCD, Brueckner-CCSD(T), CCSD density, CASPT2, CASPT2-K
   Simone Kossmann        : Meta GGA functionals, TD-DFT gradient, OOMP2, MP2 Hessian
   Martin Krupicka        : Initial AUTO-CI
   Lucas Lang             : DCDCAS
   Marvin Lechner         : AUTO-CI (C++ implementation), FIC-MRCC
   Dagmar Lenk            : GEPOL surface, SMD
   Dimitrios Liakos       : Extrapolation schemes; Compound Job, initial MDCI parallelization
   Dimitrios Manganas     : Further ROCIS development; embedding schemes
   Dimitrios Pantazis     : SARC Basis sets
   Anastasios Papadopoulos: AUTO-CI, single reference methods and gradients
   Taras Petrenko         : DFT Hessian,TD-DFT gradient, ASA, ECA, R-Raman, ABS, FL, XAS/XES, NRVS
   Peter Pinski           : DLPNO-MP2, DLPNO-MP2 Gradient
   Christoph Reimann      : Effective Core Potentials
   Marius Retegan         : Local ZFS, SOC
   Christoph Riplinger    : Optimizer, TS searches, QM/MM, DLPNO-CCSD(T), (RO)-DLPNO pert. Triples
   Tobias Risthaus        : Range-separated hybrids, TD-DFT gradient, RPA, STAB
   Michael Roemelt        : Original ROCIS implementation
   Masaaki Saitow         : Open-shell DLPNO-CCSD energy and density
   Barbara Sandhoefer     : DKH picture change effects
   Avijit Sen             : IP-ROCIS
   Kantharuban Sivalingam : CASSCF convergence, NEVPT2, FIC-MRCI
   Bernardo de Souza      : ESD, SOC TD-DFT
   Georgi Stoychev        : AutoAux, RI-MP2 NMR, DLPNO-MP2 response
   Willem Van den Heuvel  : Paramagnetic NMR
   Boris Wezisla          : Elementary symmetry handling
   Frank Wennmohs         : Technical directorship


 We gratefully acknowledge several colleagues who have allowed us to
 interface, adapt or use parts of their codes:
   Stefan Grimme, W. Hujo, H. Kruse, P. Pracht,  : VdW corrections, initial TS optimization,
                  C. Bannwarth, S. Ehlert          DFT functionals, gCP, sTDA/sTD-DF
   Ed Valeev, F. Pavosevic, A. Kumar             : LibInt (2-el integral package), F12 methods
   Garnet Chan, S. Sharma, J. Yang, R. Olivares  : DMRG
   Ulf Ekstrom                                   : XCFun DFT Library
   Mihaly Kallay                                 : mrcc  (arbitrary order and MRCC methods)
   Jiri Pittner, Ondrej Demel                    : Mk-CCSD
   Frank Weinhold                                : gennbo (NPA and NBO analysis)
   Christopher J. Cramer and Donald G. Truhlar   : smd solvation model
   Lars Goerigk                                  : TD-DFT with DH, B97 family of functionals
   V. Asgeirsson, H. Jonsson                     : NEB implementation
   FAccTs GmbH                                   : IRC, NEB, NEB-TS, DLPNO-Multilevel, CI-OPT
                                                   MM, QMMM, 2- and 3-layer-ONIOM, Crystal-QMMM,
                                                   LR-CPCM, SF, NACMEs, symmetry and pop. for TD-DFT,
                                                   nearIR, NL-DFT gradient (VV10), updates on ESD,
                                                   ML-optimized integration grids
   S Lehtola, MJT Oliveira, MAL Marques          : LibXC Library
   Liviu Ungur et al                             : ANISO software


 Your calculation uses the libint2 library for the computation of 2-el integrals
 For citations please refer to: http://libint.valeyev.net

 Your ORCA version has been built with support for libXC version: 5.1.0
 For citations please refer to: https://tddft.org/programs/libxc/

 This ORCA versions uses:
   CBLAS   interface :  Fast vector & matrix operations
   LAPACKE interface :  Fast linear algebra routines
   SCALAPACK package :  Parallel linear algebra routines
   Shared memory     :  Shared parallel matrices
   BLAS/LAPACK       :  OpenBLAS 0.3.15  USE64BITINT DYNAMIC_ARCH NO_AFFINITY Zen SINGLE_THREADED
        Core in use  :  Zen
   Copyright (c) 2011-2014, The OpenBLAS Project


Your calculation utilizes the DFT-NL dispersion correction.
Cite in your paper:
Vydrov, O. A.; Van Voorhis, T. J. Chem. Phys. 2010, 133, 244103
Hujo, W.; Grimme, S. J. Chem. Theory Comput. 2011, 7, 3866 
   

================================================================================

----- Orbital basis set information -----
Your calculation utilizes the basis: 6-311+G(d)
   H, Li - Ne  : R. Krishnan, J. S. Binkley, R. Seeger and J. A. Pople, J. Chem. Phys. 72, 650 (1980).
   Na - Ar     : A. D. McLean and G. S. Chandler J. Chem. Phys. 72, 5639, (1980).
   K  - Ca     : J.-P. Blaudeau, M. P. McGrath, L. A. Curtiss and L. Radom, J. Chem. Phys. 107, 5016 (1997).
   Ga - Kr     : L. A. Curtiss, M. P. McGrath, J.-P. Blandeau, N. E. Davis, R. C. Binning and L. Radom, J. Chem. Phys. 103, 6104 (1995).
   Pol./Diff.
   H, Li - Cl  : T. Clark, J. Chandrasekhar and P. v. R. Schleyer, J. Comp. Chem. 4, 294 (1983).
   H - Ne      : M. J. Frisch, J. A. Pople and J. S. Binkley, J. Chem. Phys. 80, 3265 (1984).

----- AuxJ basis set information -----
Your calculation utilizes the auxiliary basis: def2/J
   F. Weigend, Phys. Chem. Chem. Phys. 8, 1057 (2006).

================================================================================
                                        WARNINGS
                       Please study these warnings very carefully!
================================================================================

Using LibXC functional ID 531 : wB97M-V exchange-correlation functional
[ 1]  N. Mardirossian and M. Head-Gordon, J. Chem. Phys. 144, 214110 (2016)
Using LibXC functional ID 531 : wB97M-V exchange-correlation functional
[ 1]  N. Mardirossian and M. Head-Gordon, J. Chem. Phys. 144, 214110 (2016)

WARNING: B97M-V or wB97M-V functional requested.
  ===> : libXC variant has now been activated.
         Any manually given DFX/HFX/RangeSep scaling parameters are IGNORED!

Your calculation utilizes LibXC
 by S Lehtola, C Steigemann, MJT Oliveira & MAL Marques
Please cite in your paper:
 S Lehtola, C Steigemann, MJT Oliveira & MAL Marques, SoftwareX, 7, (2018), 1.
   


WARNING: your system is open-shell and RHF/RKS was chosen
  ===> : WILL SWITCH to UHF/UKS


WARNING: Geometry Optimization
  ===> : Switching off AutoStart
         For restart on a previous wavefunction, please use MOREAD

WARNING: Analytic gradients for DFT-NL dispersion can only be done using the self-consistent method,
  ===>   Switching to SCNL

WARNING: Self-consistent DFT-NL dispersion not compatible with AutoTRAH.
  ===>   Switching AutoTRAH off


INFO   : the flag for use of the SHARK integral package has been found!

================================================================================
                                       INPUT FILE
================================================================================
NAME = CURCUMIN-OPT-FREQ-Reag-1-wB97XM-V-6-311+G-D-298-cont.inp
|  1> # 
|  2> ! Opt NumFreq wb97M-V 6-311+G(d) CPCM RIJDX
|  3> %maxcore 2000
|  4> %cpcm
|  5> epsilon 7 # Dielectric constant
|  6> refrac 1.85341 # Refractive index
|  7> end
|  8> 
|  9> * xyz 0 2
| 10>    C      2.042829    1.106421    1.258576
| 11>    H      1.761836    2.141701    1.431540
| 12>    C      1.305268    0.114726    1.809220
| 13>    H      1.565933   -0.933555    1.693875
| 14>    C      0.114112    0.346204    2.637719
| 15>    O     -0.415988   -0.584852    3.225830
| 16>    C      3.203166    0.925234    0.430263
| 17>    C      3.912121    2.016970   -0.034098
| 18>    C      3.635262   -0.451441    0.032054
| 19>    C      5.046062    1.880193   -0.832275
| 20>    H      3.577597    3.012575    0.239418
| 21>    C      4.908075   -0.528316   -0.738636
| 22>    H      3.659066   -1.153739    0.869316
| 23>    C      5.543506    0.594535   -1.178804
| 24>    H      5.569499    2.760681   -1.190807
| 25>    O      6.661168    0.443164   -1.939844
| 26>    H      7.042442    1.300968   -2.164049
| 27>    O      5.305886   -1.791580   -1.045738
| 28>    C      6.562847   -2.200105   -0.471667
| 29>    H      6.512263   -2.129179    0.617387
| 30>    H      6.704296   -3.236716   -0.768228
| 31>    H      7.377647   -1.585716   -0.853236
| 32>    C     -2.812924    0.679233    1.261490
| 33>    H     -2.557944    0.306133    2.250256
| 34>    C     -2.085980    1.676104    0.730942
| 35>    H     -2.302966    2.087247   -0.250832
| 36>    C     -0.952962    2.314323    1.414348
| 37>    O     -0.398528    3.284363    0.918645
| 38>    C     -3.954253    0.005835    0.636923
| 39>    C     -4.546968   -1.069998    1.302449
| 40>    C     -4.479223    0.392326   -0.605328
| 41>    C     -5.622639   -1.752123    0.746740
| 42>    H     -4.157334   -1.384293    2.265777
| 43>    C     -5.548883   -0.277793   -1.165001
| 44>    H     -4.062042    1.223833   -1.163655
| 45>    C     -6.128211   -1.365604   -0.489679
| 46>    H     -6.069807   -2.594283    1.267222
| 47>    O     -7.165938   -1.992671   -1.101114
| 48>    H     -7.489804   -2.721141   -0.556353
| 49>    O     -6.015259    0.089955   -2.404062
| 50>    C     -7.241728    0.830333   -2.351467
| 51>    H     -7.094913    1.763735   -1.800606
| 52>    H     -7.513762    1.051035   -3.381792
| 53>    H     -8.031406    0.241200   -1.880721
| 54>    C     -0.461916    1.754489    2.748182
| 55>    H     -1.281238    1.716536    3.468197
| 56>    H      0.297210    2.440701    3.129027
| 57>    O      2.118650   -2.177752   -0.601796
| 58>    O      2.177484   -0.422676   -1.850605
| 59>    N      2.531964   -1.074233   -0.890196
| 60> *
| 61> 
| 62> 
| 63> 
| 64>                          ****END OF INPUT****
================================================================================

                       *****************************
                       * Geometry Optimization Run *
                       *****************************

Geometry optimization settings:
Update method            Update   .... BFGS
Choice of coordinates    CoordSys .... Z-matrix Internals
Initial Hessian          InHess   .... Almoef's Model

Convergence Tolerances:
Energy Change            TolE     ....  5.0000e-06 Eh
Max. Gradient            TolMAXG  ....  3.0000e-04 Eh/bohr
RMS Gradient             TolRMSG  ....  1.0000e-04 Eh/bohr
Max. Displacement        TolMAXD  ....  4.0000e-03 bohr
RMS Displacement         TolRMSD  ....  2.0000e-03 bohr
Strict Convergence                ....  False
------------------------------------------------------------------------------
                        ORCA OPTIMIZATION COORDINATE SETUP
------------------------------------------------------------------------------

The optimization will be done in new redundant internal coordinates
Making redundant internal coordinates   ...  (new redundants) done
Evaluating the initial hessian          ...  (Almloef) done
Evaluating the coordinates              ...  done
Calculating the B-matrix                .... done
Calculating the G-matrix                .... done
Diagonalizing the G-matrix              .... done
Small eigenvalue found = 1.098e-03
Small eigenvalue found = 1.297e-03
Small eigenvalue found = 2.020e-03
Small eigenvalue found = 7.438e-03
Small eigenvalue found = 9.537e-03
Small eigenvalue found = 1.142e-02
Small eigenvalue found = 1.584e-02
Small eigenvalue found = 2.444e-02
Small eigenvalue found = 2.816e-02
The first mode is                       ....   97
The number of degrees of freedom        ....  144

    -----------------------------------------------------------------
                    Redundant Internal Coordinates


    -----------------------------------------------------------------
         Definition                    Initial Value    Approx d2E/dq
    -----------------------------------------------------------------
      1. B(H   1,C   0)                  1.0866         0.364639   
      2. B(C   2,C   0)                  1.3530         0.715710   
      3. B(H   3,C   2)                  1.0863         0.364969   
      4. B(C   4,C   2)                  1.4693         0.466895   
      5. B(O   5,C   4)                  1.2222         1.036591   
      6. B(C   6,C   0)                  1.4371         0.525487   
      7. B(C   7,C   6)                  1.3821         0.643250   
      8. B(C   8,C   6)                  1.4968         0.421980   
      9. B(C   9,C   7)                  1.3934         0.616998   
     10. B(H  10,C   7)                  1.0853         0.366328   
     11. B(C  11,C   8)                  1.4899         0.432801   
     12. B(H  12,C   8)                  1.0931         0.356065   
     13. B(C  13,C  11)                  1.3632         0.689439   
     14. B(C  13,C   9)                  1.4214         0.556675   
     15. B(H  14,C   9)                  1.0853         0.366425   
     16. B(O  15,C  13)                  1.3606         0.623395   
     17. B(H  16,O  15)                  0.9651         0.510259   
     18. B(O  17,C  11)                  1.3596         0.625809   
     19. B(C  18,O  17)                  1.4410         0.464037   
     20. B(H  19,C  18)                  1.0925         0.356765   
     21. B(H  20,C  18)                  1.0874         0.363507   
     22. B(H  21,C  18)                  1.0895         0.360788   
     23. B(H  23,C  22)                  1.0871         0.363901   
     24. B(C  24,C  22)                  1.3430         0.742515   
     25. B(H  25,C  24)                  1.0863         0.365056   
     26. B(C  26,C  24)                  1.4690         0.467332   
     27. B(O  27,C  26)                  1.2223         1.036045   
     28. B(C  28,C  22)                  1.4650         0.474357   
     29. B(C  29,C  28)                  1.3970         0.608899   
     30. B(C  30,C  28)                  1.4029         0.595856   
     31. B(C  31,C  29)                  1.3897         0.625561   
     32. B(H  32,C  29)                  1.0856         0.365925   
     33. B(C  33,C  30)                  1.3807         0.646397   
     34. B(H  34,C  30)                  1.0850         0.366808   
     35. B(C  35,C  33)                  1.4054         0.590535   
     36. B(C  35,C  31)                  1.3906         0.623451   
     37. B(H  36,C  31)                  1.0863         0.364999   
     38. B(O  37,C  35)                  1.3579         0.629592   
     39. B(H  38,O  37)                  0.9656         0.509428   
     40. B(O  39,C  33)                  1.3741         0.593363   
     41. B(C  40,O  39)                  1.4336         0.476811   
     42. B(H  41,C  40)                  1.0937         0.355201   
     43. B(H  42,C  40)                  1.0882         0.362427   
     44. B(H  43,C  40)                  1.0919         0.357580   
     45. B(C  44,C  26)                  1.5276         0.376841   
     46. B(C  44,C   4)                  1.5255         0.379744   
     47. B(H  45,C  44)                  1.0914         0.358255   
     48. B(H  46,C  44)                  1.0919         0.357621   
     49. B(N  49,O  48)                  1.2135         0.958553   
     50. B(N  49,O  47)                  1.2132         0.959731   
     51. B(N  49,C   8)                  1.5671         0.292002   
     52. A(C   2,C   0,C   6)          125.6120         0.432365   
     53. A(H   1,C   0,C   2)          119.5108         0.362399   
     54. A(H   1,C   0,C   6)          114.8766         0.343934   
     55. A(H   3,C   2,C   4)          113.9800         0.337254   
     56. A(C   0,C   2,H   3)          122.2257         0.362455   
     57. A(C   0,C   2,C   4)          123.7754         0.423299   
     58. A(C   2,C   4,C  44)          119.4967         0.378625   
     59. A(C   2,C   4,O   5)          120.1947         0.449543   
     60. A(O   5,C   4,C  44)          120.3065         0.433071   
     61. A(C   0,C   6,C   7)          120.5461         0.424168   
     62. A(C   0,C   6,C   8)          120.1567         0.393666   
     63. A(C   7,C   6,C   8)          119.2781         0.407933   
     64. A(C   9,C   7,H  10)          119.0274         0.353644   
     65. A(C   6,C   7,C   9)          122.1653         0.436571   
     66. A(C   6,C   7,H  10)          118.8056         0.356152   
     67. A(H  12,C   8,N  49)          102.1679         0.309163   
     68. A(C   6,C   8,C  11)          115.5735         0.380574   
     69. A(C   6,C   8,H  12)          113.1685         0.330282   
     70. A(C  11,C   8,N  49)          106.0531         0.355053   
     71. A(C   6,C   8,N  49)          108.5933         0.353533   
     72. A(C  11,C   8,H  12)          110.1485         0.331669   
     73. A(C  13,C   9,H  14)          118.9791         0.347568   
     74. A(C   7,C   9,H  14)          120.1391         0.353660   
     75. A(C   7,C   9,C  13)          120.8788         0.425384   
     76. A(C  13,C  11,O  17)          123.7810         0.440290   
     77. A(C   8,C  11,O  17)          114.5032         0.405154   
     78. A(C   8,C  11,C  13)          121.5151         0.414841   
     79. A(C  11,C  13,O  15)          118.1557         0.439983   
     80. A(C   9,C  13,O  15)          121.6318         0.423395   
     81. A(C   9,C  13,C  11)          120.2097         0.433943   
     82. A(C  13,O  15,H  16)          110.8283         0.369267   
     83. A(C  11,O  17,C  18)          115.3834         0.407537   
     84. A(O  17,C  18,H  21)          110.6691         0.334229   
     85. A(H  19,C  18,H  20)          109.8619         0.290845   
     86. A(O  17,C  18,H  20)          105.9664         0.334646   
     87. A(O  17,C  18,H  19)          109.7752         0.333607   
     88. A(H  20,C  18,H  21)          110.1682         0.291357   
     89. A(H  19,C  18,H  21)          110.3120         0.290502   
     90. A(C  24,C  22,C  28)          126.4747         0.427304   
     91. A(H  23,C  22,C  28)          114.3760         0.337981   
     92. A(H  23,C  22,C  24)          119.1491         0.364557   
     93. A(H  25,C  24,C  26)          114.2097         0.337320   
     94. A(C  22,C  24,C  26)          123.7910         0.426164   
     95. A(C  22,C  24,H  25)          121.9957         0.364755   
     96. A(C  24,C  26,O  27)          120.3944         0.449577   
     97. A(O  27,C  26,C  44)          119.9419         0.432433   
     98. A(C  24,C  26,C  44)          119.6627         0.378184   
     99. A(C  29,C  28,C  30)          118.3742         0.429582   
    100. A(C  22,C  28,C  30)          122.8474         0.410868   
    101. A(C  22,C  28,C  29)          118.7783         0.412449   
    102. A(C  31,C  29,H  32)          119.3760         0.354405   
    103. A(C  28,C  29,H  32)          119.5641         0.352788   
    104. A(C  28,C  29,C  31)          121.0583         0.433353   
    105. A(C  33,C  30,H  34)          117.4670         0.356526   
    106. A(C  28,C  30,H  34)          121.5281         0.351642   
    107. A(C  28,C  30,C  33)          121.0047         0.434220   
    108. A(C  35,C  31,H  36)          119.4609         0.354050   
    109. A(C  29,C  31,H  36)          120.5015         0.354253   
    110. A(C  29,C  31,C  35)          120.0355         0.435199   
    111. A(C  35,C  33,O  39)          120.0380         0.424128   
    112. A(C  30,C  33,O  39)          119.9055         0.431055   
    113. A(C  30,C  33,C  35)          120.0160         0.433520   
    114. A(C  33,C  35,O  37)          117.1357         0.428654   
    115. A(C  31,C  35,O  37)          123.3559         0.432850   
    116. A(C  31,C  35,C  33)          119.5075         0.430713   
    117. A(C  35,O  37,H  38)          110.5289         0.369792   
    118. A(C  33,O  39,C  40)          113.2984         0.405662   
    119. A(H  41,C  40,H  42)          109.7140         0.290508   
    120. A(O  39,C  40,H  42)          106.4910         0.335994   
    121. A(O  39,C  40,H  41)          110.1443         0.334871   
    122. A(H  42,C  40,H  43)          109.6828         0.290813   
    123. A(H  41,C  40,H  43)          109.9010         0.289895   
    124. A(O  39,C  40,H  43)          110.8481         0.335242   
    125. A(H  45,C  44,H  46)          108.2808         0.290290   
    126. A(C  26,C  44,H  46)          107.3204         0.324415   
    127. A(C   4,C  44,H  46)          110.0537         0.324824   
    128. A(C  26,C  44,H  45)          110.3320         0.324509   
    129. A(C   4,C  44,H  45)          107.4052         0.324918   
    130. A(C   4,C  44,C  26)          113.3567         0.364914   
    131. A(O  47,N  49,O  48)          125.2416         0.495614   
    132. A(C   8,N  49,O  48)          117.2618         0.402242   
    133. A(C   8,N  49,O  47)          117.4819         0.402329   
    134. D(C   4,C   2,C   0,H   1)      0.4978         0.036216   
    135. D(H   3,C   2,C   0,H   1)   -177.8250         0.036216   
    136. D(C   4,C   2,C   0,C   6)   -179.2063         0.036216   
    137. D(H   3,C   2,C   0,C   6)      2.4709         0.036216   
    138. D(C  44,C   4,C   2,C   0)      8.7613         0.014845   
    139. D(C  44,C   4,C   2,H   3)   -172.7915         0.014845   
    140. D(O   5,C   4,C   2,H   3)      6.6902         0.014845   
    141. D(O   5,C   4,C   2,C   0)   -171.7570         0.014845   
    142. D(C   8,C   6,C   0,C   2)      4.2588         0.018841   
    143. D(C   7,C   6,C   0,H   1)      2.9421         0.018841   
    144. D(C   7,C   6,C   0,C   2)   -177.3417         0.018841   
    145. D(C   8,C   6,C   0,H   1)   -175.4574         0.018841   
    146. D(H  10,C   7,C   6,C   0)      0.0970         0.028768   
    147. D(C   9,C   7,C   6,C   8)     -1.9786         0.028768   
    148. D(C   9,C   7,C   6,C   0)    179.6080         0.028768   
    149. D(H  10,C   7,C   6,C   8)    178.5105         0.028768   
    150. D(N  49,C   8,C   6,C   7)   -112.8791         0.013164   
    151. D(N  49,C   8,C   6,C   0)     65.5406         0.013164   
    152. D(H  12,C   8,C   6,C   7)    134.4238         0.013164   
    153. D(H  12,C   8,C   6,C   0)    -47.1564         0.013164   
    154. D(C  11,C   8,C   6,C   7)      6.0960         0.013164   
    155. D(C  11,C   8,C   6,C   0)   -175.4842         0.013164   
    156. D(C  13,C   9,C   7,C   6)     -1.5276         0.026327   
    157. D(H  14,C   9,C   7,C   6)    179.1063         0.026327   
    158. D(C  13,C   9,C   7,H  10)    177.9823         0.026327   
    159. D(H  14,C   9,C   7,H  10)     -1.3838         0.026327   
    160. D(O  17,C  11,C   8,C   6)    177.6609         0.013830   
    161. D(C  13,C  11,C   8,N  49)    113.0646         0.013830   
    162. D(C  13,C  11,C   8,H  12)   -137.1069         0.013830   
    163. D(O  17,C  11,C   8,H  12)     47.8554         0.013830   
    164. D(C  13,C  11,C   8,C   6)     -7.3014         0.013830   
    165. D(O  17,C  11,C   8,N  49)    -61.9731         0.013830   
    166. D(O  15,C  13,C  11,O  17)     -1.8317         0.033393   
    167. D(C   9,C  13,C  11,O  17)    178.7601         0.033393   
    168. D(C   9,C  13,C  11,C   8)      4.1940         0.033393   
    169. D(O  15,C  13,C   9,H  14)      0.4097         0.021217   
    170. D(O  15,C  13,C   9,C   7)   -178.9636         0.021217   
    171. D(O  15,C  13,C  11,C   8)   -176.3978         0.033393   
    172. D(C  11,C  13,C   9,H  14)    179.7969         0.021217   
    173. D(C  11,C  13,C   9,C   7)      0.4236         0.021217   
    174. D(H  16,O  15,C  13,C  11)   -177.8453         0.028535   
    175. D(H  16,O  15,C  13,C   9)      1.5540         0.028535   
    176. D(C  18,O  17,C  11,C  13)     67.8768         0.028773   
    177. D(C  18,O  17,C  11,C   8)   -117.2133         0.028773   
    178. D(H  21,C  18,O  17,C  11)    -63.4865         0.016967   
    179. D(H  20,C  18,O  17,C  11)    177.0929         0.016967   
    180. D(H  19,C  18,O  17,C  11)     58.5120         0.016967   
    181. D(H  25,C  24,C  22,C  28)      0.4650         0.039243   
    182. D(H  25,C  24,C  22,H  23)   -179.6959         0.039243   
    183. D(C  26,C  24,C  22,C  28)    179.7327         0.039243   
    184. D(C  26,C  24,C  22,H  23)     -0.4282         0.039243   
    185. D(C  44,C  26,C  24,H  25)   -174.6744         0.014873   
    186. D(C  44,C  26,C  24,C  22)      6.0066         0.014873   
    187. D(O  27,C  26,C  24,H  25)      4.9515         0.014873   
    188. D(O  27,C  26,C  24,C  22)   -174.3676         0.014873   
    189. D(C  30,C  28,C  22,C  24)     -3.6481         0.015321   
    190. D(C  30,C  28,C  22,H  23)    176.5061         0.015321   
    191. D(C  29,C  28,C  22,C  24)    176.2205         0.015321   
    192. D(C  29,C  28,C  22,H  23)     -3.6252         0.015321   
    193. D(H  32,C  29,C  28,C  30)   -179.8939         0.025601   
    194. D(H  32,C  29,C  28,C  22)      0.2315         0.025601   
    195. D(C  31,C  29,C  28,C  30)      0.5812         0.025601   
    196. D(C  31,C  29,C  28,C  22)   -179.2933         0.025601   
    197. D(H  34,C  30,C  28,C  29)    179.6665         0.024458   
    198. D(H  34,C  30,C  28,C  22)     -0.4644         0.024458   
    199. D(C  33,C  30,C  28,C  29)     -0.4892         0.024458   
    200. D(C  33,C  30,C  28,C  22)    179.3800         0.024458   
    201. D(H  36,C  31,C  29,H  32)     -0.1901         0.027108   
    202. D(H  36,C  31,C  29,C  28)    179.3357         0.027108   
    203. D(C  35,C  31,C  29,H  32)   -179.6643         0.027108   
    204. D(C  35,C  31,C  29,C  28)     -0.1385         0.027108   
    205. D(O  39,C  33,C  30,H  34)      2.1228         0.029070   
    206. D(O  39,C  33,C  30,C  28)   -177.7277         0.029070   
    207. D(C  35,C  33,C  30,H  34)    179.8074         0.029070   
    208. D(C  35,C  33,C  30,C  28)     -0.0430         0.029070   
    209. D(O  37,C  35,C  33,O  39)     -1.5009         0.024001   
    210. D(O  37,C  35,C  33,C  30)   -179.1825         0.024001   
    211. D(C  31,C  35,C  33,O  39)    178.1762         0.024001   
    212. D(C  31,C  35,C  33,C  30)      0.4946         0.024001   
    213. D(O  37,C  35,C  31,H  36)     -0.2280         0.026915   
    214. D(O  37,C  35,C  31,C  29)    179.2517         0.026915   
    215. D(C  33,C  35,C  31,H  36)   -179.8840         0.026915   
    216. D(C  33,C  35,C  31,C  29)     -0.4043         0.026915   
    217. D(H  38,O  37,C  35,C  33)   -179.9603         0.029148   
    218. D(H  38,O  37,C  35,C  31)      0.3760         0.029148   
    219. D(C  40,O  39,C  33,C  35)     77.7627         0.025678   
    220. D(C  40,O  39,C  33,C  30)   -104.5531         0.025678   
    221. D(H  43,C  40,O  39,C  33)    -60.0539         0.017930   
    222. D(H  42,C  40,O  39,C  33)   -179.3033         0.017930   
    223. D(H  41,C  40,O  39,C  33)     61.7945         0.017930   
    224. D(H  46,C  44,C  26,O  27)      6.8984         0.010608   
    225. D(H  46,C  44,C  26,C  24)   -173.4740         0.010608   
    226. D(H  45,C  44,C  26,O  27)    124.6710         0.010608   
    227. D(H  45,C  44,C  26,C  24)    -55.7015         0.010608   
    228. D(C   4,C  44,C  26,O  27)   -114.8320         0.010608   
    229. D(C   4,C  44,C  26,C  24)     64.7956         0.010608   
    230. D(H  46,C  44,C   4,O   5)    122.8095         0.010762   
    231. D(H  46,C  44,C   4,C   2)    -57.7094         0.010762   
    232. D(H  45,C  44,C   4,O   5)      5.1399         0.010762   
    233. D(H  45,C  44,C   4,C   2)   -175.3790         0.010762   
    234. D(C  26,C  44,C   4,O   5)   -117.0014         0.010762   
    235. D(C  26,C  44,C   4,C   2)     62.4797         0.010762   
    236. D(O  48,N  49,C   8,H  12)    172.2489         0.007622   
    237. D(O  48,N  49,C   8,C  11)    -72.3650         0.007622   
    238. D(O  48,N  49,C   8,C   6)     52.4354         0.007622   
    239. D(O  47,N  49,C   8,H  12)     -9.0733         0.007622   
    240. D(O  47,N  49,C   8,C  11)    106.3128         0.007622   
    241. D(O  47,N  49,C   8,C   6)   -128.8868         0.007622   
    -----------------------------------------------------------------

Number of atoms                         .... 50
Number of degrees of freedom            .... 241

         *************************************************************
         *                GEOMETRY OPTIMIZATION CYCLE   1            *
         *************************************************************
---------------------------------
CARTESIAN COORDINATES (ANGSTROEM)
---------------------------------
  C      2.042829    1.106421    1.258576
  H      1.761836    2.141701    1.431540
  C      1.305268    0.114726    1.809220
  H      1.565933   -0.933555    1.693875
  C      0.114112    0.346204    2.637719
  O     -0.415988   -0.584852    3.225830
  C      3.203166    0.925234    0.430263
  C      3.912121    2.016970   -0.034098
  C      3.635262   -0.451441    0.032054
  C      5.046062    1.880193   -0.832275
  H      3.577597    3.012575    0.239418
  C      4.908075   -0.528316   -0.738636
  H      3.659066   -1.153739    0.869316
  C      5.543506    0.594535   -1.178804
  H      5.569499    2.760681   -1.190807
  O      6.661168    0.443164   -1.939844
  H      7.042442    1.300968   -2.164049
  O      5.305886   -1.791580   -1.045738
  C      6.562847   -2.200105   -0.471667
  H      6.512263   -2.129179    0.617387
  H      6.704296   -3.236716   -0.768228
  H      7.377647   -1.585716   -0.853236
  C     -2.812924    0.679233    1.261490
  H     -2.557944    0.306133    2.250256
  C     -2.085980    1.676104    0.730942
  H     -2.302966    2.087247   -0.250832
  C     -0.952962    2.314323    1.414348
  O     -0.398528    3.284363    0.918645
  C     -3.954253    0.005835    0.636923
  C     -4.546968   -1.069998    1.302449
  C     -4.479223    0.392326   -0.605328
  C     -5.622639   -1.752123    0.746740
  H     -4.157334   -1.384293    2.265777
  C     -5.548883   -0.277793   -1.165001
  H     -4.062042    1.223833   -1.163655
  C     -6.128211   -1.365604   -0.489679
  H     -6.069807   -2.594283    1.267222
  O     -7.165938   -1.992671   -1.101114
  H     -7.489804   -2.721141   -0.556353
  O     -6.015259    0.089955   -2.404062
  C     -7.241728    0.830333   -2.351467
  H     -7.094913    1.763735   -1.800606
  H     -7.513762    1.051035   -3.381792
  H     -8.031406    0.241200   -1.880721
  C     -0.461916    1.754489    2.748182
  H     -1.281238    1.716536    3.468197
  H      0.297210    2.440701    3.129027
  O      2.118650   -2.177752   -0.601796
  O      2.177484   -0.422676   -1.850605
  N      2.531964   -1.074233   -0.890196

----------------------------
CARTESIAN COORDINATES (A.U.)
----------------------------
  NO LB      ZA    FRAG     MASS         X           Y           Z
   0 C     6.0000    0    12.011    3.860387    2.090833    2.378364
   1 H     1.0000    0     1.008    3.329388    4.047228    2.705219
   2 C     6.0000    0    12.011    2.466599    0.216801    3.418930
   3 H     1.0000    0     1.008    2.959185   -1.764163    3.200960
   4 C     6.0000    0    12.011    0.215640    0.654231    4.984567
   5 O     8.0000    0    15.999   -0.786103   -1.105210    6.095935
   6 C     6.0000    0    12.011    6.053107    1.748439    0.813079
   7 C     6.0000    0    12.011    7.392837    3.811521   -0.064436
   8 C     6.0000    0    12.011    6.869650   -0.853100    0.060573
   9 C     6.0000    0    12.011    9.535675    3.553050   -1.572772
  10 H     1.0000    0     1.008    6.760679    5.692942    0.452434
  11 C     6.0000    0    12.011    9.274918   -0.998373   -1.395820
  12 H     1.0000    0     1.008    6.914633   -2.180251    1.642769
  13 C     6.0000    0    12.011   10.475708    1.123508   -2.227617
  14 H     1.0000    0     1.008   10.524828    5.216931   -2.250299
  15 O     8.0000    0    15.999   12.587783    0.837459   -3.665774
  16 H     1.0000    0     1.008   13.308287    2.458473   -4.089460
  17 O     8.0000    0    15.999   10.026671   -3.385596   -1.976158
  18 C     6.0000    0    12.011   12.401983   -4.157596   -0.891321
  19 H     1.0000    0     1.008   12.306394   -4.023565    1.166692
  20 H     1.0000    0     1.008   12.669283   -6.116507   -1.451741
  21 H     1.0000    0     1.008   13.941732   -2.996569   -1.612382
  22 C     6.0000    0    12.011   -5.315656    1.283564    2.383871
  23 H     1.0000    0     1.008   -4.833814    0.578508    4.252368
  24 C     6.0000    0    12.011   -3.941931    3.167378    1.381280
  25 H     1.0000    0     1.008   -4.351975    3.944325   -0.474004
  26 C     6.0000    0    12.011   -1.800837    4.373437    2.672730
  27 O     8.0000    0    15.999   -0.753109    6.206547    1.735987
  28 C     6.0000    0    12.011   -7.472455    0.011027    1.203610
  29 C     6.0000    0    12.011   -8.592524   -2.022003    2.461272
  30 C     6.0000    0    12.011   -8.464505    0.741389   -1.143904
  31 C     6.0000    0    12.011  -10.625248   -3.311033    1.411134
  32 H     1.0000    0     1.008   -7.856223   -2.615935    4.281698
  33 C     6.0000    0    12.011  -10.485869   -0.524953   -2.201533
  34 H     1.0000    0     1.008   -7.676147    2.312709   -2.198989
  35 C     6.0000    0    12.011  -11.580640   -2.580618   -0.925359
  36 H     1.0000    0     1.008  -11.470273   -4.902484    2.394703
  37 O     8.0000    0    15.999  -13.541660   -3.765602   -2.080804
  38 H     1.0000    0     1.008  -14.153678   -5.142211   -1.051355
  39 O     8.0000    0    15.999  -11.367192    0.169990   -4.543019
  40 C     6.0000    0    12.011  -13.684883    1.569102   -4.443629
  41 H     1.0000    0     1.008  -13.407443    3.332976   -3.402652
  42 H     1.0000    0     1.008  -14.198952    1.986168   -6.390661
  43 H     1.0000    0     1.008  -15.177158    0.455802   -3.554048
  44 C     6.0000    0    12.011   -0.872895    3.315504    5.193311
  45 H     1.0000    0     1.008   -2.421189    3.243783    6.553943
  46 H     1.0000    0     1.008    0.561646    4.612256    5.913004
  47 O     8.0000    0    15.999    4.003668   -4.115355   -1.137230
  48 O     8.0000    0    15.999    4.114848   -0.798742   -3.497137
  49 N     7.0000    0    14.007    4.784719   -2.030006   -1.682227

--------------------------------
INTERNAL COORDINATES (ANGSTROEM)
--------------------------------
 C      0   0   0     0.000000000000     0.00000000     0.00000000
 H      1   0   0     1.086590212428     0.00000000     0.00000000
 C      1   2   0     1.353020331141   119.51076177     0.00000000
 H      3   1   2     1.086344220867   122.22574033   182.17503894
 C      3   1   2     1.469300947329   123.77538783     0.49784064
 O      5   3   1     1.222188951618   120.19473541   188.24301424
 C      1   2   3     1.437119726574   114.87659696   179.73488465
 C      7   1   2     1.382076634649   120.54611314     2.94206980
 C      7   1   2     1.496833797227   120.15665777   184.54259549
 C      8   7   1     1.393419054893   122.16525362   179.60796286
 H      8   7   1     1.085332495071   118.80560448     0.09703831
 C      9   7   1     1.489941533985   115.57349767   184.51576305
 H      9   7   1     1.093067595286   113.16846197   312.84355518
 C     12   9   7     1.363200202533   121.51514955   352.69856004
 H     10   8   7     1.085260616689   120.13907994   179.10634085
 O     14  12   9     1.360611409435   118.15567056   183.60221702
 H     16  14  12     0.965124576165   110.82827309   182.15465235
 O     12   9   7     1.359559179963   114.50322741   177.66087002
 C     18  12   9     1.440972291263   115.38343111   242.78674990
 H     19  18  12     1.092532769965   109.77520163    58.51199230
 H     19  18  12     1.087436716155   105.96637322   177.09290083
 H     19  18  12     1.089480511566   110.66905397   296.51345800
 C      5   3   1     3.251531073291   120.48173776    86.91018151
 H     23   5   3     1.087141487184    50.85826768   151.76125675
 C     23   5   3     1.343011746070    75.87537859   300.23550829
 H     25  23   5     1.086278821353   121.99567998   152.63614190
 C     25  23   5     1.469046303260   123.79096688   331.90383169
 O     27  25  23     1.222332248681   120.39442573   185.63240714
 C     23   5   3     1.464984877101   146.58353508    77.26418735
 C     29  23   5     1.397015594684   118.77830136    51.51081942
 C     29  23   5     1.402909954695   122.84739979   231.64219387
 C     30  29  23     1.389667265408   121.05827419   180.70665211
 H     30  29  23     1.085631998683   119.56405162     0.23154997
 C     31  29  23     1.380748295921   121.00470315   179.37996625
 H     31  29  23     1.084975998232   121.52814060   359.53561798
 C     32  30  29     1.390586900595   120.03552567   359.86146033
 H     32  30  29     1.086321406467   120.50153094   179.33566170
 O     36  32  30     1.357918667757   123.35593650   179.25170614
 H     38  36  32     0.965568368360   110.52887981     0.37603815
 O     34  31  29     1.374051427932   119.90548076   182.27230446
 C     40  34  31     1.433580142465   113.29839155   255.44686745
 H     41  40  34     1.093728384541   110.14430766    61.79451159
 H     41  40  34     1.088246973616   106.49099677   180.69666515
 H     41  40  34     1.091911549481   110.84813900   299.94611940
 C      5   3   1     1.525541534137   119.49669055     8.76134580
 H     45   5   3     1.091398447002   107.40518396   184.62098016
 H     45   5   3     1.091880078967   110.05373353   302.29061412
 O     13   9   7     2.363398949346    77.72544799   120.77014773
 O     48  13   9     2.154826471856    89.42945813   352.50534649
 N     48  13   9     1.213160008390    62.08224655   353.97153221

---------------------------
INTERNAL COORDINATES (A.U.)
---------------------------
 C      0   0   0     0.000000000000     0.00000000     0.00000000
 H      1   0   0     2.053357921289     0.00000000     0.00000000
 C      1   2   0     2.556837879485   119.51076177     0.00000000
 H      3   1   2     2.052893064607   122.22574033   182.17503894
 C      3   1   2     2.776576398762   123.77538783     0.49784064
 O      5   3   1     2.309602402462   120.19473541   188.24301424
 C      1   2   3     2.715762704880   114.87659696   179.73488465
 C      7   1   2     2.611746335578   120.54611314     2.94206980
 C      7   1   2     2.828605944757   120.15665777   184.54259549
 C      8   7   1     2.633180403535   122.16525362   179.60796286
 H      8   7   1     2.050981179930   118.80560448     0.09703831
 C      9   7   1     2.815581454786   115.57349767   184.51576305
 H      9   7   1     2.065598400954   113.16846197   312.84355518
 C     12   9   7     2.576075048493   121.51514955   352.69856004
 H     10   8   7     2.050845349473   120.13907994   179.10634085
 O     14  12   9     2.571182938521   118.15567056   183.60221702
 H     16  14  12     1.823821134068   110.82827309   182.15465235
 O     12   9   7     2.569194512988   114.50322741   177.66087002
 C     18  12   9     2.723042997056   115.38343111   242.78674990
 H     19  18  12     2.064587727569   109.77520163    58.51199230
 H     19  18  12     2.054957581505   105.96637322   177.09290083
 H     19  18  12     2.058819795104   110.66905397   296.51345800
 C      5   3   1     6.144503244455   120.48173776    86.91018151
 H     23   5   3     2.054399679601    50.85826768   151.76125675
 C     23   5   3     2.537924394711    75.87537859   300.23550829
 H     25  23   5     2.052769477437   121.99567998   152.63614190
 C     25  23   5     2.776095191210   123.79096688   331.90383169
 O     27  25  23     2.309873194667   120.39442573   185.63240714
 C     23   5   3     2.768420208057   146.58353508    77.26418735
 C     29  23   5     2.639976878770   118.77830136    51.51081942
 C     29  23   5     2.651115604925   122.84739979   231.64219387
 C     30  29  23     2.626090548897   121.05827419   180.70665211
 H     30  29  23     2.051547159733   119.56405162     0.23154997
 C     31  29  23     2.609236139170   121.00470315   179.37996625
 H     31  29  23     2.050307498536   121.52814060   359.53561798
 C     32  30  29     2.627828407543   120.03552567   359.86146033
 H     32  30  29     2.052849951638   120.50153094   179.33566170
 O     36  32  30     2.566094394200   123.35593650   179.25170614
 H     38  36  32     1.824659779777   110.52887981     0.37603815
 O     34  31  29     2.596580892714   119.90548076   182.27230446
 C     40  34  31     2.709073860287   113.29839155   255.44686745
 H     41  40  34     2.066847111678   110.14430766    61.79451159
 H     41  40  34     2.056488746203   106.49099677   180.69666515
 H     41  40  34     2.063413790984   110.84813900   299.94611940
 C      5   3   1     2.882855705442   119.49669055     8.76134580
 H     45   5   3     2.062444167820   107.40518396   184.62098016
 H     45   5   3     2.063354320332   110.05373353   302.29061412
 O     13   9   7     4.466176759461    77.72544799   120.77014773
 O     48  13   9     4.072031897932    89.42945813   352.50534649
 N     48  13   9     2.292540172483    62.08224655   353.97153221

---------------------
BASIS SET INFORMATION
---------------------
There are 4 groups of distinct atoms

 Group   1 Type C   : 12s6p1d contracted to 5s4p1d pattern {63111/3111/1}
 Group   2 Type H   : 5s contracted to 3s pattern {311}
 Group   3 Type O   : 12s6p1d contracted to 5s4p1d pattern {63111/3111/1}
 Group   4 Type N   : 12s6p1d contracted to 5s4p1d pattern {63111/3111/1}

Atom   0C    basis set group =>   1
Atom   1H    basis set group =>   2
Atom   2C    basis set group =>   1
Atom   3H    basis set group =>   2
Atom   4C    basis set group =>   1
Atom   5O    basis set group =>   3
Atom   6C    basis set group =>   1
Atom   7C    basis set group =>   1
Atom   8C    basis set group =>   1
Atom   9C    basis set group =>   1
Atom  10H    basis set group =>   2
Atom  11C    basis set group =>   1
Atom  12H    basis set group =>   2
Atom  13C    basis set group =>   1
Atom  14H    basis set group =>   2
Atom  15O    basis set group =>   3
Atom  16H    basis set group =>   2
Atom  17O    basis set group =>   3
Atom  18C    basis set group =>   1
Atom  19H    basis set group =>   2
Atom  20H    basis set group =>   2
Atom  21H    basis set group =>   2
Atom  22C    basis set group =>   1
Atom  23H    basis set group =>   2
Atom  24C    basis set group =>   1
Atom  25H    basis set group =>   2
Atom  26C    basis set group =>   1
Atom  27O    basis set group =>   3
Atom  28C    basis set group =>   1
Atom  29C    basis set group =>   1
Atom  30C    basis set group =>   1
Atom  31C    basis set group =>   1
Atom  32H    basis set group =>   2
Atom  33C    basis set group =>   1
Atom  34H    basis set group =>   2
Atom  35C    basis set group =>   1
Atom  36H    basis set group =>   2
Atom  37O    basis set group =>   3
Atom  38H    basis set group =>   2
Atom  39O    basis set group =>   3
Atom  40C    basis set group =>   1
Atom  41H    basis set group =>   2
Atom  42H    basis set group =>   2
Atom  43H    basis set group =>   2
Atom  44C    basis set group =>   1
Atom  45H    basis set group =>   2
Atom  46H    basis set group =>   2
Atom  47O    basis set group =>   3
Atom  48O    basis set group =>   3
Atom  49N    basis set group =>   4
---------------------------------
AUXILIARY/J BASIS SET INFORMATION
---------------------------------
There are 4 groups of distinct atoms

 Group   1 Type C   : 12s5p4d2f1g contracted to 6s4p3d1f1g pattern {711111/2111/211/2/1}
 Group   2 Type H   : 5s2p1d contracted to 3s1p1d pattern {311/2/1}
 Group   3 Type O   : 12s5p4d2f1g contracted to 6s4p3d1f1g pattern {711111/2111/211/2/1}
 Group   4 Type N   : 12s5p4d2f1g contracted to 6s4p3d1f1g pattern {711111/2111/211/2/1}

Atom   0C    basis set group =>   1
Atom   1H    basis set group =>   2
Atom   2C    basis set group =>   1
Atom   3H    basis set group =>   2
Atom   4C    basis set group =>   1
Atom   5O    basis set group =>   3
Atom   6C    basis set group =>   1
Atom   7C    basis set group =>   1
Atom   8C    basis set group =>   1
Atom   9C    basis set group =>   1
Atom  10H    basis set group =>   2
Atom  11C    basis set group =>   1
Atom  12H    basis set group =>   2
Atom  13C    basis set group =>   1
Atom  14H    basis set group =>   2
Atom  15O    basis set group =>   3
Atom  16H    basis set group =>   2
Atom  17O    basis set group =>   3
Atom  18C    basis set group =>   1
Atom  19H    basis set group =>   2
Atom  20H    basis set group =>   2
Atom  21H    basis set group =>   2
Atom  22C    basis set group =>   1
Atom  23H    basis set group =>   2
Atom  24C    basis set group =>   1
Atom  25H    basis set group =>   2
Atom  26C    basis set group =>   1
Atom  27O    basis set group =>   3
Atom  28C    basis set group =>   1
Atom  29C    basis set group =>   1
Atom  30C    basis set group =>   1
Atom  31C    basis set group =>   1
Atom  32H    basis set group =>   2
Atom  33C    basis set group =>   1
Atom  34H    basis set group =>   2
Atom  35C    basis set group =>   1
Atom  36H    basis set group =>   2
Atom  37O    basis set group =>   3
Atom  38H    basis set group =>   2
Atom  39O    basis set group =>   3
Atom  40C    basis set group =>   1
Atom  41H    basis set group =>   2
Atom  42H    basis set group =>   2
Atom  43H    basis set group =>   2
Atom  44C    basis set group =>   1
Atom  45H    basis set group =>   2
Atom  46H    basis set group =>   2
Atom  47O    basis set group =>   3
Atom  48O    basis set group =>   3
Atom  49N    basis set group =>   4
------------------------------------------------------------------------------
                           ORCA GTO INTEGRAL CALCULATION
                           -- RI-GTO INTEGRALS CHOSEN --
------------------------------------------------------------------------------
------------------------------------------------------------------------------
                   ___                                                        
                  /   \      - P O W E R E D   B Y -                         
                 /     \                                                     
                 |  |  |   _    _      __       _____    __    __             
                 |  |  |  | |  | |    /  \     |  _  \  |  |  /  |          
                  \  \/   | |  | |   /    \    | | | |  |  | /  /          
                 / \  \   | |__| |  /  /\  \   | |_| |  |  |/  /          
                |  |  |   |  __  | /  /__\  \  |    /   |      \           
                |  |  |   | |  | | |   __   |  |    \   |  |\   \          
                \     /   | |  | | |  |  |  |  | |\  \  |  | \   \       
                 \___/    |_|  |_| |__|  |__|  |_| \__\ |__|  \__/        
                                                                              
                      - O R C A' S   B I G   F R I E N D -                    
                                      &                                       
                       - I N T E G R A L  F E E D E R -                       
                                                                              
 v1 FN, 2020, v2 2021                                                         
------------------------------------------------------------------------------


Reading SHARK input file CURCUMIN-OPT-FREQ-Reag-1-wB97XM-V-6-311+G-D-298-cont.SHARKINP.tmp ... ok
----------------------
SHARK INTEGRAL PACKAGE
----------------------

Number of atoms                             ...     50
Number of basis functions                   ...    720
Number of shells                            ...    360
Maximum angular momentum                    ...      2
Integral batch strategy                     ... SHARK/LIBINT Hybrid
RI-J (if used) integral strategy            ... SPLIT-RIJ (Revised 2003 algorithm where possible)
Printlevel                                  ...      1
Contraction scheme used                     ... SEGMENTED contraction
Coulomb Range Separation                    ... NOT USED
Exchange Range Separation                   ... Long Range
   Mu parameter                             ...  0.300000
   Scaling (regular/separated)              ...  0.150000  0.850000
Finite Nucleus Model                        ... NOT USED
Auxiliary Coulomb fitting basis             ... AVAILABLE
   # of basis functions in Aux-J            ...   1690
   # of shells in Aux-J                     ...    550
   Maximum angular momentum in Aux-J        ...      4
Auxiliary J/K fitting basis                 ... NOT available
Auxiliary Correlation fitting basis         ... NOT available
Auxiliary 'external' fitting basis          ... NOT available
Integral threshold                          ...     2.500000e-11
Primitive cut-off                           ...     2.500000e-12
Primitive pair pre-selection threshold      ...     2.500000e-12

Calculating pre-screening integrals         ... done (  0.1 sec) Dimension = 360
Organizing shell pair data                  ... done (  0.4 sec)
Shell pair information
Total number of shell pairs                 ...     64980
Shell pairs after pre-screening             ...     41587
Total number of primitive shell pairs       ...    225475
Primitive shell pairs kept                  ...     90970
          la=0 lb=0:  13283 shell pairs
          la=1 lb=0:  17102 shell pairs
          la=1 lb=1:   5420 shell pairs
          la=2 lb=0:   3331 shell pairs
          la=2 lb=1:   2235 shell pairs
          la=2 lb=2:    216 shell pairs

Calculating one electron integrals          ... done (  0.2 sec)
Calculating RI/J V-Matrix + Cholesky decomp.... done (  0.5 sec)
Calculating Nuclear repulsion               ... done (  0.0 sec) ENN=   2752.199416545116 Eh

SHARK setup successfully completed in   1.7 seconds

Maximum memory used throughout the entire GTOINT-calculation: 197.3 MB
-------------------------------------------------------------------------------
                                 ORCA SCF
-------------------------------------------------------------------------------

------------
SCF SETTINGS
------------
Hamiltonian:
 Density Functional     Method          .... DFT(GTOs)
  Functional kind                       .... Exchange-Correlation
  Functional name                       .... wB97M-V exchange-correlation functional
  Functional family                     .... Hybrid MGGA
  Functional refs                              
    [ 0] N. Mardirossian and M. Head-Gordon, J. Chem. Phys. 144, 214110 (2016)
  Fraction of HF Exchange (short range) .... 0.1500
  Fraction of HF Exchange (long range)  .... 1.0000
  Range separation parameter mu         .... 0.3000
  Functional external parameters         .... 0
   Density functional embedding theory  .... OFF
 Long-range corrected/Screened/Range-Separated Hybrid DFT is turned on
   Amount of maximum screened exact exchange              ....  0.850000
   Range separation parameter mu (erf(mu*r12)/r12)        ....  0.300000
   NL short-range parameter             ....  6.000000
   NL long-range parameter              ....  0.010000
 RI-approximation to the Coulomb term is turned on
   Number of AuxJ basis functions       .... 1690
   RIJ-ON(X) (HFX calculated with O(N)) .... on


General Settings:
 Integral files         IntName         .... CURCUMIN-OPT-FREQ-Reag-1-wB97XM-V-6-311+G-D-298-cont
 Hartree-Fock type      HFTyp           .... UHF
 Total Charge           Charge          ....    0
 Multiplicity           Mult            ....    2
 Number of Electrons    NEL             ....  217
 Basis Dimension        Dim             ....  720
 Nuclear Repulsion      ENuc            ....   2752.1994165451 Eh

Convergence Acceleration:
 DIIS                   CNVDIIS         .... on
   Start iteration      DIISMaxIt       ....    12
   Startup error        DIISStart       ....  0.200000
   # of expansion vecs  DIISMaxEq       ....     5
   Bias factor          DIISBfac        ....   1.050
   Max. coefficient     DIISMaxC        ....  10.000
 Trust-Rad. Augm. Hess. CNVTRAH         .... off
 SOSCF                  CNVSOSCF        .... off
 Level Shifting         CNVShift        .... on
   Level shift para.    LevelShift      ....    0.2500
   Turn off err/grad.   ShiftErr        ....    0.0010
 Zerner damping         CNVZerner       .... off
 Static damping         CNVDamp         .... on
   Fraction old density DampFac         ....    0.7000
   Max. Damping (<1)    DampMax         ....    0.9800
   Min. Damping (>=0)   DampMin         ....    0.0000
   Turn off err/grad.   DampErr         ....    0.1000
 Fernandez-Rico         CNVRico         .... off

SCF Procedure:
 Maximum # iterations   MaxIter         ....   125
 SCF integral mode      SCFMode         .... Direct
   Integral package                     .... SHARK and LIBINT hybrid scheme
 Reset frequency        DirectResetFreq ....    20
 Integral Threshold     Thresh          ....  2.500e-11 Eh
 Primitive CutOff       TCut            ....  2.500e-12 Eh

Convergence Tolerance:
 Convergence Check Mode ConvCheckMode   .... Total+1el-Energy
 Convergence forced     ConvForced      .... 0
 Energy Change          TolE            ....  1.000e-08 Eh
 1-El. energy change                    ....  1.000e-05 Eh
 DIIS Error             TolErr          ....  5.000e-07


Diagonalization of the overlap matrix:
Smallest eigenvalue                        ... 2.504e-07
Time for diagonalization                   ...    0.046 sec
Threshold for overlap eigenvalues          ... 1.000e-08
Number of eigenvalues below threshold      ... 0
Time for construction of square roots      ...    0.064 sec
Total time needed                          ...    0.111 sec

Time for model grid setup =    1.227 sec

------------------------------
INITIAL GUESS: MODEL POTENTIAL
------------------------------
Loading Hartree-Fock densities                     ... done
Calculating cut-offs                               ... done
Initializing the effective Hamiltonian             ... done
Setting up the integral package (SHARK)            ... done
Starting the Coulomb interaction                   ... done (   1.9 sec)
Reading the grid                                   ... done
Mapping shells                                     ... done
Starting the XC term evaluation                    ... done (   1.3 sec)
  promolecular density results
     # of electrons  =    217.004966790
     EX              =   -185.084231754
     EC              =     -7.323216011
     EX+EC           =   -192.407447765
Transforming the Hamiltonian                       ... done (   0.0 sec)
Diagonalizing the Hamiltonian                      ... done (   0.0 sec)
Back transforming the eigenvectors                 ... done (   0.0 sec)
Now organizing SCF variables                       ... done
                      ------------------
                      INITIAL GUESS DONE (   4.5 sec)
                      ------------------
-------------------
DFT GRID GENERATION
-------------------

General Integration Accuracy     IntAcc      ... 4.388
Radial Grid Type                 RadialGrid  ... OptM3 with GC (2021)
Angular Grid (max. ang.)         AngularGrid ... 4 (Lebedev-302)
Angular grid pruning method      GridPruning ... 4 (adaptive)
Weight generation scheme         WeightScheme... Becke
Basis function cutoff            BFCut       ... 1.0000e-11
Integration weight cutoff        WCut        ... 1.0000e-14
Angular grids for H and He will be reduced by one unit
Partially contracted basis set               ... off
Rotationally invariant grid construction     ... off

Total number of grid points                  ...   251108
Total number of batches                      ...     3953
Average number of points per batch           ...       63
Average number of grid points per atom       ...     5022

------------------
NL GRID GENERATION
------------------

General Integration Accuracy     IntAcc      ... 4.004
Radial Grid Type                 RadialGrid  ... OptM3 with GC (2021)
Angular Grid (max. ang.)         AngularGrid ... 2 (Lebedev-110)
Angular grid pruning method      GridPruning ... 4 (adaptive)
Weight generation scheme         WeightScheme... Becke
Basis function cutoff            BFCut       ... 1.0000e-10
Integration weight cutoff        WCut        ... 1.0000e-14
Angular grids for H and He will be reduced by one unit
Partially contracted basis set               ... off
Rotationally invariant grid construction     ... off

Total number of grid points                  ...    83398
Total number of batches                      ...     1327
Average number of points per batch           ...       62
Average number of grid points per atom       ...     1668
Time for grid setup =    5.096 sec


--------------------
CPCM SOLVATION MODEL
--------------------
CPCM parameters:
  Epsilon                                         ...       7.0000
  Refrac                                          ...       1.8534
  Rsolv                                           ...       1.3000
  Surface type                                    ... GAUSSIAN VDW
  Epsilon function type                           ...         CPCM
Radii:
 Radius for C  used is    3.8550 Bohr (=   2.0400 Ang.)
 Radius for H  used is    2.4944 Bohr (=   1.3200 Ang.)
 Radius for O  used is    3.4469 Bohr (=   1.8240 Ang.)
 Radius for N  used is    3.5149 Bohr (=   1.8600 Ang.)
Calculating surface                               ...        done! (  0.0s)
GEPOL surface points                              ...         2649
GEPOL Volume                                      ...    3177.1825
GEPOL Surface-area                                ...    1628.6209
Calculating surface distance matrix               ...        done! (  0.0s)
Performing Cholesky decomposition & store         ...        done! (  0.6s)
Overall time for CPCM initialization              ...                 0.7s
--------------
SCF ITERATIONS
--------------
ITER       Energy         Delta-E        Max-DP      RMS-DP      [F,P]     Damp
               ***  Starting incremental Fock matrix formation  ***
  0  -1467.8017190347   0.000000000000 4.37801844  0.01527517  0.1461721 0.7000
  1  -1468.1014686097  -0.299749575041 2.04770993  0.00823456  0.0699160 0.7000
                               ***Turning on DIIS***
  2  -1468.2459075839  -0.144438974171 3.18954654  0.01961696  0.0264289 0.0000
  3  -1468.4987228839  -0.252815299992 2.86981213  0.01058693  0.0351018 0.0000
  4  -1468.5312083509  -0.032485467039 0.69905406  0.00370250  0.0061408 0.0000
  5  -1468.5342499568  -0.003041605913 0.78619024  0.00425827  0.0028914 0.0000
  6  -1468.5355018197  -0.001251862837 1.36046987  0.00641928  0.0023999 0.0000
  7  -1468.5364466775  -0.000944857844 2.22036004  0.00621342  0.0018523 0.0000
  8  -1468.5370912080  -0.000644530535 1.07012146  0.00301680  0.0012393 0.0000
  9  -1468.5374154726  -0.000324264595 2.92677392  0.00782368  0.0008901 0.0000
 10  -1468.5376477164  -0.000232243716 0.70487995  0.00270267  0.0004588 0.0000
 11  -1468.5376936139  -0.000045897561 1.06619524  0.00335701  0.0003722 0.0000
 12  -1468.5377171653  -0.000023551361 1.67522515  0.00659294  0.0001995 0.0000
 13  -1468.5377289145  -0.000011749269 0.96975583  0.00462863  0.0001588 0.0000
 14  -1468.5377342166  -0.000005302011 1.07633737  0.00464755  0.0001400 0.0000
 15  -1468.5377369090  -0.000002692462 1.13274222  0.00417715  0.0000887 0.0000
 16  -1468.5377383075  -0.000001398465 1.30828580  0.00528651  0.0000648 0.0000
 17  -1468.5377391362  -0.000000828702 1.15092404  0.00370296  0.0000380 0.0000
 18  -1468.5377391905  -0.000000054340 2.09557290  0.00684431  0.0000257 0.0000
 19  -1468.5377392312  -0.000000040669 1.23374525  0.00418596  0.0000131 0.0000
               *** Restarting incremental Fock matrix formation ***
                                   *** Resetting DIIS ***
 20  -1468.5377391766   0.000000054584 0.54026639  0.00223291  0.0000122 0.0000
 21  -1468.5377392437  -0.000000067064 0.47395574  0.00187227  0.0000191 0.0000
 22  -1468.5377392195   0.000000024170 0.91893239  0.00448042  0.0000070 0.0000
 23  -1468.5377392147   0.000000004792 0.75773468  0.00217978  0.0000035 0.0000
 24  -1468.5377391177   0.000000096963 1.09542294  0.00433673  0.0000017 0.0000
 25  -1468.5377389750   0.000000142729 0.59325220  0.00181146  0.0000011 0.0000
                            ***DIIS convergence achieved***

               *****************************************************
               *                     SUCCESS                       *
               *           SCF CONVERGED AFTER  26 CYCLES          *
               *****************************************************


----------------
TOTAL SCF ENERGY
----------------

Total Energy       :        -1468.53773893 Eh          -39960.94345 eV

Components:
Nuclear Repulsion  :         2752.19941655 Eh           74891.15352 eV
Electronic Energy  :        -4220.73715547 Eh         -114852.09697 eV
One Electron Energy:        -7474.06653566 Eh         -203379.69006 eV
Two Electron Energy:         3253.32938019 Eh           88527.59309 eV
CPCM Dielectric    :           -0.04915017 Eh              -1.33744 eV

Virial components:
Potential Energy   :        -2933.30612042 Eh          -79819.31747 eV
Kinetic Energy     :         1464.76838149 Eh           39858.37402 eV
Virial Ratio       :            2.00257335


DFT components:
N(Alpha)           :      109.000009453218 electrons
N(Beta)            :      108.000009324895 electrons
N(Total)           :      217.000018778113 electrons
NL Energy, E(C,NL) :        0.815813276560 Eh       
E(XC)              :     -139.477814914249 Eh       
DFET-embed. en.    :        0.000000000000 Eh       
CPCM Solvation Model Properties:
Surface-charge          :           -0.03724765
Charge-correction       :           -0.00002407 Eh              -0.00065 eV
Free-energy (cav+disp)  :  This term is not implemented in the current solvation scheme

---------------
SCF CONVERGENCE
---------------

  Last Energy change         ...    4.5730e-08  Tolerance :   1.0000e-08
  Last MAX-Density change    ...    3.2785e-01  Tolerance :   1.0000e-07
  Last RMS-Density change    ...    1.0882e-03  Tolerance :   5.0000e-09
  Last DIIS Error            ...    8.7279e-07  Tolerance :   5.0000e-07

             **** THE GBW FILE WAS UPDATED (CURCUMIN-OPT-FREQ-Reag-1-wB97XM-V-6-311+G-D-298-cont.gbw) ****
             **** DENSITY CURCUMIN-OPT-FREQ-Reag-1-wB97XM-V-6-311+G-D-298-cont.scfp WAS UPDATED ****
             **** ENERGY FILE WAS UPDATED (CURCUMIN-OPT-FREQ-Reag-1-wB97XM-V-6-311+G-D-298-cont.en.tmp) ****
----------------------
UHF SPIN CONTAMINATION
----------------------

Warning: in a DFT calculation there is little theoretical justification to 
         calculate <S**2> as in Hartree-Fock theory. We will do it anyways
         but you should keep in mind that the values have only limited relevance

Expectation value of <S**2>     :     0.820250
Ideal value S*(S+1) for S=0.5   :     0.750000
Deviation                       :     0.070250

             **** THE GBW FILE WAS UPDATED (CURCUMIN-OPT-FREQ-Reag-1-wB97XM-V-6-311+G-D-298-cont.gbw) ****
             **** DENSITY CURCUMIN-OPT-FREQ-Reag-1-wB97XM-V-6-311+G-D-298-cont.scfp WAS UPDATED ****
----------------
ORBITAL ENERGIES
----------------
                 SPIN UP ORBITALS
  NO   OCC          E(Eh)            E(eV) 
   0   1.0000     -19.389750      -527.6219 
   1   1.0000     -19.388196      -527.5796 
   2   1.0000     -19.380001      -527.3566 
   3   1.0000     -19.376255      -527.2547 
   4   1.0000     -19.372251      -527.1457 
   5   1.0000     -19.356916      -526.7285 
   6   1.0000     -19.338279      -526.2213 
   7   1.0000     -19.334889      -526.1291 
   8   1.0000     -14.761015      -401.6676 
   9   1.0000     -10.454771      -284.4888 
  10   1.0000     -10.452998      -284.4405 
  11   1.0000     -10.432379      -283.8795 
  12   1.0000     -10.432280      -283.8768 
  13   1.0000     -10.429325      -283.7964 
  14   1.0000     -10.426762      -283.7266 
  15   1.0000     -10.411006      -283.2979 
  16   1.0000     -10.393587      -282.8239 
  17   1.0000     -10.390714      -282.7457 
  18   1.0000     -10.384464      -282.5756 
  19   1.0000     -10.384185      -282.5680 
  20   1.0000     -10.383698      -282.5548 
  21   1.0000     -10.380196      -282.4595 
  22   1.0000     -10.376868      -282.3689 
  23   1.0000     -10.367576      -282.1161 
  24   1.0000     -10.366853      -282.0964 
  25   1.0000     -10.362835      -281.9871 
  26   1.0000     -10.361413      -281.9484 
  27   1.0000     -10.360970      -281.9363 
  28   1.0000     -10.358442      -281.8675 
  29   1.0000     -10.355470      -281.7867 
  30   1.0000      -1.390362       -37.8337 
  31   1.0000      -1.221899       -33.2496 
  32   1.0000      -1.214602       -33.0510 
  33   1.0000      -1.214240       -33.0411 
  34   1.0000      -1.198927       -32.6245 
  35   1.0000      -1.190758       -32.4022 
  36   1.0000      -1.186121       -32.2760 
  37   1.0000      -1.185443       -32.2576 
  38   1.0000      -1.026161       -27.9232 
  39   1.0000      -1.002714       -27.2852 
  40   1.0000      -0.957540       -26.0560 
  41   1.0000      -0.944626       -25.7046 
  42   1.0000      -0.938552       -25.5393 
  43   1.0000      -0.909627       -24.7522 
  44   1.0000      -0.889472       -24.2038 
  45   1.0000      -0.885707       -24.1013 
  46   1.0000      -0.862390       -23.4668 
  47   1.0000      -0.841717       -22.9043 
  48   1.0000      -0.820067       -22.3151 
  49   1.0000      -0.812793       -22.1172 
  50   1.0000      -0.785534       -21.3755 
  51   1.0000      -0.775110       -21.0918 
  52   1.0000      -0.754856       -20.5407 
  53   1.0000      -0.745623       -20.2894 
  54   1.0000      -0.722085       -19.6489 
  55   1.0000      -0.707398       -19.2493 
  56   1.0000      -0.699218       -19.0267 
  57   1.0000      -0.687981       -18.7209 
  58   1.0000      -0.675162       -18.3721 
  59   1.0000      -0.669769       -18.2253 
  60   1.0000      -0.666517       -18.1369 
  61   1.0000      -0.651500       -17.7282 
  62   1.0000      -0.647892       -17.6300 
  63   1.0000      -0.637095       -17.3362 
  64   1.0000      -0.632883       -17.2216 
  65   1.0000      -0.628461       -17.1013 
  66   1.0000      -0.615477       -16.7480 
  67   1.0000      -0.605901       -16.4874 
  68   1.0000      -0.601400       -16.3649 
  69   1.0000      -0.588820       -16.0226 
  70   1.0000      -0.586973       -15.9723 
  71   1.0000      -0.579908       -15.7801 
  72   1.0000      -0.569259       -15.4903 
  73   1.0000      -0.568871       -15.4798 
  74   1.0000      -0.565330       -15.3834 
  75   1.0000      -0.561745       -15.2859 
  76   1.0000      -0.549909       -14.9638 
  77   1.0000      -0.547673       -14.9029 
  78   1.0000      -0.543770       -14.7967 
  79   1.0000      -0.538015       -14.6401 
  80   1.0000      -0.531923       -14.4744 
  81   1.0000      -0.529004       -14.3949 
  82   1.0000      -0.525240       -14.2925 
  83   1.0000      -0.519858       -14.1461 
  84   1.0000      -0.512363       -13.9421 
  85   1.0000      -0.507339       -13.8054 
  86   1.0000      -0.494179       -13.4473 
  87   1.0000      -0.490101       -13.3363 
  88   1.0000      -0.484752       -13.1908 
  89   1.0000      -0.484391       -13.1809 
  90   1.0000      -0.477065       -12.9816 
  91   1.0000      -0.475948       -12.9512 
  92   1.0000      -0.471018       -12.8171 
  93   1.0000      -0.470166       -12.7939 
  94   1.0000      -0.459260       -12.4971 
  95   1.0000      -0.446890       -12.1605 
  96   1.0000      -0.437416       -11.9027 
  97   1.0000      -0.432380       -11.7657 
  98   1.0000      -0.425331       -11.5738 
  99   1.0000      -0.409819       -11.1518 
 100   1.0000      -0.402220       -10.9450 
 101   1.0000      -0.396364       -10.7856 
 102   1.0000      -0.390057       -10.6140 
 103   1.0000      -0.384699       -10.4682 
 104   1.0000      -0.364235        -9.9113 
 105   1.0000      -0.350448        -9.5362 
 106   1.0000      -0.337345        -9.1796 
 107   1.0000      -0.309272        -8.4157 
 108   1.0000      -0.288881        -7.8608 
 109   0.0000      -0.012049        -0.3279 
 110   0.0000      -0.001951        -0.0531 
 111   0.0000       0.008572         0.2333 
 112   0.0000       0.031816         0.8658 
 113   0.0000       0.036205         0.9852 
 114   0.0000       0.042372         1.1530 
 115   0.0000       0.045333         1.2336 
 116   0.0000       0.048991         1.3331 
 117   0.0000       0.051112         1.3908 
 118   0.0000       0.051679         1.4063 
 119   0.0000       0.053629         1.4593 
 120   0.0000       0.060866         1.6562 
 121   0.0000       0.063105         1.7172 
 122   0.0000       0.065586         1.7847 
 123   0.0000       0.068382         1.8608 
 124   0.0000       0.071158         1.9363 
 125   0.0000       0.072639         1.9766 
 126   0.0000       0.074816         2.0358 
 127   0.0000       0.078777         2.1436 
 128   0.0000       0.080114         2.1800 
 129   0.0000       0.083924         2.2837 
 130   0.0000       0.087014         2.3678 
 131   0.0000       0.091284         2.4840 
 132   0.0000       0.092202         2.5089 
 133   0.0000       0.094971         2.5843 
 134   0.0000       0.098976         2.6933 
 135   0.0000       0.101808         2.7703 
 136   0.0000       0.103960         2.8289 
 137   0.0000       0.107330         2.9206 
 138   0.0000       0.112032         3.0485 
 139   0.0000       0.115960         3.1554 
 140   0.0000       0.117292         3.1917 
 141   0.0000       0.123310         3.3554 
 142   0.0000       0.124027         3.3749 
 143   0.0000       0.125308         3.4098 
 144   0.0000       0.129701         3.5293 
 145   0.0000       0.131146         3.5687 
 146   0.0000       0.133873         3.6429 
 147   0.0000       0.138683         3.7738 
 148   0.0000       0.140801         3.8314 
 149   0.0000       0.144567         3.9339 
 150   0.0000       0.147492         4.0135 
 151   0.0000       0.151269         4.1163 
 152   0.0000       0.155014         4.2182 
 153   0.0000       0.158775         4.3205 
 154   0.0000       0.162051         4.4096 
 155   0.0000       0.165746         4.5102 
 156   0.0000       0.169735         4.6187 
 157   0.0000       0.171926         4.6783 
 158   0.0000       0.173370         4.7176 
 159   0.0000       0.174243         4.7414 
 160   0.0000       0.180237         4.9045 
 161   0.0000       0.180493         4.9115 
 162   0.0000       0.183359         4.9894 
 163   0.0000       0.185383         5.0445 
 164   0.0000       0.188838         5.1385 
 165   0.0000       0.189657         5.1608 
 166   0.0000       0.192829         5.2471 
 167   0.0000       0.195577         5.3219 
 168   0.0000       0.198463         5.4005 
 169   0.0000       0.201085         5.4718 
 170   0.0000       0.202405         5.5077 
 171   0.0000       0.205390         5.5890 
 172   0.0000       0.205618         5.5952 
 173   0.0000       0.207610         5.6494 
 174   0.0000       0.210720         5.7340 
 175   0.0000       0.213993         5.8231 
 176   0.0000       0.216461         5.8902 
 177   0.0000       0.219923         5.9844 
 178   0.0000       0.220911         6.0113 
 179   0.0000       0.223693         6.0870 
 180   0.0000       0.228970         6.2306 
 181   0.0000       0.230255         6.2655 
 182   0.0000       0.231840         6.3087 
 183   0.0000       0.233374         6.3504 
 184   0.0000       0.236134         6.4255 
 185   0.0000       0.239951         6.5294 
 186   0.0000       0.242311         6.5936 
 187   0.0000       0.248223         6.7545 
 188   0.0000       0.251019         6.8306 
 189   0.0000       0.253704         6.9036 
 190   0.0000       0.255826         6.9614 
 191   0.0000       0.256359         6.9759 
 192   0.0000       0.258328         7.0295 
 193   0.0000       0.261374         7.1123 
 194   0.0000       0.262715         7.1488 
 195   0.0000       0.266519         7.2523 
 196   0.0000       0.269027         7.3206 
 197   0.0000       0.271596         7.3905 
 198   0.0000       0.273609         7.4453 
 199   0.0000       0.274243         7.4625 
 200   0.0000       0.277797         7.5592 
 201   0.0000       0.280184         7.6242 
 202   0.0000       0.281936         7.6719 
 203   0.0000       0.285294         7.7632 
 204   0.0000       0.286019         7.7830 
 205   0.0000       0.287564         7.8250 
 206   0.0000       0.292558         7.9609 
 207   0.0000       0.292927         7.9709 
 208   0.0000       0.297235         8.0882 
 209   0.0000       0.298496         8.1225 
 210   0.0000       0.300975         8.1900 
 211   0.0000       0.303127         8.2485 
 212   0.0000       0.305471         8.3123 
 213   0.0000       0.309411         8.4195 
 214   0.0000       0.313947         8.5429 
 215   0.0000       0.314627         8.5614 
 216   0.0000       0.318151         8.6573 
 217   0.0000       0.320679         8.7261 
 218   0.0000       0.326104         8.8737 
 219   0.0000       0.328873         8.9491 
 220   0.0000       0.332777         9.0553 
 221   0.0000       0.334832         9.1112 
 222   0.0000       0.337857         9.1936 
 223   0.0000       0.338253         9.2043 
 224   0.0000       0.339579         9.2404 
 225   0.0000       0.342423         9.3178 
 226   0.0000       0.344945         9.3864 
 227   0.0000       0.348693         9.4884 
 228   0.0000       0.349792         9.5183 
 229   0.0000       0.353008         9.6058 
 230   0.0000       0.354067         9.6347 
 231   0.0000       0.357647         9.7321 
 232   0.0000       0.358219         9.7476 
 233   0.0000       0.364431         9.9167 
 234   0.0000       0.366002         9.9594 
 235   0.0000       0.370105        10.0711 
 236   0.0000       0.371104        10.0983 
 237   0.0000       0.374306        10.1854 
 238   0.0000       0.376865        10.2550 
 239   0.0000       0.380038        10.3414 
 240   0.0000       0.381456        10.3799 
 241   0.0000       0.383149        10.4260 
 242   0.0000       0.388210        10.5637 
 243   0.0000       0.390403        10.6234 
 244   0.0000       0.393714        10.7135 
 245   0.0000       0.398128        10.8336 
 246   0.0000       0.400233        10.8909 
 247   0.0000       0.404398        11.0042 
 248   0.0000       0.406732        11.0678 
 249   0.0000       0.408328        11.1112 
 250   0.0000       0.411060        11.1855 
 251   0.0000       0.420654        11.4466 
 252   0.0000       0.422572        11.4988 
 253   0.0000       0.424686        11.5563 
 254   0.0000       0.427800        11.6410 
 255   0.0000       0.430189        11.7060 
 256   0.0000       0.432470        11.7681 
 257   0.0000       0.433985        11.8093 
 258   0.0000       0.438089        11.9210 
 259   0.0000       0.442715        12.0469 
 260   0.0000       0.445854        12.1323 
 261   0.0000       0.449940        12.2435 
 262   0.0000       0.453269        12.3341 
 263   0.0000       0.454808        12.3759 
 264   0.0000       0.460145        12.5212 
 265   0.0000       0.460610        12.5338 
 266   0.0000       0.464208        12.6317 
 267   0.0000       0.468949        12.7607 
[...]
 52:    589.18   0.002440   12.33  0.001292  ( 0.025486  0.023521 -0.009452)
 53:    606.14   0.011264   56.92  0.005799  ( 0.074036  0.015272 -0.009187)
 54:    612.97   0.001120    5.66  0.000570  ( 0.000075 -0.023259 -0.005400)
 55:    632.30   0.004465   22.57  0.002204  (-0.010837 -0.028029 -0.036067)
 56:    656.97   0.000660    3.34  0.000314  ( 0.010425 -0.014070 -0.002664)
 57:    716.93   0.002559   12.93  0.001114  (-0.014913  0.016226  0.025061)
 58:    723.05   0.005036   25.45  0.002173  (-0.005532  0.031897  0.033548)
 59:    753.22   0.001941    9.81  0.000804  ( 0.021868 -0.003788  0.017654)
 60:    754.75   0.001957    9.89  0.000809  (-0.023605  0.011861  0.010549)
 61:    771.93   0.001234    6.24  0.000499  (-0.005223 -0.000914  0.021695)
 62:    775.57   0.007240   36.59  0.002913  (-0.051717 -0.008545 -0.012861)
 63:    789.45   0.017804   89.97  0.007038  ( 0.065702 -0.002287  0.052113)
 64:    818.14   0.006012   30.38  0.002293  ( 0.035654  0.024902  0.020045)
 65:    833.06   0.013564   68.54  0.005081  (-0.040451  0.048233  0.033439)
 66:    847.83   0.010290   52.00  0.003787  ( 0.054358 -0.000989 -0.028837)
 67:    857.68   0.006623   33.47  0.002410  ( 0.000895 -0.007454  0.048511)
 68:    874.31   0.003469   17.53  0.001238  (-0.027068 -0.018582 -0.012655)
 69:    881.04   0.000464    2.35  0.000164  (-0.011241 -0.000967  0.006095)
 70:    883.75   0.002726   13.78  0.000963  ( 0.000002  0.027161 -0.014994)
 71:    917.04   0.001012    5.11  0.000344  (-0.005166  0.010465  0.014426)
 72:    924.34   0.000546    2.76  0.000184  ( 0.004087 -0.009900 -0.008351)
 73:    934.51   0.007553   38.17  0.002522  (-0.049655  0.006612  0.003592)
 74:    957.10   0.000476    2.41  0.000155  ( 0.011399  0.004745 -0.001653)
 75:    963.96   0.001151    5.81  0.000372  (-0.003590 -0.011509 -0.015071)
 76:    969.22   0.001214    6.14  0.000391  ( 0.015501 -0.007793 -0.009484)
 77:    986.89   0.015693   79.31  0.004962  (-0.065652 -0.016915  0.019130)
 78:   1005.51   0.026279  132.80  0.008156  (-0.079123 -0.004104 -0.043341)
 79:   1018.71   0.021587  109.09  0.006613  (-0.061770  0.039511  0.035160)
 80:   1037.41   0.035906  181.45  0.010801  ( 0.091761 -0.048411 -0.006089)
 81:   1055.58   0.024565  124.14  0.007262  ( 0.075173 -0.033920  0.021468)
 82:   1095.10   0.039531  199.78  0.011265  ( 0.073632  0.033815 -0.068555)
 83:   1108.33   0.038071  192.40  0.010719  ( 0.078942 -0.052274 -0.041894)
 84:   1137.92   0.037067  187.32  0.010165  ( 0.063243  0.074473 -0.024886)
 85:   1143.61   0.037010  187.03  0.010099  (-0.003569  0.067772  0.074118)
 86:   1173.13   0.001816    9.18  0.000483  (-0.017220  0.011801  0.006866)
 87:   1177.17   0.002137   10.80  0.000567  (-0.017720 -0.011909 -0.010524)
 88:   1186.30   0.006001   30.32  0.001579  (-0.009386 -0.038546  0.002142)
 89:   1201.77   0.008774   44.34  0.002278  ( 0.039854 -0.026155  0.002424)
 90:   1201.90   0.012741   64.39  0.003308  (-0.026776 -0.014608 -0.048762)
 91:   1219.46   0.089184  450.70  0.022822  ( 0.141407  0.051524 -0.013108)
 92:   1224.18   0.024318  122.89  0.006199  (-0.072636 -0.009671  0.028801)
 93:   1243.05   0.141634  715.76  0.035557  (-0.183063  0.044421 -0.008449)
 94:   1257.68   0.006374   32.21  0.001582  ( 0.025642  0.025985  0.015777)
 95:   1264.09   0.016482   83.30  0.004069  (-0.033496 -0.047888  0.025568)
 96:   1270.74   0.013866   70.07  0.003405  (-0.000134 -0.035358 -0.046420)
 97:   1273.47   0.010663   53.88  0.002613  ( 0.017015 -0.044627  0.018215)
 98:   1285.24   0.011339   57.30  0.002753  (-0.034618  0.006816 -0.038838)
 99:   1294.06   0.022110  111.74  0.005332  ( 0.071112  0.010516  0.012822)
100:   1302.93   0.049598  250.65  0.011879  ( 0.100769  0.029855  0.028871)
101:   1307.98   0.092495  467.43  0.022068  ( 0.125939 -0.078018 -0.010977)
102:   1312.36   0.007177   36.27  0.001707  (-0.032788  0.002308  0.025025)
103:   1319.59   0.093990  474.99  0.022227  ( 0.074324  0.064228  0.112152)
104:   1338.11   0.013512   68.28  0.003151  (-0.045751  0.013011  0.029812)
105:   1342.69   0.034220  172.93  0.007953  ( 0.065860 -0.021223 -0.056262)
106:   1357.39   0.024499  123.81  0.005632  ( 0.060450 -0.003797 -0.044312)
107:   1368.96   0.018717   94.59  0.004267  ( 0.049621  0.035903  0.022701)
108:   1380.39   0.012532   63.33  0.002833  ( 0.042118  0.005621  0.032055)
109:   1383.83   0.003047   15.40  0.000687  (-0.007101 -0.019255  0.016308)
110:   1433.68   0.017184   86.84  0.003740  (-0.011678  0.052704  0.028747)
111:   1452.94   0.026732  135.09  0.005741  (-0.042367 -0.047268 -0.041379)
112:   1464.68   0.002532   12.79  0.000539  (-0.012225 -0.003875 -0.019363)
113:   1470.62   0.003628   18.33  0.000770  (-0.003727  0.013538  0.023931)
114:   1478.46   0.005131   25.93  0.001083  ( 0.008094 -0.031894 -0.000466)
115:   1480.50   0.002575   13.01  0.000543  (-0.016116 -0.002882  0.016576)
116:   1483.76   0.002989   15.11  0.000629  ( 0.011528  0.021585 -0.005468)
117:   1493.41   0.009348   47.24  0.001953  (-0.029781  0.000571 -0.032653)
118:   1495.05   0.000704    3.56  0.000147  (-0.011821  0.001180  0.002411)
119:   1495.93   0.004201   21.23  0.000876  (-0.012018  0.021344  0.016621)
120:   1555.02   0.015816   79.93  0.003174  (-0.045231 -0.018722  0.027886)
121:   1557.21   0.075481  381.45  0.015126  (-0.094287 -0.040640 -0.067710)
122:   1635.41   0.154703  781.81  0.029520  (-0.135808  0.003622  0.105181)
123:   1637.71   0.122849  620.83  0.023409  (-0.019483  0.132435 -0.074095)
124:   1662.15   0.001468    7.42  0.000276  (-0.004898  0.014083 -0.007299)
125:   1663.92   0.016855   85.18  0.003161  ( 0.045184 -0.003999 -0.033219)
126:   1674.76   0.100622  508.50  0.018749  (-0.095777 -0.097826 -0.002487)
127:   1706.89   0.079113  399.80  0.014464  (-0.036502 -0.073945  0.087542)
128:   1712.10   0.290209  1466.60  0.052896  ( 0.154091  0.161298 -0.055995)
129:   1735.91   0.010842   54.79  0.001949  (-0.004296  0.026462  0.035076)
130:   3045.14   0.013365   67.54  0.001370  (-0.027301  0.024953 -0.001298)
131:   3059.73   0.013878   70.13  0.001415  ( 0.027821 -0.018091  0.017724)
132:   3090.95   0.000157    0.79  0.000016  ( 0.001059  0.002059  0.003236)
133:   3097.04   0.000072    0.36  0.000007  (-0.000580  0.001304 -0.002275)
134:   3120.81   0.008424   42.57  0.000842  ( 0.019521  0.020537  0.006287)
135:   3144.72   0.007273   36.75  0.000722  (-0.017006  0.004186  0.020371)
136:   3145.95   0.001935    9.78  0.000192  (-0.013727 -0.001818  0.000479)
137:   3165.67   0.007071   35.74  0.000697  ( 0.003878 -0.004298  0.025760)
138:   3180.20   0.004343   21.95  0.000426  (-0.001448 -0.019902 -0.005287)
139:   3181.44   0.001101    5.56  0.000108  (-0.009293 -0.001961 -0.004218)
140:   3183.01   0.001456    7.36  0.000143  ( 0.007283  0.009169  0.002376)
141:   3186.91   0.000718    3.63  0.000070  ( 0.005505 -0.002985  0.005575)
142:   3187.24   0.001206    6.09  0.000118  ( 0.006261  0.003905  0.007974)
143:   3191.73   0.000213    1.07  0.000021  (-0.002565 -0.003329  0.001766)
144:   3193.24   0.000794    4.01  0.000078  (-0.005534  0.004290  0.005345)
145:   3198.35   0.002218   11.21  0.000216  (-0.002102 -0.009142  0.011334)
146:   3205.60   0.001024    5.18  0.000100  (-0.001105 -0.009901 -0.000695)
147:   3206.08   0.000929    4.70  0.000090  ( 0.002837 -0.004275  0.008009)
148:   3798.32   0.044571  225.25  0.003662  ( 0.039323  0.045029 -0.009378)
149:   3798.48   0.032837  165.94  0.002698  (-0.034381 -0.031978  0.022204)

* The epsilon (eps) is given for a Dirac delta lineshape.
** The dipole moment derivative (T) already includes vibrational overlap.

The first frequency considered to be a vibration is 6
The total number of vibrations considered is 144


--------------------------
THERMOCHEMISTRY AT 298.15K
--------------------------

Temperature         ... 298.15 K
Pressure            ... 1.00 atm
Total Mass          ... 414.39 AMU

Throughout the following assumptions are being made:
  (1) The electronic state is orbitally nondegenerate
      but the spin degeneracy is treated
  (2) There are no thermally accessible electronically excited states
  (3) Hindered rotations indicated by low frequency modes are not
      treated as such but are treated as vibrations and this may
      cause some error
  (4) All equations used are the standard statistical mechanics
      equations for an ideal gas
  (5) All vibrations are strictly harmonic

freq.      10.04  E(vib)   ...       0.58 
freq.      21.90  E(vib)   ...       0.56 
freq.      24.18  E(vib)   ...       0.56 
freq.      30.41  E(vib)   ...       0.55 
freq.      39.96  E(vib)   ...       0.54 
freq.      45.04  E(vib)   ...       0.53 
freq.      51.89  E(vib)   ...       0.52 
freq.      61.42  E(vib)   ...       0.51 
freq.      64.87  E(vib)   ...       0.50 
freq.      71.72  E(vib)   ...       0.50 
freq.      80.07  E(vib)   ...       0.49 
freq.     100.72  E(vib)   ...       0.46 
freq.     115.81  E(vib)   ...       0.44 
freq.     125.79  E(vib)   ...       0.43 
freq.     135.06  E(vib)   ...       0.42 
freq.     144.42  E(vib)   ...       0.41 
freq.     155.11  E(vib)   ...       0.40 
freq.     159.69  E(vib)   ...       0.39 
freq.     171.70  E(vib)   ...       0.38 
freq.     176.79  E(vib)   ...       0.38 
freq.     198.26  E(vib)   ...       0.35 
freq.     224.17  E(vib)   ...       0.33 
freq.     234.51  E(vib)   ...       0.32 
freq.     241.67  E(vib)   ...       0.31 
freq.     264.67  E(vib)   ...       0.29 
freq.     288.94  E(vib)   ...       0.27 
freq.     303.76  E(vib)   ...       0.26 
freq.     312.80  E(vib)   ...       0.25 
freq.     317.05  E(vib)   ...       0.25 
freq.     318.65  E(vib)   ...       0.25 
freq.     341.98  E(vib)   ...       0.23 
freq.     376.93  E(vib)   ...       0.21 
freq.     388.64  E(vib)   ...       0.20 
freq.     389.72  E(vib)   ...       0.20 
freq.     401.67  E(vib)   ...       0.19 
freq.     425.05  E(vib)   ...       0.18 
freq.     434.33  E(vib)   ...       0.17 
freq.     449.16  E(vib)   ...       0.17 
freq.     456.81  E(vib)   ...       0.16 
freq.     474.64  E(vib)   ...       0.15 
freq.     499.55  E(vib)   ...       0.14 
freq.     526.01  E(vib)   ...       0.13 
freq.     535.96  E(vib)   ...       0.12 
freq.     555.01  E(vib)   ...       0.12 
freq.     574.94  E(vib)   ...       0.11 
freq.     581.42  E(vib)   ...       0.11 
freq.     589.18  E(vib)   ...       0.10 
freq.     606.14  E(vib)   ...       0.10 
freq.     612.97  E(vib)   ...       0.10 
freq.     632.30  E(vib)   ...       0.09 
freq.     656.97  E(vib)   ...       0.08 
freq.     716.93  E(vib)   ...       0.07 
freq.     723.05  E(vib)   ...       0.07 
freq.     753.22  E(vib)   ...       0.06 
freq.     754.75  E(vib)   ...       0.06 
freq.     771.93  E(vib)   ...       0.05 
freq.     775.57  E(vib)   ...       0.05 
freq.     789.45  E(vib)   ...       0.05 
freq.     818.14  E(vib)   ...       0.05 
freq.     833.06  E(vib)   ...       0.04 
freq.     847.83  E(vib)   ...       0.04 
freq.     857.68  E(vib)   ...       0.04 
freq.     874.31  E(vib)   ...       0.04 
freq.     881.04  E(vib)   ...       0.04 
freq.     883.75  E(vib)   ...       0.04 
freq.     917.04  E(vib)   ...       0.03 
freq.     924.34  E(vib)   ...       0.03 
freq.     934.51  E(vib)   ...       0.03 
freq.     957.10  E(vib)   ...       0.03 
freq.     963.96  E(vib)   ...       0.03 
freq.     969.22  E(vib)   ...       0.03 
freq.     986.89  E(vib)   ...       0.02 
freq.    1005.51  E(vib)   ...       0.02 
freq.    1018.71  E(vib)   ...       0.02 
freq.    1037.41  E(vib)   ...       0.02 
freq.    1055.58  E(vib)   ...       0.02 
freq.    1095.10  E(vib)   ...       0.02 
freq.    1108.33  E(vib)   ...       0.02 
freq.    1137.92  E(vib)   ...       0.01 
freq.    1143.61  E(vib)   ...       0.01 
freq.    1173.13  E(vib)   ...       0.01 
freq.    1177.17  E(vib)   ...       0.01 
freq.    1186.30  E(vib)   ...       0.01 
freq.    1201.77  E(vib)   ...       0.01 
freq.    1201.90  E(vib)   ...       0.01 
freq.    1219.46  E(vib)   ...       0.01 
freq.    1224.18  E(vib)   ...       0.01 
freq.    1243.05  E(vib)   ...       0.01 
freq.    1257.68  E(vib)   ...       0.01 
freq.    1264.09  E(vib)   ...       0.01 
freq.    1270.74  E(vib)   ...       0.01 
freq.    1273.47  E(vib)   ...       0.01 
freq.    1285.24  E(vib)   ...       0.01 
freq.    1294.06  E(vib)   ...       0.01 
freq.    1302.93  E(vib)   ...       0.01 
freq.    1307.98  E(vib)   ...       0.01 
freq.    1312.36  E(vib)   ...       0.01 
freq.    1319.59  E(vib)   ...       0.01 
freq.    1338.11  E(vib)   ...       0.01 
freq.    1342.69  E(vib)   ...       0.01 
freq.    1357.39  E(vib)   ...       0.01 
freq.    1368.96  E(vib)   ...       0.01 
freq.    1380.39  E(vib)   ...       0.01 
freq.    1383.83  E(vib)   ...       0.00 
freq.    1433.68  E(vib)   ...       0.00 
freq.    1452.94  E(vib)   ...       0.00 
freq.    1464.68  E(vib)   ...       0.00 
freq.    1470.62  E(vib)   ...       0.00 
freq.    1478.46  E(vib)   ...       0.00 
freq.    1480.50  E(vib)   ...       0.00 
freq.    1483.76  E(vib)   ...       0.00 
freq.    1493.41  E(vib)   ...       0.00 
freq.    1495.05  E(vib)   ...       0.00 
freq.    1495.93  E(vib)   ...       0.00 
freq.    1555.02  E(vib)   ...       0.00 
freq.    1557.21  E(vib)   ...       0.00 
freq.    1635.41  E(vib)   ...       0.00 
freq.    1637.71  E(vib)   ...       0.00 
freq.    1662.15  E(vib)   ...       0.00 
freq.    1663.92  E(vib)   ...       0.00 
freq.    1674.76  E(vib)   ...       0.00 
freq.    1706.89  E(vib)   ...       0.00 
freq.    1712.10  E(vib)   ...       0.00 
freq.    1735.91  E(vib)   ...       0.00 
freq.    3045.14  E(vib)   ...       0.00 
freq.    3059.73  E(vib)   ...       0.00 
freq.    3090.95  E(vib)   ...       0.00 
freq.    3097.04  E(vib)   ...       0.00 
freq.    3120.81  E(vib)   ...       0.00 
freq.    3144.72  E(vib)   ...       0.00 
freq.    3145.95  E(vib)   ...       0.00 
freq.    3165.67  E(vib)   ...       0.00 
freq.    3180.20  E(vib)   ...       0.00 
freq.    3181.44  E(vib)   ...       0.00 
freq.    3183.01  E(vib)   ...       0.00 
freq.    3186.91  E(vib)   ...       0.00 
freq.    3187.24  E(vib)   ...       0.00 
freq.    3191.73  E(vib)   ...       0.00 
freq.    3193.24  E(vib)   ...       0.00 
freq.    3198.35  E(vib)   ...       0.00 
freq.    3205.60  E(vib)   ...       0.00 
freq.    3206.08  E(vib)   ...       0.00 
freq.    3798.32  E(vib)   ...       0.00 
freq.    3798.48  E(vib)   ...       0.00 

------------
INNER ENERGY
------------

The inner energy is: U= E(el) + E(ZPE) + E(vib) + E(rot) + E(trans)
    E(el)   - is the total energy from the electronic structure calculation
              = E(kin-el) + E(nuc-el) + E(el-el) + E(nuc-nuc)
    E(ZPE)  - the the zero temperature vibrational energy from the frequency calculation
    E(vib)  - the the finite temperature correction to E(ZPE) due to population
              of excited vibrational states
    E(rot)  - is the rotational thermal energy
    E(trans)- is the translational thermal energy

Summary of contributions to the inner energy U:
Electronic energy                ...  -1468.53774277 Eh
Zero point energy                ...      0.38248976 Eh     240.02 kcal/mol
Thermal vibrational correction   ...      0.02672653 Eh      16.77 kcal/mol
Thermal rotational correction    ...      0.00141627 Eh       0.89 kcal/mol
Thermal translational correction ...      0.00141627 Eh       0.89 kcal/mol
-----------------------------------------------------------------------
Total thermal energy                  -1468.12569393 Eh


Summary of corrections to the electronic energy:
(perhaps to be used in another calculation)
Total thermal correction                  0.02955908 Eh      18.55 kcal/mol
Non-thermal (ZPE) correction              0.38248976 Eh     240.02 kcal/mol
-----------------------------------------------------------------------
Total correction                          0.41204884 Eh     258.56 kcal/mol


--------
ENTHALPY
--------

The enthalpy is H = U + kB*T
                kB is Boltzmann's constant
Total free energy                 ...  -1468.12569393 Eh 
Thermal Enthalpy correction       ...      0.00094421 Eh       0.59 kcal/mol
-----------------------------------------------------------------------
Total Enthalpy                    ...  -1468.12474972 Eh


Note: Only C1 symmetry has been detected, increase convergence thresholds 
      if your molecule has a higher symmetry. Symmetry factor of 1.0 is   
      used for the rotational entropy correction. 
 

Note: Rotational entropy computed according to Herzberg 
Infrared and Raman Spectra, Chapter V,1, Van Nostrand Reinhold, 1945 
Point Group:  C1, Symmetry Number:   1  
Rotational constants in cm-1:     0.009241     0.001925     0.001834 

Vibrational entropy computed according to the QRRHO of S. Grimme
Chem.Eur.J. 2012 18 9955


-------
ENTROPY
-------

The entropy contributions are T*S = T*(S(el)+S(vib)+S(rot)+S(trans))
     S(el)   - electronic entropy
     S(vib)  - vibrational entropy
     S(rot)  - rotational entropy
     S(trans)- translational entropy
The entropies will be listed as multiplied by the temperature to get
units of energy

Electronic entropy                ...      0.00065446 Eh      0.41 kcal/mol
Vibrational entropy               ...      0.04899152 Eh     30.74 kcal/mol
Rotational entropy                ...      0.01764878 Eh     11.07 kcal/mol
Translational entropy             ...      0.02088467 Eh     13.11 kcal/mol
-----------------------------------------------------------------------
Final entropy term                ...      0.08817943 Eh     55.33 kcal/mol

In case the symmetry of your molecule has not been determined correctly
or in case you have a reason to use a different symmetry number we print 
out the resulting rotational entropy values for sn=1,12 :
 --------------------------------------------------------
|  sn= 1 | S(rot)=       0.01764878 Eh     11.07 kcal/mol|
|  sn= 2 | S(rot)=       0.01699432 Eh     10.66 kcal/mol|
|  sn= 3 | S(rot)=       0.01661149 Eh     10.42 kcal/mol|
|  sn= 4 | S(rot)=       0.01633986 Eh     10.25 kcal/mol|
|  sn= 5 | S(rot)=       0.01612918 Eh     10.12 kcal/mol|
|  sn= 6 | S(rot)=       0.01595703 Eh     10.01 kcal/mol|
|  sn= 7 | S(rot)=       0.01581149 Eh      9.92 kcal/mol|
|  sn= 8 | S(rot)=       0.01568541 Eh      9.84 kcal/mol|
|  sn= 9 | S(rot)=       0.01557420 Eh      9.77 kcal/mol|
|  sn=10 | S(rot)=       0.01547472 Eh      9.71 kcal/mol|
|  sn=11 | S(rot)=       0.01538473 Eh      9.65 kcal/mol|
|  sn=12 | S(rot)=       0.01530258 Eh      9.60 kcal/mol|
 --------------------------------------------------------


-------------------
GIBBS FREE ENERGY
-------------------

The Gibbs free energy is G = H - T*S

Total enthalpy                    ...  -1468.12474972 Eh 
Total entropy correction          ...     -0.08817943 Eh    -55.33 kcal/mol
-----------------------------------------------------------------------
Final Gibbs free energy         ...  -1468.21292914 Eh

For completeness - the Gibbs free energy minus the electronic energy
G-E(el)                           ...      0.32481362 Eh    203.82 kcal/mol



Timings for individual modules:

Sum of individual times         ...   710738.514 sec (=11845.642 min)
GTO integral calculation        ...        5.350 sec (=   0.089 min)   0.0 %
SCF iterations                  ...     8636.538 sec (= 143.942 min)   1.2 %
SCF Gradient evaluation         ...     1161.909 sec (=  19.365 min)   0.2 %
Geometry relaxation             ...        0.098 sec (=   0.002 min)   0.0 %
Numerical frequency calculation ...   700934.619 sec (=11682.244 min)  98.6 %
                             ****ORCA TERMINATED NORMALLY****
TOTAL RUN TIME: 8 days 5 hours 5 minutes 6 seconds 69 msec
