
                                 *****************
                                 * O   R   C   A *
                                 *****************

                                            #,                                       
                                            ###                                      
                                            ####                                     
                                            #####                                    
                                            ######                                   
                                           ########,                                 
                                     ,,################,,,,,                         
                               ,,#################################,,                 
                          ,,##########################################,,             
                       ,#########################################, ''#####,          
                    ,#############################################,,   '####,        
                  ,##################################################,,,,####,       
                ,###########''''           ''''###############################       
              ,#####''   ,,,,##########,,,,          '''####'''          '####       
            ,##' ,,,,###########################,,,                        '##       
           ' ,,###''''                  '''############,,,                           
         ,,##''                                '''############,,,,        ,,,,,,###''
      ,#''                                            '''#######################'''  
     '                                                          ''''####''''         
             ,#######,   #######,   ,#######,      ##                                
            ,#'     '#,  ##    ##  ,#'     '#,    #''#        ######   ,####,        
            ##       ##  ##   ,#'  ##            #'  '#       #        #'  '#        
            ##       ##  #######   ##           ,######,      #####,   #    #        
            '#,     ,#'  ##    ##  '#,     ,#' ,#      #,         ##   #,  ,#        
             '#######'   ##     ##  '#######'  #'      '#     #####' # '####'        



                  #######################################################
                  #                        -***-                        #
                  #          Department of theory and spectroscopy      #
                  #    Directorship and core code : Frank Neese         #
                  #        Max Planck Institute fuer Kohlenforschung    #
                  #                Kaiser Wilhelm Platz 1               #
                  #                 D-45470 Muelheim/Ruhr               #
                  #                      Germany                        #
                  #                                                     #
                  #                  All rights reserved                #
                  #                        -***-                        #
                  #######################################################


                         Program Version 5.0.4 -  RELEASE  -


 With contributions from (in alphabetic order):
   Daniel Aravena         : Magnetic Suceptibility
   Michael Atanasov       : Ab Initio Ligand Field Theory (pilot matlab implementation)
   Alexander A. Auer      : GIAO ZORA, VPT2 properties, NMR spectrum
   Ute Becker             : Parallelization
   Giovanni Bistoni       : ED, misc. LED, open-shell LED, HFLD
   Martin Brehm           : Molecular dynamics
   Dmytro Bykov           : SCF Hessian
   Vijay G. Chilkuri      : MRCI spin determinant printing, contributions to CSF-ICE
   Dipayan Datta          : RHF DLPNO-CCSD density
   Achintya Kumar Dutta   : EOM-CC, STEOM-CC
   Dmitry Ganyushin       : Spin-Orbit,Spin-Spin,Magnetic field MRCI
   Miquel Garcia          : C-PCM and meta-GGA Hessian, CC/C-PCM, Gaussian charge scheme
   Yang Guo               : DLPNO-NEVPT2, F12-NEVPT2, CIM, IAO-localization
   Andreas Hansen         : Spin unrestricted coupled pair/coupled cluster methods
   Benjamin Helmich-Paris : MC-RPA, TRAH-SCF, COSX integrals
   Lee Huntington         : MR-EOM, pCC
   Robert Izsak           : Overlap fitted RIJCOSX, COSX-SCS-MP3, EOM
   Marcus Kettner         : VPT2
   Christian Kollmar      : KDIIS, OOCD, Brueckner-CCSD(T), CCSD density, CASPT2, CASPT2-K
   Simone Kossmann        : Meta GGA functionals, TD-DFT gradient, OOMP2, MP2 Hessian
   Martin Krupicka        : Initial AUTO-CI
   Lucas Lang             : DCDCAS
   Marvin Lechner         : AUTO-CI (C++ implementation), FIC-MRCC
   Dagmar Lenk            : GEPOL surface, SMD
   Dimitrios Liakos       : Extrapolation schemes; Compound Job, initial MDCI parallelization
   Dimitrios Manganas     : Further ROCIS development; embedding schemes
   Dimitrios Pantazis     : SARC Basis sets
   Anastasios Papadopoulos: AUTO-CI, single reference methods and gradients
   Taras Petrenko         : DFT Hessian,TD-DFT gradient, ASA, ECA, R-Raman, ABS, FL, XAS/XES, NRVS
   Peter Pinski           : DLPNO-MP2, DLPNO-MP2 Gradient
   Christoph Reimann      : Effective Core Potentials
   Marius Retegan         : Local ZFS, SOC
   Christoph Riplinger    : Optimizer, TS searches, QM/MM, DLPNO-CCSD(T), (RO)-DLPNO pert. Triples
   Tobias Risthaus        : Range-separated hybrids, TD-DFT gradient, RPA, STAB
   Michael Roemelt        : Original ROCIS implementation
   Masaaki Saitow         : Open-shell DLPNO-CCSD energy and density
   Barbara Sandhoefer     : DKH picture change effects
   Avijit Sen             : IP-ROCIS
   Kantharuban Sivalingam : CASSCF convergence, NEVPT2, FIC-MRCI
   Bernardo de Souza      : ESD, SOC TD-DFT
   Georgi Stoychev        : AutoAux, RI-MP2 NMR, DLPNO-MP2 response
   Willem Van den Heuvel  : Paramagnetic NMR
   Boris Wezisla          : Elementary symmetry handling
   Frank Wennmohs         : Technical directorship


 We gratefully acknowledge several colleagues who have allowed us to
 interface, adapt or use parts of their codes:
   Stefan Grimme, W. Hujo, H. Kruse, P. Pracht,  : VdW corrections, initial TS optimization,
                  C. Bannwarth, S. Ehlert          DFT functionals, gCP, sTDA/sTD-DF
   Ed Valeev, F. Pavosevic, A. Kumar             : LibInt (2-el integral package), F12 methods
   Garnet Chan, S. Sharma, J. Yang, R. Olivares  : DMRG
   Ulf Ekstrom                                   : XCFun DFT Library
   Mihaly Kallay                                 : mrcc  (arbitrary order and MRCC methods)
   Jiri Pittner, Ondrej Demel                    : Mk-CCSD
   Frank Weinhold                                : gennbo (NPA and NBO analysis)
   Christopher J. Cramer and Donald G. Truhlar   : smd solvation model
   Lars Goerigk                                  : TD-DFT with DH, B97 family of functionals
   V. Asgeirsson, H. Jonsson                     : NEB implementation
   FAccTs GmbH                                   : IRC, NEB, NEB-TS, DLPNO-Multilevel, CI-OPT
                                                   MM, QMMM, 2- and 3-layer-ONIOM, Crystal-QMMM,
                                                   LR-CPCM, SF, NACMEs, symmetry and pop. for TD-DFT,
                                                   nearIR, NL-DFT gradient (VV10), updates on ESD,
                                                   ML-optimized integration grids
   S Lehtola, MJT Oliveira, MAL Marques          : LibXC Library
   Liviu Ungur et al                             : ANISO software


 Your calculation uses the libint2 library for the computation of 2-el integrals
 For citations please refer to: http://libint.valeyev.net

 Your ORCA version has been built with support for libXC version: 5.1.0
 For citations please refer to: https://tddft.org/programs/libxc/

 This ORCA versions uses:
   CBLAS   interface :  Fast vector & matrix operations
   LAPACKE interface :  Fast linear algebra routines
   SCALAPACK package :  Parallel linear algebra routines
   Shared memory     :  Shared parallel matrices
   BLAS/LAPACK       :  OpenBLAS 0.3.15  USE64BITINT DYNAMIC_ARCH NO_AFFINITY Haswell SINGLE_THREADED
        Core in use  :  Haswell
   Copyright (c) 2011-2014, The OpenBLAS Project


Your calculation utilizes the DFT-NL dispersion correction.
Cite in your paper:
Vydrov, O. A.; Van Voorhis, T. J. Chem. Phys. 2010, 133, 244103
Hujo, W.; Grimme, S. J. Chem. Theory Comput. 2011, 7, 3866 
   

================================================================================

----- Orbital basis set information -----
Your calculation utilizes the basis: 6-311G(d)
   H, Li - Ne  : R. Krishnan, J. S. Binkley, R. Seeger and J. A. Pople, J. Chem. Phys. 72, 650 (1980).
   Na - Ar     : A. D. McLean and G. S. Chandler J. Chem. Phys. 72, 5639, (1980).
   K  - Ca     : J.-P. Blaudeau, M. P. McGrath, L. A. Curtiss and L. Radom, J. Chem. Phys. 107, 5016 (1997).
   Ga - Kr     : L. A. Curtiss, M. P. McGrath, J.-P. Blandeau, N. E. Davis, R. C. Binning and L. Radom, J. Chem. Phys. 103, 6104 (1995).
   Pol./Diff.
   H, Li - Cl  : T. Clark, J. Chandrasekhar and P. v. R. Schleyer, J. Comp. Chem. 4, 294 (1983).
   H - Ne      : M. J. Frisch, J. A. Pople and J. S. Binkley, J. Chem. Phys. 80, 3265 (1984).

----- AuxJ basis set information -----
Your calculation utilizes the auxiliary basis: def2/J
   F. Weigend, Phys. Chem. Chem. Phys. 8, 1057 (2006).

================================================================================
                                        WARNINGS
                       Please study these warnings very carefully!
================================================================================

Using LibXC functional ID 531 : wB97M-V exchange-correlation functional
[ 1]  N. Mardirossian and M. Head-Gordon, J. Chem. Phys. 144, 214110 (2016)
Using LibXC functional ID 531 : wB97M-V exchange-correlation functional
[ 1]  N. Mardirossian and M. Head-Gordon, J. Chem. Phys. 144, 214110 (2016)

WARNING: B97M-V or wB97M-V functional requested.
  ===> : libXC variant has now been activated.
         Any manually given DFX/HFX/RangeSep scaling parameters are IGNORED!

Your calculation utilizes LibXC
 by S Lehtola, C Steigemann, MJT Oliveira & MAL Marques
Please cite in your paper:
 S Lehtola, C Steigemann, MJT Oliveira & MAL Marques, SoftwareX, 7, (2018), 1.
   


WARNING: your system is open-shell and RHF/RKS was chosen
  ===> : WILL SWITCH to UHF/UKS


WARNING: Geometry Optimization
  ===> : Switching off AutoStart
         For restart on a previous wavefunction, please use MOREAD

WARNING: Analytic gradients for DFT-NL dispersion can only be done using the self-consistent method,
  ===>   Switching to SCNL

WARNING: Self-consistent DFT-NL dispersion not compatible with AutoTRAH.
  ===>   Switching AutoTRAH off


INFO   : the flag for use of the SHARK integral package has been found!

================================================================================
                                       INPUT FILE
================================================================================
NAME = CURCUMIN-OPT-FREQ-Reag-1-wB97XM-V-6-311G-D-298.inp
|  1> # avogadro generated ORCA input file
|  2> # Basic Mode
|  3> #
|  4> ! Opt NumFreq wb97M-V 6-311G(d) CPCM RIJDX
|  5> %maxcore 2000
|  6> %cpcm
|  7> epsilon 7 # Dielectric constant
|  8> refrac 1.85341 # Refractive index
|  9> end
| 10> 
| 11> * xyz 0 2
| 12>  C                  2.21929600    0.93169200    0.84115600
| 13>  H                  1.78246300    1.92589600    0.84019800
| 14>  C                  1.49186700   -0.08781300    1.37487400
| 15>  H                  1.86636600   -1.10488200    1.41841700
| 16>  C                  0.16380000    0.05169900    1.97086000
| 17>  O                 -0.42034100   -0.93280200    2.40972600
| 18>  C                  3.53072800    0.87225600    0.27686500
| 19>  C                  4.22944600    2.05402500    0.04828300
| 20>  C                  4.31672700   -0.40778300    0.14350500
| 21>  C                  5.54528300    2.08624700   -0.40981900
| 22>  H                  3.73174000    2.99487300    0.25970900
| 23>  C                  5.56531000   -0.31237000   -0.70180700
| 24>  H                  4.61765800   -0.73573300    1.14906700
| 25>  C                  6.20355100    0.89797200   -0.81669400
| 26>  H                  6.05429200    3.03848600   -0.52266400
| 27>  O                  7.45465200    0.91846400   -1.35102200
| 28>  H                  7.75418900    1.83241300   -1.45208100
| 29>  O                  6.05975900   -1.47291600   -1.18960000
| 30>  C                  7.17986700   -2.05473200   -0.48642800
| 31>  H                  6.91332200   -2.25767600    0.55373000
| 32>  H                  7.39539700   -2.99242500   -0.99564600
| 33>  H                  8.04865800   -1.39748500   -0.53296600
| 34>  C                 -3.12711900    0.50766800    0.91716000
| 35>  H                 -2.72907400    0.06112300    1.82396600
| 36>  C                 -2.38979700    1.44713400    0.28678200
| 37>  H                 -2.72666800    1.90450300   -0.63917900
| 38>  C                 -1.08190200    1.93297100    0.73320200
| 39>  O                 -0.45878000    2.74124300    0.05569500
| 40>  C                 -4.42107200   -0.01872800    0.50558800
| 41>  C                 -5.02183700   -1.02214200    1.28204900
| 42>  C                 -5.11337000    0.43450200   -0.63479500
| 43>  C                 -6.25322400   -1.56031200    0.93022700
| 44>  H                 -4.51344000   -1.39080600    2.16699900
| 45>  C                 -6.34061100   -0.09197300   -0.99786100
| 46>  H                 -4.69679000    1.20666200   -1.27155600
| 47>  C                 -6.92068700   -1.11103600   -0.20938500
| 48>  H                 -6.69991800   -2.34485300    1.53529500
| 49>  O                 -8.11188000   -1.61900900   -0.61498500
| 50>  H                 -8.39876800   -2.30922100   -0.00044700
| 51>  O                 -6.93919000    0.33959100   -2.15196000
| 52>  C                 -8.14427100    1.10146000   -1.98064500
| 53>  H                 -7.95422000    1.99259400   -1.37348900
| 54>  H                 -8.45321100    1.40587500   -2.98027300
| 55>  H                 -8.93449700    0.50397500   -1.52248900
| 56>  C                 -0.49436400    1.43495200    2.06153900
| 57>  H                 -1.27158500    1.36298400    2.82201200
| 58>  H                  0.23056900    2.18237600    2.38520600
| 59>  O                  3.76393900   -2.67563700    0.28593500
| 60>  O                  2.72620000   -1.54420700   -1.24328800
| 61>  N                  3.51510700   -1.64610500   -0.32415700
| 62> *
| 63> 
| 64> 
| 65>                          ****END OF INPUT****
================================================================================

                       *****************************
                       * Geometry Optimization Run *
                       *****************************

Geometry optimization settings:
Update method            Update   .... BFGS
Choice of coordinates    CoordSys .... Z-matrix Internals
Initial Hessian          InHess   .... Almoef's Model

Convergence Tolerances:
Energy Change            TolE     ....  5.0000e-06 Eh
Max. Gradient            TolMAXG  ....  3.0000e-04 Eh/bohr
RMS Gradient             TolRMSG  ....  1.0000e-04 Eh/bohr
Max. Displacement        TolMAXD  ....  4.0000e-03 bohr
RMS Displacement         TolRMSD  ....  2.0000e-03 bohr
Strict Convergence                ....  False
------------------------------------------------------------------------------
                        ORCA OPTIMIZATION COORDINATE SETUP
------------------------------------------------------------------------------

The optimization will be done in new redundant internal coordinates
Making redundant internal coordinates   ...  (new redundants) done
Evaluating the initial hessian          ...  (Almloef) done
Evaluating the coordinates              ...  done
Calculating the B-matrix                .... done
Calculating the G-matrix                .... done
Diagonalizing the G-matrix              .... done
Small eigenvalue found = 9.150e-04
Small eigenvalue found = 1.323e-03
Small eigenvalue found = 2.564e-03
Small eigenvalue found = 6.931e-03
Small eigenvalue found = 7.580e-03
Small eigenvalue found = 1.273e-02
Small eigenvalue found = 1.670e-02
Small eigenvalue found = 2.528e-02
Small eigenvalue found = 2.700e-02
The first mode is                       ....   97
The number of degrees of freedom        ....  144

    -----------------------------------------------------------------
                    Redundant Internal Coordinates


    -----------------------------------------------------------------
         Definition                    Initial Value    Approx d2E/dq
    -----------------------------------------------------------------
      1. B(H   1,C   0)                  1.0859         0.365511   
      2. B(C   2,C   0)                  1.3614         0.694025   
      3. B(H   3,C   2)                  1.0847         0.367179   
      4. B(C   4,C   2)                  1.4623         0.478996   
      5. B(O   5,C   4)                  1.2260         1.022194   
      6. B(C   6,C   0)                  1.4289         0.541558   
      7. B(C   7,C   6)                  1.3918         0.620738   
      8. B(C   8,C   6)                  1.5080         0.405013   
      9. B(C   9,C   7)                  1.3937         0.616424   
     10. B(H  10,C   7)                  1.0852         0.366538   
     11. B(C  11,C   8)                  1.5108         0.400828   
     12. B(H  12,C   8)                  1.0997         0.347537   
     13. B(C  13,C  11)                  1.3731         0.664749   
     14. B(C  13,C   9)                  1.4180         0.563623   
     15. B(H  14,C   9)                  1.0856         0.365933   
     16. B(O  15,C  13)                  1.3606         0.623465   
     17. B(H  16,O  15)                  0.9671         0.506612   
     18. B(O  17,C  11)                  1.3525         0.642222   
     19. B(C  18,O  17)                  1.4449         0.457467   
     20. B(H  19,C  18)                  1.0928         0.356445   
     21. B(H  20,C  18)                  1.0886         0.361972   
     22. B(H  21,C  18)                  1.0904         0.359592   
     23. B(H  23,C  22)                  1.0863         0.364971   
     24. B(C  24,C  22)                  1.3504         0.722597   
     25. B(H  25,C  24)                  1.0863         0.365013   
     26. B(C  26,C  24)                  1.4649         0.474513   
     27. B(O  27,C  26)                  1.2250         1.025979   
     28. B(C  28,C  22)                  1.4563         0.489742   
     29. B(C  29,C  28)                  1.4038         0.593915   
     30. B(C  30,C  28)                  1.4090         0.582760   
     31. B(C  31,C  29)                  1.3891         0.626765   
     32. B(H  32,C  29)                  1.0851         0.366594   
     33. B(C  33,C  30)                  1.3839         0.639012   
     34. B(H  34,C  30)                  1.0841         0.368014   
     35. B(C  35,C  33)                  1.4130         0.574097   
     36. B(C  35,C  31)                  1.3950         0.613387   
     37. B(H  36,C  31)                  1.0868         0.364350   
     38. B(O  37,C  35)                  1.3570         0.631686   
     39. B(H  38,O  37)                  0.9677         0.505540   
     40. B(O  39,C  33)                  1.3698         0.602592   
     41. B(C  40,O  39)                  1.4360         0.472641   
     42. B(H  41,C  40)                  1.0949         0.353633   
     43. B(H  42,C  40)                  1.0897         0.360544   
     44. B(H  43,C  40)                  1.0915         0.358133   
     45. B(C  44,C  26)                  1.5355         0.366127   
     46. B(C  44,C   4)                  1.5345         0.367405   
     47. B(H  45,C  44)                  1.0898         0.360421   
     48. B(H  46,C  44)                  1.0904         0.359596   
     49. B(N  49,O  48)                  1.2155         0.951345   
     50. B(N  49,O  47)                  1.2223         0.927973   
     51. B(N  49,C   8)                  1.5475         0.313762   
     52. A(C   2,C   0,C   6)          127.8838         0.432315   
     53. A(H   1,C   0,C   2)          118.1000         0.360648   
     54. A(H   1,C   0,C   6)          114.0116         0.345817   
     55. A(H   3,C   2,C   4)          112.7462         0.339037   
     56. A(C   0,C   2,H   3)          122.2378         0.360928   
     57. A(C   0,C   2,C   4)          125.0015         0.422907   
     58. A(C   2,C   4,C  44)          119.9737         0.378138   
     59. A(C   2,C   4,O   5)          120.1321         0.450491   
     60. A(O   5,C   4,C  44)          119.8908         0.429429   
     61. A(C   0,C   6,C   7)          119.3601         0.423752   
     62. A(C   0,C   6,C   8)          123.2706         0.392914   
     63. A(C   7,C   6,C   8)          116.3949         0.402447   
     64. A(C   9,C   7,H  10)          118.4911         0.353623   
     65. A(C   6,C   7,C   9)          123.2034         0.433707   
     66. A(C   6,C   7,H  10)          118.2895         0.354041   
     67. A(H  12,C   8,N  49)          100.3382         0.311549   
     68. A(C   6,C   8,C  11)          115.2532         0.372904   
     69. A(C   6,C   8,H  12)          108.3555         0.326744   
     70. A(C  11,C   8,N  49)          108.0319         0.354760   
     71. A(C   6,C   8,N  49)          115.8471         0.355385   
     72. A(C  11,C   8,H  12)          107.7160         0.326185   
     73. A(C  13,C   9,H  14)          119.1786         0.348217   
     74. A(C   7,C   9,H  14)          119.8098         0.353524   
     75. A(C   7,C   9,C  13)          120.8786         0.426258   
     76. A(C  13,C  11,O  17)          123.7964         0.439450   
     77. A(C   8,C  11,O  17)          116.7257         0.401535   
     78. A(C   8,C  11,C  13)          119.1177         0.406597   
     79. A(C  11,C  13,O  15)          118.2644         0.437106   
     80. A(C   9,C  13,O  15)          121.7973         0.424344   
     81. A(C   9,C  13,C  11)          119.9239         0.432069   
     82. A(C  13,O  15,H  16)          109.8820         0.368819   
     83. A(C  11,O  17,C  18)          116.9631         0.408377   
     84. A(O  17,C  18,H  21)          110.7443         0.333255   
     85. A(H  19,C  18,H  20)          109.4860         0.290610   
     86. A(O  17,C  18,H  20)          105.8249         0.333620   
     87. A(O  17,C  18,H  19)          110.4219         0.332769   
     88. A(H  20,C  18,H  21)          109.9680         0.291012   
     89. A(H  19,C  18,H  21)          110.2986         0.290310   
     90. A(C  24,C  22,C  28)          127.2051         0.427666   
     91. A(H  23,C  22,C  28)          114.3866         0.339953   
     92. A(H  23,C  22,C  24)          118.3961         0.363049   
     93. A(H  25,C  24,C  26)          113.3905         0.338172   
     94. A(C  22,C  24,C  26)          125.1662         0.425254   
     95. A(C  22,C  24,H  25)          121.4321         0.363056   
     96. A(C  24,C  26,O  27)          120.2944         0.450025   
     97. A(O  27,C  26,C  44)          119.8562         0.429445   
     98. A(C  24,C  26,C  44)          119.8477         0.377295   
     99. A(C  29,C  28,C  30)          117.8612         0.425968   
    100. A(C  22,C  28,C  30)          123.3018         0.411575   
    101. A(C  22,C  28,C  29)          118.8356         0.412962   
    102. A(C  31,C  29,H  32)          119.3556         0.354630   
    103. A(C  28,C  29,H  32)          119.5653         0.351413   
    104. A(C  28,C  29,C  31)          121.0769         0.431566   
    105. A(C  33,C  30,H  34)          117.2355         0.356030   
    106. A(C  28,C  30,H  34)          121.0454         0.350518   
    107. A(C  28,C  30,C  33)          121.7158         0.431596   
    108. A(C  35,C  31,H  36)          119.3827         0.352969   
    109. A(C  29,C  31,H  36)          120.1987         0.354262   
    110. A(C  29,C  31,C  35)          120.4146         0.434076   
    111. A(C  35,C  33,O  39)          121.1942         0.423159   
    112. A(C  30,C  33,O  39)          119.2544         0.431360   
    113. A(C  30,C  33,C  35)          119.4736         0.430437   
    114. A(C  33,C  35,O  37)          117.6154         0.426744   
    115. A(C  31,C  35,O  37)          122.9297         0.431843   
    116. A(C  31,C  35,C  33)          119.4515         0.427288   
    117. A(C  35,O  37,H  38)          109.7206         0.369516   
    118. A(C  33,O  39,C  40)          115.6800         0.406139   
    119. A(H  41,C  40,H  42)          109.3015         0.290069   
    120. A(O  39,C  40,H  42)          106.0638         0.335213   
    121. A(O  39,C  40,H  41)          110.6279         0.334137   
    122. A(H  42,C  40,H  43)          109.4346         0.290646   
    123. A(H  41,C  40,H  43)          109.7807         0.289764   
    124. A(O  39,C  40,H  43)          111.5446         0.334839   
    125. A(H  45,C  44,H  46)          108.1975         0.290816   
    126. A(C  26,C  44,H  46)          106.7900         0.323175   
    127. A(C   4,C  44,H  46)          110.5046         0.323359   
    128. A(C  26,C  44,H  45)          110.6227         0.323296   
    129. A(C   4,C  44,H  45)          106.7144         0.323481   
    130. A(C   4,C  44,C  26)          113.9137         0.361077   
    131. A(O  47,N  49,O  48)          125.4604         0.491840   
    132. A(C   8,N  49,O  48)          119.8431         0.406836   
    133. A(C   8,N  49,O  47)          114.6899         0.405052   
    134. D(C   4,C   2,C   0,H   1)     -0.9414         0.033875   
    135. D(H   3,C   2,C   0,H   1)   -179.4540         0.033875   
    136. D(C   4,C   2,C   0,C   6)    178.2293         0.033875   
    137. D(H   3,C   2,C   0,C   6)     -0.2833         0.033875   
    138. D(C  44,C   4,C   2,C   0)     -1.6876         0.015621   
    139. D(C  44,C   4,C   2,H   3)    176.9483         0.015621   
    140. D(O   5,C   4,C   2,H   3)     -2.3809         0.015621   
    141. D(O   5,C   4,C   2,C   0)    178.9832         0.015621   
    142. D(C   8,C   6,C   0,C   2)      2.2934         0.020043   
    143. D(C   7,C   6,C   0,H   1)     13.2038         0.020043   
    144. D(C   7,C   6,C   0,C   2)   -165.9954         0.020043   
    145. D(C   8,C   6,C   0,H   1)   -178.5075         0.020043   
    146. D(H  10,C   7,C   6,C   0)     -3.1542         0.026667   
    147. D(C   9,C   7,C   6,C   8)      6.2867         0.026667   
    148. D(C   9,C   7,C   6,C   0)    175.3654         0.026667   
    149. D(H  10,C   7,C   6,C   8)   -172.2329         0.026667   
    150. D(N  49,C   8,C   6,C   7)   -149.7085         0.012161   
    151. D(N  49,C   8,C   6,C   0)     41.6821         0.012161   
    152. D(H  12,C   8,C   6,C   7)     98.5249         0.012161   
    153. D(H  12,C   8,C   6,C   0)    -70.0845         0.012161   
    154. D(C  11,C   8,C   6,C   7)    -22.2053         0.012161   
    155. D(C  11,C   8,C   6,C   0)    169.1853         0.012161   
    156. D(C  13,C   9,C   7,C   6)      7.2441         0.026275   
    157. D(H  14,C   9,C   7,C   6)   -176.9819         0.026275   
    158. D(C  13,C   9,C   7,H  10)   -174.2391         0.026275   
    159. D(H  14,C   9,C   7,H  10)      1.5348         0.026275   
    160. D(O  17,C  11,C   8,C   6)   -159.9669         0.011921   
    161. D(C  13,C  11,C   8,N  49)    157.9972         0.011921   
    162. D(C  13,C  11,C   8,H  12)    -94.4182         0.011921   
    163. D(O  17,C  11,C   8,H  12)     78.9551         0.011921   
    164. D(C  13,C  11,C   8,C   6)     26.6598         0.011921   
    165. D(O  17,C  11,C   8,N  49)    -28.6296         0.011921   
    166. D(O  15,C  13,C  11,O  17)     -5.7311         0.030868   
    167. D(C   9,C  13,C  11,O  17)    172.9141         0.030868   
    168. D(C   9,C  13,C  11,C   8)    -14.2107         0.030868   
    169. D(O  15,C  13,C   9,H  14)     -0.3077         0.021771   
    170. D(O  15,C  13,C   9,C   7)    175.4925         0.021771   
    171. D(O  15,C  13,C  11,C   8)    167.1441         0.030868   
    172. D(C  11,C  13,C   9,H  14)   -178.9038         0.021771   
    173. D(C  11,C  13,C   9,C   7)     -3.1036         0.021771   
    174. D(H  16,O  15,C  13,C  11)    174.6699         0.028542   
    175. D(H  16,O  15,C  13,C   9)     -3.9487         0.028542   
    176. D(C  18,O  17,C  11,C  13)     72.9734         0.030423   
    177. D(C  18,O  17,C  11,C   8)   -100.0585         0.030423   
    178. D(H  21,C  18,O  17,C  11)    -63.5597         0.016485   
    179. D(H  20,C  18,O  17,C  11)    177.3028         0.016485   
    180. D(H  19,C  18,O  17,C  11)     58.9107         0.016485   
    181. D(H  25,C  24,C  22,C  28)     -0.4869         0.036979   
    182. D(H  25,C  24,C  22,H  23)    178.1598         0.036979   
    183. D(C  26,C  24,C  22,C  28)   -179.1883         0.036979   
    184. D(C  26,C  24,C  22,H  23)     -0.5417         0.036979   
    185. D(C  44,C  26,C  24,H  25)    177.0683         0.015331   
    186. D(C  44,C  26,C  24,C  22)     -4.1389         0.015331   
    187. D(O  27,C  26,C  24,H  25)     -2.4634         0.015331   
    188. D(O  27,C  26,C  24,C  22)    176.3294         0.015331   
    189. D(C  30,C  28,C  22,C  24)     -1.8941         0.016331   
    190. D(C  30,C  28,C  22,H  23)    179.4130         0.016331   
    191. D(C  29,C  28,C  22,C  24)    178.5483         0.016331   
    192. D(C  29,C  28,C  22,H  23)     -0.1445         0.016331   
    193. D(H  32,C  29,C  28,C  30)   -179.9264         0.024291   
    194. D(H  32,C  29,C  28,C  22)     -0.3447         0.024291   
    195. D(C  31,C  29,C  28,C  30)      0.6191         0.024291   
    196. D(C  31,C  29,C  28,C  22)   -179.7992         0.024291   
    197. D(H  34,C  30,C  28,C  29)   -179.9394         0.023343   
    198. D(H  34,C  30,C  28,C  22)      0.4990         0.023343   
    199. D(C  33,C  30,C  28,C  29)     -0.6218         0.023343   
    200. D(C  33,C  30,C  28,C  22)    179.8166         0.023343   
    201. D(H  36,C  31,C  29,H  32)     -0.1714         0.027220   
    202. D(H  36,C  31,C  29,C  28)    179.2842         0.027220   
    203. D(C  35,C  31,C  29,H  32)   -179.4391         0.027220   
    204. D(C  35,C  31,C  29,C  28)      0.0165         0.027220   
    205. D(O  39,C  33,C  30,H  34)      2.5001         0.028365   
    206. D(O  39,C  33,C  30,C  28)   -176.8423         0.028365   
    207. D(C  35,C  33,C  30,H  34)    179.3314         0.028365   
    208. D(C  35,C  33,C  30,C  28)     -0.0110         0.028365   
    209. D(O  37,C  35,C  33,O  39)     -1.9244         0.022623   
    210. D(O  37,C  35,C  33,C  30)   -178.6926         0.022623   
    211. D(C  31,C  35,C  33,O  39)    177.4281         0.022623   
    212. D(C  31,C  35,C  33,C  30)      0.6600         0.022623   
    213. D(O  37,C  35,C  31,H  36)     -0.6220         0.026002   
    214. D(O  37,C  35,C  31,C  29)    178.6517         0.026002   
    215. D(C  33,C  35,C  31,H  36)   -179.9385         0.026002   
    216. D(C  33,C  35,C  31,C  29)     -0.6648         0.026002   
    217. D(H  38,O  37,C  35,C  33)    179.5459         0.029357   
    218. D(H  38,O  37,C  35,C  31)      0.2176         0.029357   
    219. D(C  40,O  39,C  33,C  35)     70.8501         0.026536   
    220. D(C  40,O  39,C  33,C  30)   -112.3748         0.026536   
    221. D(H  43,C  40,O  39,C  33)    -63.8931         0.017612   
    222. D(H  42,C  40,O  39,C  33)    177.0325         0.017612   
    223. D(H  41,C  40,O  39,C  33)     58.6127         0.017612   
    224. D(H  46,C  44,C  26,O  27)     21.9518         0.010054   
    225. D(H  46,C  44,C  26,C  24)   -157.5819         0.010054   
    226. D(H  45,C  44,C  26,O  27)    139.4734         0.010054   
    227. D(H  45,C  44,C  26,C  24)    -40.0604         0.010054   
    228. D(C   4,C  44,C  26,O  27)   -100.3264         0.010054   
    229. D(C   4,C  44,C  26,C  24)     80.1399         0.010054   
    230. D(H  46,C  44,C   4,O   5)    136.2301         0.010119   
    231. D(H  46,C  44,C   4,C   2)    -43.1007         0.010119   
    232. D(H  45,C  44,C   4,O   5)     18.8154         0.010119   
    233. D(H  45,C  44,C   4,C   2)   -160.5154         0.010119   
    234. D(C  26,C  44,C   4,O   5)   -103.5584         0.010119   
    235. D(C  26,C  44,C   4,C   2)     77.1108         0.010119   
    236. D(O  48,N  49,C   8,H  12)    160.5758         0.008653   
    237. D(O  48,N  49,C   8,C  11)    -86.8002         0.008653   
    238. D(O  48,N  49,C   8,C   6)     44.2125         0.008653   
    239. D(O  47,N  49,C   8,H  12)    -20.3078         0.008653   
    240. D(O  47,N  49,C   8,C  11)     92.3162         0.008653   
    241. D(O  47,N  49,C   8,C   6)   -136.6711         0.008653   
    -----------------------------------------------------------------

Number of atoms                         .... 50
Number of degrees of freedom            .... 241

         *************************************************************
         *                GEOMETRY OPTIMIZATION CYCLE   1            *
         *************************************************************
---------------------------------
CARTESIAN COORDINATES (ANGSTROEM)
---------------------------------
  C      2.219296    0.931692    0.841156
  H      1.782463    1.925896    0.840198
  C      1.491867   -0.087813    1.374874
  H      1.866366   -1.104882    1.418417
  C      0.163800    0.051699    1.970860
  O     -0.420341   -0.932802    2.409726
  C      3.530728    0.872256    0.276865
  C      4.229446    2.054025    0.048283
  C      4.316727   -0.407783    0.143505
  C      5.545283    2.086247   -0.409819
  H      3.731740    2.994873    0.259709
  C      5.565310   -0.312370   -0.701807
  H      4.617658   -0.735733    1.149067
  C      6.203551    0.897972   -0.816694
  H      6.054292    3.038486   -0.522664
  O      7.454652    0.918464   -1.351022
  H      7.754189    1.832413   -1.452081
  O      6.059759   -1.472916   -1.189600
  C      7.179867   -2.054732   -0.486428
  H      6.913322   -2.257676    0.553730
  H      7.395397   -2.992425   -0.995646
  H      8.048658   -1.397485   -0.532966
  C     -3.127119    0.507668    0.917160
  H     -2.729074    0.061123    1.823966
  C     -2.389797    1.447134    0.286782
  H     -2.726668    1.904503   -0.639179
  C     -1.081902    1.932971    0.733202
  O     -0.458780    2.741243    0.055695
  C     -4.421072   -0.018728    0.505588
  C     -5.021837   -1.022142    1.282049
  C     -5.113370    0.434502   -0.634795
  C     -6.253224   -1.560312    0.930227
  H     -4.513440   -1.390806    2.166999
  C     -6.340611   -0.091973   -0.997861
  H     -4.696790    1.206662   -1.271556
  C     -6.920687   -1.111036   -0.209385
  H     -6.699918   -2.344853    1.535295
  O     -8.111880   -1.619009   -0.614985
  H     -8.398768   -2.309221   -0.000447
  O     -6.939190    0.339591   -2.151960
  C     -8.144271    1.101460   -1.980645
  H     -7.954220    1.992594   -1.373489
  H     -8.453211    1.405875   -2.980273
  H     -8.934497    0.503975   -1.522489
  C     -0.494364    1.434952    2.061539
  H     -1.271585    1.362984    2.822012
  H      0.230569    2.182376    2.385206
  O      3.763939   -2.675637    0.285935
  O      2.726200   -1.544207   -1.243288
  N      3.515107   -1.646105   -0.324157

----------------------------
CARTESIAN COORDINATES (A.U.)
----------------------------
  NO LB      ZA    FRAG     MASS         X           Y           Z
   0 C     6.0000    0    12.011    4.193862    1.760643    1.589554
   1 H     1.0000    0     1.008    3.368367    3.639416    1.587744
   2 C     6.0000    0    12.011    2.819220   -0.165943    2.598135
   3 H     1.0000    0     1.008    3.526921   -2.087924    2.680420
   4 C     6.0000    0    12.011    0.309537    0.097697    3.724386
   5 O     8.0000    0    15.999   -0.794329   -1.762740    4.553722
   6 C     6.0000    0    12.011    6.672109    1.648325    0.523199
   7 C     6.0000    0    12.011    7.992495    3.881545    0.091242
   8 C     6.0000    0    12.011    8.157432   -0.770598    0.271185
   9 C     6.0000    0    12.011   10.479066    3.942435   -0.774446
  10 H     1.0000    0     1.008    7.051967    5.659490    0.490779
  11 C     6.0000    0    12.011   10.516912   -0.590294   -1.326223
  12 H     1.0000    0     1.008    8.726109   -1.390334    2.171422
  13 C     6.0000    0    12.011   11.723012    1.696921   -1.543328
  14 H     1.0000    0     1.008   11.440954    5.741906   -0.987692
  15 O     8.0000    0    15.999   14.087251    1.735645   -2.553062
  16 H     1.0000    0     1.008   14.653294    3.462759   -2.744035
  17 O     8.0000    0    15.999   11.451285   -2.783408   -2.248018
  18 C     6.0000    0    12.011   13.567982   -3.882881   -0.919216
  19 H     1.0000    0     1.008   13.064285   -4.266389    1.046398
  20 H     1.0000    0     1.008   13.975275   -5.654864   -1.881498
  21 H     1.0000    0     1.008   15.209759   -2.640864   -1.007160
  22 C     6.0000    0    12.011   -5.909398    0.959353    1.733181
  23 H     1.0000    0     1.008   -5.157202    0.115506    3.446796
  24 C     6.0000    0    12.011   -4.516062    2.734687    0.541939
  25 H     1.0000    0     1.008   -5.152656    3.598989   -1.207873
  26 C     6.0000    0    12.011   -2.044498    3.652786    1.385551
  27 O     8.0000    0    15.999   -0.866969    5.180199    0.105248
  28 C     6.0000    0    12.011   -8.354615   -0.035391    0.955423
  29 C     6.0000    0    12.011   -9.489897   -1.931568    2.422722
  30 C     6.0000    0    12.011   -9.662869    0.821090   -1.199589
  31 C     6.0000    0    12.011  -11.816881   -2.948562    1.757874
  32 H     1.0000    0     1.008   -8.529166   -2.628242    4.095035
  33 C     6.0000    0    12.011  -11.982018   -0.173804   -1.885684
  34 H     1.0000    0     1.008   -8.875647    2.280261   -2.402893
  35 C     6.0000    0    12.011  -13.078203   -2.099554   -0.395680
  36 H     1.0000    0     1.008  -12.661010   -4.431130    2.901287
  37 O     8.0000    0    15.999  -15.329232   -3.059484   -1.162153
  38 H     1.0000    0     1.008  -15.871371   -4.363795   -0.000845
  39 O     8.0000    0    15.999  -13.113169    0.641734   -4.066615
  40 C     6.0000    0    12.011  -15.390442    2.081458   -3.742877
  41 H     1.0000    0     1.008  -15.031297    3.765457   -2.595518
  42 H     1.0000    0     1.008  -15.974254    2.656719   -5.631900
  43 H     1.0000    0     1.008  -16.883752    0.952375   -2.877087
  44 C     6.0000    0    12.011   -0.934213    2.711666    3.895744
  45 H     1.0000    0     1.008   -2.402947    2.575666    5.332830
  46 H     1.0000    0     1.008    0.435712    4.124093    4.507386
  47 O     8.0000    0    15.999    7.112814   -5.056221    0.540339
  48 O     8.0000    0    15.999    5.151771   -2.918128   -2.349474
  49 N     7.0000    0    14.007    6.642590   -3.110688   -0.612568

--------------------------------
INTERNAL COORDINATES (ANGSTROEM)
--------------------------------
 C      0   0   0     0.000000000000     0.00000000     0.00000000
 H      1   0   0     1.085939952884     0.00000000     0.00000000
 C      1   2   0     1.361395717119   118.10004916     0.00000000
 H      3   1   2     1.084700347843   122.23776102   180.54597373
 C      3   1   2     1.462335415296   125.00154259   359.05862971
 O      5   3   1     1.225996041118   120.13212374   178.98319353
 C      1   2   3     1.428919473379   114.01156042   180.71652376
 C      7   1   2     1.391773883793   119.36005676    13.20377398
 C      7   1   2     1.508005026226   123.27055794   181.49253139
 C      8   7   1     1.393672382684   123.20339373   175.36542300
 H      8   7   1     1.085176103227   118.28948287   356.84584919
 C      9   7   1     1.510832725950   115.25315272   169.18533274
 H      9   7   1     1.099666133472   108.35547554   289.91553483
 C     12   9   7     1.373127216908   119.11770088    26.65984847
 H     10   8   7     1.085625750076   119.80984314   183.01805247
 O     14  12   9     1.360580775202   118.26441160   167.14405280
 H     16  14  12     0.967077096436   109.88201034   174.66986850
 O     12   9   7     1.352512048954   116.72572446   200.03310816
 C     18  12   9     1.444853851123   116.96308406   259.94146178
 H     19  18  12     1.092776815789   110.42189510    58.91066789
 H     19  18  12     1.088588220896   105.82489722   177.30281315
 H     19  18  12     1.090383971881   110.74426357   296.44033762
 C      6   5   3     3.410183899226    83.24128101   221.64022040
 H     23   6   5     1.086342202387    33.92117213   229.94094853
 C     23   6   5     1.350413462508    93.71502237     9.17913389
 H     25  23   6     1.086311302677   121.43205832   153.69106655
 C     25  23   6     1.464895128668   125.16623596   334.98959374
 O     27  25  23     1.224989954211   120.29438910   176.32944763
 C     23   6   5     1.456296201399   132.55232717   161.08338230
 C     29  23   6     1.403798391915   118.83563005    34.70855806
 C     29  23   6     1.408959665992   123.30176854   214.26610158
 C     30  29  23     1.389143481557   121.07685848   180.20084520
 H     30  29  23     1.085134626212   119.56531092   359.65531491
 C     31  29  23     1.383876193184   121.71583239   179.81661567
 H     31  29  23     1.084082346098   121.04535968     0.49902556
 C     32  30  29     1.395016591690   120.41464402     0.00000000
 H     32  30  29     1.086806052128   120.19865223   179.28421299
 O     36  32  30     1.357014624821   122.92967610   178.65169628
 H     38  36  32     0.967654009929   109.72061053     0.21760157
 O     34  31  29     1.369849921392   119.25438345   183.15767436
 C     40  34  31     1.435971245864   115.68000182   247.62522837
 H     41  40  34     1.094932690576   110.62794236    58.61271893
 H     41  40  34     1.089664422751   106.06376426   177.03245959
 H     41  40  34     1.091490896268   111.54458118   296.10686789
 C      5   3   1     1.534532956292   119.97372699   358.31237903
 H     45   5   3     1.089757339775   106.71444851   199.48456142
 H     45   5   3     1.090381042184   110.50458866   316.89925487
 O     13   9   7     2.288462477211    78.80342777   131.71953787
 O     48  13   9     2.166923870548    90.12701665   341.75705636
 N     49  48  13     1.215548950974    27.35180755     8.60527542

---------------------------
INTERNAL COORDINATES (A.U.)
---------------------------
 C      0   0   0     0.000000000000     0.00000000     0.00000000
 H      1   0   0     2.052129108833     0.00000000     0.00000000
 C      1   2   0     2.572665065248   118.10004916     0.00000000
 H      3   1   2     2.049786594793   122.23776102   180.54597373
 C      3   1   2     2.763413450843   125.00154259   359.05862971
 O      5   3   1     2.316796758985   120.13212374   178.98319353
 C      1   2   3     2.700266472113   114.01156042   180.71652376
 C      7   1   2     2.630071480713   119.36005676    13.20377398
 C      7   1   2     2.849716508143   123.27055794   181.49253139
 C      8   7   1     2.633659123683   123.20339373   175.36542300
 H      8   7   1     2.050685642176   118.28948287   356.84584919
 C      9   7   1     2.855060086212   115.25315272   169.18533274
 H      9   7   1     2.078067831010   108.35547554   289.91553483
 C     12   9   7     2.594834386990   119.11770088    26.65984847
 H     10   8   7     2.051535351576   119.80984314   183.01805247
 O     14  12   9     2.571125048210   118.26441160   167.14405280
 H     16  14  12     1.827510862652   109.88201034   174.66986850
 O     12   9   7     2.555877365352   116.72572446   200.03310816
 C     18  12   9     2.730378082163   116.96308406   259.94146178
 H     19  18  12     2.065048907339   110.42189510    58.91066789
 H     19  18  12     2.057133610106   105.82489722   177.30281315
 H     19  18  12     2.060527087672   110.74426357   296.44033762
 C      6   5   3     6.444313635845    83.24128101   221.64022040
 H     23   6   5     2.052889250231    33.92117213   229.94094853
 C     23   6   5     2.551911611701    93.71502237     9.17913389
 H     25  23   6     2.052830858242   121.43205832   153.69106655
 C     25  23   6     2.768250608097   125.16623596   334.98959374
 O     27  25  23     2.314895530263   120.29438910   176.32944763
 C     23   6   5     2.752000990514   132.55232717   161.08338230
 C     29  23   6     2.652794507958   118.83563005    34.70855806
 C     29  23   6     2.662547902467   123.30176854   214.26610158
 C     30  29  23     2.625100740865   121.07685848   180.20084520
 H     30  29  23     2.050607261976   119.56531092   359.65531491
 C     31  29  23     2.615147008372   121.71583239   179.81661567
 H     31  29  23     2.048618740744   121.04535968     0.49902556
 C     32  30  29     2.636199310569   120.41464402     0.00000000
 H     32  30  29     2.053765799209   120.19865223   179.28421299
 O     36  32  30     2.564386000638   122.92967610   178.65169628
 H     38  36  32     1.828601071157   109.72061053     0.21760157
 O     34  31  29     2.588641196005   119.25438345   183.15767436
 C     40  34  31     2.713592390868   115.68000182   247.62522837
 H     41  40  34     2.069122920267   110.62794236    58.61271893
 H     41  40  34     2.059167336877   106.06376426   177.03245959
 H     41  40  34     2.062618871616   111.54458118   296.10686789
 C      5   3   1     2.899847030868   119.97372699   358.31237903
 H     45   5   3     2.059342924606   106.71444851   199.48456142
 H     45   5   3     2.060521551347   110.50458866   316.89925487
 O     13   9   7     4.324567349683    78.80342777   131.71953787
 O     48  13   9     4.094892668392    90.12701665   341.75705636
 N     49  48  13     2.297054619716    27.35180755     8.60527542

---------------------
BASIS SET INFORMATION
---------------------
There are 4 groups of distinct atoms

 Group   1 Type C   : 11s5p1d contracted to 4s3p1d pattern {6311/311/1}
 Group   2 Type H   : 5s contracted to 3s pattern {311}
 Group   3 Type O   : 11s5p1d contracted to 4s3p1d pattern {6311/311/1}
 Group   4 Type N   : 11s5p1d contracted to 4s3p1d pattern {6311/311/1}

Atom   0C    basis set group =>   1
Atom   1H    basis set group =>   2
Atom   2C    basis set group =>   1
Atom   3H    basis set group =>   2
Atom   4C    basis set group =>   1
Atom   5O    basis set group =>   3
Atom   6C    basis set group =>   1
Atom   7C    basis set group =>   1
Atom   8C    basis set group =>   1
Atom   9C    basis set group =>   1
Atom  10H    basis set group =>   2
Atom  11C    basis set group =>   1
Atom  12H    basis set group =>   2
Atom  13C    basis set group =>   1
Atom  14H    basis set group =>   2
Atom  15O    basis set group =>   3
Atom  16H    basis set group =>   2
Atom  17O    basis set group =>   3
Atom  18C    basis set group =>   1
Atom  19H    basis set group =>   2
Atom  20H    basis set group =>   2
Atom  21H    basis set group =>   2
Atom  22C    basis set group =>   1
Atom  23H    basis set group =>   2
Atom  24C    basis set group =>   1
Atom  25H    basis set group =>   2
Atom  26C    basis set group =>   1
Atom  27O    basis set group =>   3
Atom  28C    basis set group =>   1
Atom  29C    basis set group =>   1
Atom  30C    basis set group =>   1
Atom  31C    basis set group =>   1
Atom  32H    basis set group =>   2
Atom  33C    basis set group =>   1
Atom  34H    basis set group =>   2
Atom  35C    basis set group =>   1
Atom  36H    basis set group =>   2
Atom  37O    basis set group =>   3
Atom  38H    basis set group =>   2
Atom  39O    basis set group =>   3
Atom  40C    basis set group =>   1
Atom  41H    basis set group =>   2
Atom  42H    basis set group =>   2
Atom  43H    basis set group =>   2
Atom  44C    basis set group =>   1
Atom  45H    basis set group =>   2
Atom  46H    basis set group =>   2
Atom  47O    basis set group =>   3
Atom  48O    basis set group =>   3
Atom  49N    basis set group =>   4
---------------------------------
AUXILIARY/J BASIS SET INFORMATION
---------------------------------
There are 4 groups of distinct atoms

 Group   1 Type C   : 12s5p4d2f1g contracted to 6s4p3d1f1g pattern {711111/2111/211/2/1}
 Group   2 Type H   : 5s2p1d contracted to 3s1p1d pattern {311/2/1}
 Group   3 Type O   : 12s5p4d2f1g contracted to 6s4p3d1f1g pattern {711111/2111/211/2/1}
 Group   4 Type N   : 12s5p4d2f1g contracted to 6s4p3d1f1g pattern {711111/2111/211/2/1}

Atom   0C    basis set group =>   1
Atom   1H    basis set group =>   2
Atom   2C    basis set group =>   1
Atom   3H    basis set group =>   2
Atom   4C    basis set group =>   1
Atom   5O    basis set group =>   3
Atom   6C    basis set group =>   1
Atom   7C    basis set group =>   1
Atom   8C    basis set group =>   1
Atom   9C    basis set group =>   1
Atom  10H    basis set group =>   2
Atom  11C    basis set group =>   1
Atom  12H    basis set group =>   2
Atom  13C    basis set group =>   1
Atom  14H    basis set group =>   2
Atom  15O    basis set group =>   3
Atom  16H    basis set group =>   2
Atom  17O    basis set group =>   3
Atom  18C    basis set group =>   1
Atom  19H    basis set group =>   2
Atom  20H    basis set group =>   2
Atom  21H    basis set group =>   2
Atom  22C    basis set group =>   1
Atom  23H    basis set group =>   2
Atom  24C    basis set group =>   1
Atom  25H    basis set group =>   2
Atom  26C    basis set group =>   1
Atom  27O    basis set group =>   3
Atom  28C    basis set group =>   1
Atom  29C    basis set group =>   1
Atom  30C    basis set group =>   1
Atom  31C    basis set group =>   1
Atom  32H    basis set group =>   2
Atom  33C    basis set group =>   1
Atom  34H    basis set group =>   2
Atom  35C    basis set group =>   1
Atom  36H    basis set group =>   2
Atom  37O    basis set group =>   3
Atom  38H    basis set group =>   2
Atom  39O    basis set group =>   3
Atom  40C    basis set group =>   1
Atom  41H    basis set group =>   2
Atom  42H    basis set group =>   2
Atom  43H    basis set group =>   2
Atom  44C    basis set group =>   1
Atom  45H    basis set group =>   2
Atom  46H    basis set group =>   2
Atom  47O    basis set group =>   3
Atom  48O    basis set group =>   3
Atom  49N    basis set group =>   4
------------------------------------------------------------------------------
                           ORCA GTO INTEGRAL CALCULATION
                           -- RI-GTO INTEGRALS CHOSEN --
------------------------------------------------------------------------------
------------------------------------------------------------------------------
                   ___                                                        
                  /   \      - P O W E R E D   B Y -                         
                 /     \                                                     
                 |  |  |   _    _      __       _____    __    __             
                 |  |  |  | |  | |    /  \     |  _  \  |  |  /  |          
                  \  \/   | |  | |   /    \    | | | |  |  | /  /          
                 / \  \   | |__| |  /  /\  \   | |_| |  |  |/  /          
                |  |  |   |  __  | /  /__\  \  |    /   |      \           
                |  |  |   | |  | | |   __   |  |    \   |  |\   \          
                \     /   | |  | | |  |  |  |  | |\  \  |  | \   \       
                 \___/    |_|  |_| |__|  |__|  |_| \__\ |__|  \__/        
                                                                              
                      - O R C A' S   B I G   F R I E N D -                    
                                      &                                       
                       - I N T E G R A L  F E E D E R -                       
                                                                              
 v1 FN, 2020, v2 2021                                                         
------------------------------------------------------------------------------


Reading SHARK input file CURCUMIN-OPT-FREQ-Reag-1-wB97XM-V-6-311G-D-298.SHARKINP.tmp ... ok
----------------------
SHARK INTEGRAL PACKAGE
----------------------

Number of atoms                             ...     50
Number of basis functions                   ...    600
Number of shells                            ...    300
Maximum angular momentum                    ...      2
Integral batch strategy                     ... SHARK/LIBINT Hybrid
RI-J (if used) integral strategy            ... SPLIT-RIJ (Revised 2003 algorithm where possible)
Printlevel                                  ...      1
Contraction scheme used                     ... SEGMENTED contraction
Coulomb Range Separation                    ... NOT USED
Exchange Range Separation                   ... Long Range
   Mu parameter                             ...  0.300000
   Scaling (regular/separated)              ...  0.150000  0.850000
Finite Nucleus Model                        ... NOT USED
Auxiliary Coulomb fitting basis             ... AVAILABLE
   # of basis functions in Aux-J            ...   1690
   # of shells in Aux-J                     ...    550
   Maximum angular momentum in Aux-J        ...      4
Auxiliary J/K fitting basis                 ... NOT available
Auxiliary Correlation fitting basis         ... NOT available
Auxiliary 'external' fitting basis          ... NOT available
Integral threshold                          ...     2.500000e-11
Primitive cut-off                           ...     2.500000e-12
Primitive pair pre-selection threshold      ...     2.500000e-12

Calculating pre-screening integrals         ... done (  0.2 sec) Dimension = 300
Organizing shell pair data                  ... done (  0.3 sec)
Shell pair information
Total number of shell pairs                 ...     45150
Shell pairs after pre-screening             ...     21591
Total number of primitive shell pairs       ...    187045
Primitive shell pairs kept                  ...     52839
          la=0 lb=0:   7408 shell pairs
          la=1 lb=0:   8049 shell pairs
          la=1 lb=1:   2233 shell pairs
          la=2 lb=0:   2387 shell pairs
          la=2 lb=1:   1303 shell pairs
          la=2 lb=2:    211 shell pairs

Calculating one electron integrals          ... done (  0.2 sec)
Calculating RI/J V-Matrix + Cholesky decomp.... done (  0.6 sec)
Calculating Nuclear repulsion               ... done (  0.0 sec) ENN=   2682.429998647180 Eh

SHARK setup successfully completed in   1.9 seconds

Maximum memory used throughout the entire GTOINT-calculation: 120.0 MB
-------------------------------------------------------------------------------
                                 ORCA SCF
-------------------------------------------------------------------------------

------------
SCF SETTINGS
------------
Hamiltonian:
 Density Functional     Method          .... DFT(GTOs)
  Functional kind                       .... Exchange-Correlation
  Functional name                       .... wB97M-V exchange-correlation functional
  Functional family                     .... Hybrid MGGA
  Functional refs                              
    [ 0] N. Mardirossian and M. Head-Gordon, J. Chem. Phys. 144, 214110 (2016)
  Fraction of HF Exchange (short range) .... 0.1500
  Fraction of HF Exchange (long range)  .... 1.0000
  Range separation parameter mu         .... 0.3000
  Functional external parameters         .... 0
   Density functional embedding theory  .... OFF
 Long-range corrected/Screened/Range-Separated Hybrid DFT is turned on
   Amount of maximum screened exact exchange              ....  0.850000
   Range separation parameter mu (erf(mu*r12)/r12)        ....  0.300000
   NL short-range parameter             ....  6.000000
   NL long-range parameter              ....  0.010000
 RI-approximation to the Coulomb term is turned on
   Number of AuxJ basis functions       .... 1690
   RIJ-ON(X) (HFX calculated with O(N)) .... on


General Settings:
 Integral files         IntName         .... CURCUMIN-OPT-FREQ-Reag-1-wB97XM-V-6-311G-D-298
 Hartree-Fock type      HFTyp           .... UHF
 Total Charge           Charge          ....    0
 Multiplicity           Mult            ....    2
 Number of Electrons    NEL             ....  217
 Basis Dimension        Dim             ....  600
 Nuclear Repulsion      ENuc            ....   2682.4299986472 Eh

Convergence Acceleration:
 DIIS                   CNVDIIS         .... on
   Start iteration      DIISMaxIt       ....    12
   Startup error        DIISStart       ....  0.200000
   # of expansion vecs  DIISMaxEq       ....     5
   Bias factor          DIISBfac        ....   1.050
   Max. coefficient     DIISMaxC        ....  10.000
 Trust-Rad. Augm. Hess. CNVTRAH         .... off
 SOSCF                  CNVSOSCF        .... off
 Level Shifting         CNVShift        .... on
   Level shift para.    LevelShift      ....    0.2500
   Turn off err/grad.   ShiftErr        ....    0.0010
 Zerner damping         CNVZerner       .... off
 Static damping         CNVDamp         .... on
   Fraction old density DampFac         ....    0.7000
   Max. Damping (<1)    DampMax         ....    0.9800
   Min. Damping (>=0)   DampMin         ....    0.0000
   Turn off err/grad.   DampErr         ....    0.1000
 Fernandez-Rico         CNVRico         .... off

SCF Procedure:
 Maximum # iterations   MaxIter         ....   125
 SCF integral mode      SCFMode         .... Direct
   Integral package                     .... SHARK and LIBINT hybrid scheme
 Reset frequency        DirectResetFreq ....    20
 Integral Threshold     Thresh          ....  2.500e-11 Eh
 Primitive CutOff       TCut            ....  2.500e-12 Eh

Convergence Tolerance:
 Convergence Check Mode ConvCheckMode   .... Total+1el-Energy
 Convergence forced     ConvForced      .... 0
 Energy Change          TolE            ....  1.000e-08 Eh
 1-El. energy change                    ....  1.000e-05 Eh
 DIIS Error             TolErr          ....  5.000e-07


Diagonalization of the overlap matrix:
Smallest eigenvalue                        ... 1.749e-04
Time for diagonalization                   ...    0.053 sec
Threshold for overlap eigenvalues          ... 1.000e-08
Number of eigenvalues below threshold      ... 0
Time for construction of square roots      ...    0.052 sec
Total time needed                          ...    0.107 sec

Time for model grid setup =    1.562 sec

------------------------------
INITIAL GUESS: MODEL POTENTIAL
------------------------------
Loading Hartree-Fock densities                     ... done
Calculating cut-offs                               ... done
Initializing the effective Hamiltonian             ... done
Setting up the integral package (SHARK)            ... done
Starting the Coulomb interaction                   ... done (   2.3 sec)
Reading the grid                                   ... done
Mapping shells                                     ... done
Starting the XC term evaluation                    ... done (   1.0 sec)
  promolecular density results
     # of electrons  =    216.990436064
     EX              =   -185.050272982
     EC              =     -7.316361125
     EX+EC           =   -192.366634107
Transforming the Hamiltonian                       ... done (   0.0 sec)
Diagonalizing the Hamiltonian                      ... done (   0.0 sec)
Back transforming the eigenvectors                 ... done (   0.0 sec)
Now organizing SCF variables                       ... done
                      ------------------
                      INITIAL GUESS DONE (   5.1 sec)
                      ------------------
-------------------
DFT GRID GENERATION
-------------------

General Integration Accuracy     IntAcc      ... 4.388
Radial Grid Type                 RadialGrid  ... OptM3 with GC (2021)
Angular Grid (max. ang.)         AngularGrid ... 4 (Lebedev-302)
Angular grid pruning method      GridPruning ... 4 (adaptive)
Weight generation scheme         WeightScheme... Becke
Basis function cutoff            BFCut       ... 1.0000e-11
Integration weight cutoff        WCut        ... 1.0000e-14
Angular grids for H and He will be reduced by one unit
Partially contracted basis set               ... off
Rotationally invariant grid construction     ... off

Total number of grid points                  ...   243816
Total number of batches                      ...     3834
Average number of points per batch           ...       63
Average number of grid points per atom       ...     4876

------------------
NL GRID GENERATION
------------------

General Integration Accuracy     IntAcc      ... 4.004
Radial Grid Type                 RadialGrid  ... OptM3 with GC (2021)
Angular Grid (max. ang.)         AngularGrid ... 2 (Lebedev-110)
Angular grid pruning method      GridPruning ... 4 (adaptive)
Weight generation scheme         WeightScheme... Becke
Basis function cutoff            BFCut       ... 1.0000e-10
Integration weight cutoff        WCut        ... 1.0000e-14
Angular grids for H and He will be reduced by one unit
Partially contracted basis set               ... off
Rotationally invariant grid construction     ... off

Total number of grid points                  ...    78459
Total number of batches                      ...     1250
Average number of points per batch           ...       62
Average number of grid points per atom       ...     1569
Time for grid setup =    6.447 sec


--------------------
CPCM SOLVATION MODEL
--------------------
CPCM parameters:
  Epsilon                                         ...       7.0000
  Refrac                                          ...       1.8534
  Rsolv                                           ...       1.3000
  Surface type                                    ... GAUSSIAN VDW
  Epsilon function type                           ...         CPCM
Radii:
 Radius for C  used is    3.8550 Bohr (=   2.0400 Ang.)
 Radius for H  used is    2.4944 Bohr (=   1.3200 Ang.)
 Radius for O  used is    3.4469 Bohr (=   1.8240 Ang.)
 Radius for N  used is    3.5149 Bohr (=   1.8600 Ang.)
Calculating surface                               ...        done! (  0.0s)
GEPOL surface points                              ...         2668
GEPOL Volume                                      ...    3189.4569
GEPOL Surface-area                                ...    1627.1388
Calculating surface distance matrix               ...        done! (  0.0s)
Performing Cholesky decomposition & store         ...        done! (  0.7s)
Overall time for CPCM initialization              ...                 0.8s
--------------
SCF ITERATIONS
--------------
ITER       Energy         Delta-E        Max-DP      RMS-DP      [F,P]     Damp
               ***  Starting incremental Fock matrix formation  ***
  0  -1467.7445227419   0.000000000000 0.05938427  0.00051038  0.1512183 0.7000
  1  -1468.0466237738  -0.302101031936 0.04178897  0.00037289  0.0740052 0.7000
                               ***Turning on DIIS***
  2  -1468.1916230919  -0.144999318116 0.06181472  0.00068933  0.0294403 0.0000
  3  -1468.4457642046  -0.254141112719 0.03339876  0.00025644  0.0363213 0.0000
  4  -1468.4782167666  -0.032452561940 0.00588354  0.00006706  0.0065648 0.0000
  5  -1468.4811838559  -0.002967089317 0.00291884  0.00004063  0.0039400 0.0000
  6  -1468.4824971417  -0.001313285828 0.00306361  0.00003774  0.0033081 0.0000
  7  -1468.4834983883  -0.001001246555 0.00297733  0.00003703  0.0026182 0.0000
  8  -1468.4842183652  -0.000719976940 0.00232798  0.00002662  0.0017606 0.0000
  9  -1468.4845751371  -0.000356771885 0.00178382  0.00001895  0.0012100 0.0000
 10  -1468.4847395818  -0.000164444657 0.00221996  0.00002239  0.0007456 0.0000
 11  -1468.4848522497  -0.000112667900 0.00067131  0.00000771  0.0003268 0.0000
 12  -1468.4848710524  -0.000018802765 0.00052973  0.00000564  0.0002450 0.0000
 13  -1468.4848803433  -0.000009290888 0.00025348  0.00000269  0.0001550 0.0000
 14  -1468.4848837759  -0.000003432552 0.00024010  0.00000265  0.0001082 0.0000
 15  -1468.4848863387  -0.000002562806 0.00016869  0.00000177  0.0000937 0.0000
 16  -1468.4848874856  -0.000001146897 0.00012532  0.00000152  0.0000762 0.0000
 17  -1468.4848882491  -0.000000763482 0.00013694  0.00000164  0.0000661 0.0000
 18  -1468.4848886970  -0.000000447958 0.00005683  0.00000059  0.0000309 0.0000
 19  -1468.4848887924  -0.000000095375 0.00004380  0.00000048  0.0000279 0.0000
               *** Restarting incremental Fock matrix formation ***
                                   *** Resetting DIIS ***
 20  -1468.4848889263  -0.000000133908 0.00001515  0.00000020  0.0000133 0.0000
 21  -1468.4848889469  -0.000000020654 0.00000917  0.00000009  0.0000186 0.0000
 22  -1468.4848889627  -0.000000015723 0.00001917  0.00000021  0.0000081 0.0000
 23  -1468.4848889757  -0.000000013033 0.00000717  0.00000008  0.0000046 0.0000
 24  -1468.4848889672   0.000000008509 0.00000327  0.00000004  0.0000038 0.0000
                            ***DIIS convergence achieved***

               *****************************************************
               *                     SUCCESS                       *
               *           SCF CONVERGED AFTER  25 CYCLES          *
               *****************************************************


----------------
TOTAL SCF ENERGY
----------------

Total Energy       :        -1468.48488897 Eh          -39959.50533 eV

Components:
Nuclear Repulsion  :         2682.42999865 Eh           72992.63114 eV
Electronic Energy  :        -4150.91488762 Eh         -112952.13647 eV
One Electron Energy:        -7335.99994542 Eh         -199622.70714 eV
Two Electron Energy:         3185.08505780 Eh           86670.57067 eV
CPCM Dielectric    :           -0.04471742 Eh              -1.21682 eV

Virial components:
Potential Energy   :        -2933.43006345 Eh          -79822.69013 eV
Kinetic Energy     :         1464.94517448 Eh           39863.18480 eV
Virial Ratio       :            2.00241628


DFT components:
N(Alpha)           :      108.999913927294 electrons
N(Beta)            :      107.999907060805 electrons
N(Total)           :      216.999820988098 electrons
NL Energy, E(C,NL) :        0.817690285068 Eh       
E(XC)              :     -139.507021396969 Eh       
DFET-embed. en.    :        0.000000000000 Eh       
CPCM Solvation Model Properties:
Surface-charge          :           -0.02706868
Charge-correction       :            0.00000795 Eh               0.00022 eV
Free-energy (cav+disp)  :  This term is not implemented in the current solvation scheme

---------------
SCF CONVERGENCE
---------------

  Last Energy change         ...   -2.5263e-09  Tolerance :   1.0000e-08
  Last MAX-Density change    ...    1.1393e-06  Tolerance :   1.0000e-07
  Last RMS-Density change    ...    1.6234e-08  Tolerance :   5.0000e-09
  Last DIIS Error            ...    9.7373e-07  Tolerance :   5.0000e-07

             **** THE GBW FILE WAS UPDATED (CURCUMIN-OPT-FREQ-Reag-1-wB97XM-V-6-311G-D-298.gbw) ****
             **** DENSITY CURCUMIN-OPT-FREQ-Reag-1-wB97XM-V-6-311G-D-298.scfp WAS UPDATED ****
             **** ENERGY FILE WAS UPDATED (CURCUMIN-OPT-FREQ-Reag-1-wB97XM-V-6-311G-D-298.en.tmp) ****
----------------------
UHF SPIN CONTAMINATION
----------------------

Warning: in a DFT calculation there is little theoretical justification to 
         calculate <S**2> as in Hartree-Fock theory. We will do it anyways
         but you should keep in mind that the values have only limited relevance

Expectation value of <S**2>     :     0.829659
Ideal value S*(S+1) for S=0.5   :     0.750000
Deviation                       :     0.079659

             **** THE GBW FILE WAS UPDATED (CURCUMIN-OPT-FREQ-Reag-1-wB97XM-V-6-311G-D-298.gbw) ****
             **** DENSITY CURCUMIN-OPT-FREQ-Reag-1-wB97XM-V-6-311G-D-298.scfp WAS UPDATED ****
----------------
ORBITAL ENERGIES
----------------
                 SPIN UP ORBITALS
  NO   OCC          E(Eh)            E(eV) 
   0   1.0000     -19.377015      -527.2754 
   1   1.0000     -19.373879      -527.1901 
   2   1.0000     -19.369477      -527.0703 
   3   1.0000     -19.367509      -527.0167 
   4   1.0000     -19.364720      -526.9408 
   5   1.0000     -19.348380      -526.4962 
   6   1.0000     -19.324437      -525.8447 
   7   1.0000     -19.322843      -525.8013 
   8   1.0000     -14.755267      -401.5112 
   9   1.0000     -10.446187      -284.2552 
  10   1.0000     -10.445973      -284.2494 
  11   1.0000     -10.431408      -283.8530 
  12   1.0000     -10.429003      -283.7876 
  13   1.0000     -10.427759      -283.7537 
  14   1.0000     -10.424056      -283.6530 
  15   1.0000     -10.408565      -283.2314 
  16   1.0000     -10.390889      -282.7505 
  17   1.0000     -10.389794      -282.7207 
  18   1.0000     -10.381858      -282.5047 
  19   1.0000     -10.378132      -282.4033 
  20   1.0000     -10.377164      -282.3770 
  21   1.0000     -10.375231      -282.3244 
  22   1.0000     -10.374411      -282.3021 
  23   1.0000     -10.363839      -282.0144 
  24   1.0000     -10.359775      -281.9038 
  25   1.0000     -10.359359      -281.8925 
  26   1.0000     -10.357068      -281.8301 
  27   1.0000     -10.355433      -281.7857 
  28   1.0000     -10.354561      -281.7619 
  29   1.0000     -10.350305      -281.6461 
  30   1.0000      -1.377611       -37.4867 
  31   1.0000      -1.215753       -33.0823 
  32   1.0000      -1.208876       -32.8952 
  33   1.0000      -1.202286       -32.7159 
  34   1.0000      -1.193714       -32.4826 
  35   1.0000      -1.180608       -32.1260 
  36   1.0000      -1.179246       -32.0889 
  37   1.0000      -1.174640       -31.9636 
  38   1.0000      -1.019036       -27.7294 
  39   1.0000      -0.996877       -27.1264 
  40   1.0000      -0.948913       -25.8212 
  41   1.0000      -0.938086       -25.5266 
  42   1.0000      -0.934291       -25.4234 
  43   1.0000      -0.902608       -24.5612 
  44   1.0000      -0.886255       -24.1162 
  45   1.0000      -0.880548       -23.9609 
  46   1.0000      -0.856812       -23.3150 
  47   1.0000      -0.840266       -22.8648 
  48   1.0000      -0.817393       -22.2424 
  49   1.0000      -0.810443       -22.0533 
  50   1.0000      -0.781541       -21.2668 
  51   1.0000      -0.771348       -20.9894 
  52   1.0000      -0.745359       -20.2823 
  53   1.0000      -0.740661       -20.1544 
  54   1.0000      -0.717570       -19.5261 
  55   1.0000      -0.702554       -19.1175 
  56   1.0000      -0.692963       -18.8565 
  57   1.0000      -0.684060       -18.6142 
  58   1.0000      -0.669669       -18.2226 
  59   1.0000      -0.661154       -17.9909 
  60   1.0000      -0.652262       -17.7489 
  61   1.0000      -0.643187       -17.5020 
  62   1.0000      -0.641443       -17.4545 
  63   1.0000      -0.633106       -17.2277 
  64   1.0000      -0.624258       -16.9869 
  65   1.0000      -0.623402       -16.9636 
  66   1.0000      -0.611361       -16.6360 
  67   1.0000      -0.600931       -16.3522 
  68   1.0000      -0.595087       -16.1931 
  69   1.0000      -0.583825       -15.8867 
  70   1.0000      -0.582376       -15.8473 
  71   1.0000      -0.575295       -15.6546 
  72   1.0000      -0.570166       -15.5150 
  73   1.0000      -0.563829       -15.3426 
  74   1.0000      -0.557868       -15.1803 
  75   1.0000      -0.555621       -15.1192 
  76   1.0000      -0.545517       -14.8443 
  77   1.0000      -0.545002       -14.8302 
  78   1.0000      -0.537353       -14.6221 
  79   1.0000      -0.534679       -14.5494 
  80   1.0000      -0.528388       -14.3782 
  81   1.0000      -0.522122       -14.2077 
  82   1.0000      -0.519809       -14.1447 
  83   1.0000      -0.510550       -13.8928 
  84   1.0000      -0.506589       -13.7850 
  85   1.0000      -0.500909       -13.6304 
  86   1.0000      -0.488612       -13.2958 
  87   1.0000      -0.488189       -13.2843 
  88   1.0000      -0.481047       -13.0900 
  89   1.0000      -0.479278       -13.0418 
  90   1.0000      -0.472621       -12.8607 
  91   1.0000      -0.471649       -12.8342 
  92   1.0000      -0.464110       -12.6291 
  93   1.0000      -0.459886       -12.5141 
  94   1.0000      -0.453479       -12.3398 
  95   1.0000      -0.442944       -12.0531 
  96   1.0000      -0.427914       -11.6441 
  97   1.0000      -0.422196       -11.4885 
  98   1.0000      -0.415784       -11.3141 
  99   1.0000      -0.401219       -10.9177 
 100   1.0000      -0.396882       -10.7997 
 101   1.0000      -0.391649       -10.6573 
 102   1.0000      -0.386809       -10.5256 
 103   1.0000      -0.374663       -10.1951 
 104   1.0000      -0.357428        -9.7261 
 105   1.0000      -0.344098        -9.3634 
 106   1.0000      -0.333612        -9.0780 
 107   1.0000      -0.302271        -8.2252 
 108   1.0000      -0.277738        -7.5576 
 109   0.0000      -0.006636        -0.1806 
 110   0.0000       0.009531         0.2594 
 111   0.0000       0.014586         0.3969 
 112   0.0000       0.065556         1.7839 
 113   0.0000       0.074745         2.0339 
 114   0.0000       0.094933         2.5833 
 115   0.0000       0.107157         2.9159 
 116   0.0000       0.111674         3.0388 
 117   0.0000       0.118482         3.2241 
 118   0.0000       0.125116         3.4046 
 119   0.0000       0.129575         3.5259 
 120   0.0000       0.133158         3.6234 
 121   0.0000       0.140428         3.8212 
 122   0.0000       0.147633         4.0173 
 123   0.0000       0.148757         4.0479 
 124   0.0000       0.149916         4.0794 
 125   0.0000       0.160502         4.3675 
 126   0.0000       0.162690         4.4270 
 127   0.0000       0.175130         4.7655 
 128   0.0000       0.179834         4.8935 
 129   0.0000       0.184403         5.0179 
 130   0.0000       0.188315         5.1243 
 131   0.0000       0.190975         5.1967 
 132   0.0000       0.194045         5.2802 
 133   0.0000       0.196646         5.3510 
 134   0.0000       0.202577         5.5124 
 135   0.0000       0.211704         5.7608 
 136   0.0000       0.218063         5.9338 
 137   0.0000       0.226897         6.1742 
 138   0.0000       0.232131         6.3166 
 139   0.0000       0.240394         6.5414 
 140   0.0000       0.249906         6.8003 
 141   0.0000       0.262773         7.1504 
 142   0.0000       0.262876         7.1532 
 143   0.0000       0.281471         7.6592 
 144   0.0000       0.293379         7.9833 
 145   0.0000       0.296716         8.0740 
 146   0.0000       0.304289         8.2801 
 147   0.0000       0.314673         8.5627 
 148   0.0000       0.316812         8.6209 
 149   0.0000       0.324512         8.8304 
 150   0.0000       0.335951         9.1417 
 151   0.0000       0.346006         9.4153 
 152   0.0000       0.351780         9.5724 
 153   0.0000       0.357090         9.7169 
 154   0.0000       0.362496         9.8640 
 155   0.0000       0.369774        10.0620 
 156   0.0000       0.376010        10.2318 
 157   0.0000       0.382697        10.4137 
 158   0.0000       0.387888        10.5550 
 159   0.0000       0.389098        10.5879 
 160   0.0000       0.398213        10.8359 
 161   0.0000       0.405167        11.0252 
 162   0.0000       0.411725        11.2036 
 163   0.0000       0.414768        11.2864 
 164   0.0000       0.420303        11.4370 
 165   0.0000       0.427193        11.6245 
 166   0.0000       0.438574        11.9342 
 167   0.0000       0.440434        11.9848 
 168   0.0000       0.444304        12.0901 
 169   0.0000       0.445208        12.1147 
 170   0.0000       0.450508        12.2590 
 171   0.0000       0.454513        12.3679 
 172   0.0000       0.458780        12.4841 
 173   0.0000       0.463357        12.6086 
 174   0.0000       0.467729        12.7276 
 175   0.0000       0.470209        12.7950 
 176   0.0000       0.473461        12.8835 
 177   0.0000       0.484726        13.1901 
 178   0.0000       0.486618        13.2415 
 179   0.0000       0.490917        13.3585 
 180   0.0000       0.497483        13.5372 
 181   0.0000       0.501613        13.6496 
 182   0.0000       0.503514        13.7013 
 183   0.0000       0.511984        13.9318 
 184   0.0000       0.512279        13.9398 
 185   0.0000       0.515613        14.0305 
 186   0.0000       0.521283        14.1848 
 187   0.0000       0.529649        14.4125 
 188   0.0000       0.529897        14.4192 
 189   0.0000       0.537901        14.6370 
 190   0.0000       0.539759        14.6876 
 191   0.0000       0.542009        14.7488 
 192   0.0000       0.544249        14.8098 
 193   0.0000       0.547883        14.9087 
 194   0.0000       0.549271        14.9464 
 195   0.0000       0.556425        15.1411 
 196   0.0000       0.562667        15.3109 
 197   0.0000       0.569380        15.4936 
 198   0.0000       0.577666        15.7191 
 199   0.0000       0.580068        15.7845 
 200   0.0000       0.585280        15.9263 
 201   0.0000       0.586589        15.9619 
 202   0.0000       0.596916        16.2429 
 203   0.0000       0.602309        16.3897 
 204   0.0000       0.604887        16.4598 
 205   0.0000       0.610685        16.6176 
 206   0.0000       0.615234        16.7414 
 207   0.0000       0.626988        17.0612 
 208   0.0000       0.630614        17.1599 
 209   0.0000       0.634252        17.2589 
 210   0.0000       0.636365        17.3164 
 211   0.0000       0.642949        17.4955 
 212   0.0000       0.653120        17.7723 
 213   0.0000       0.656807        17.8726 
 214   0.0000       0.658453        17.9174 
 215   0.0000       0.664053        18.0698 
 216   0.0000       0.671067        18.2607 
 217   0.0000       0.675102        18.3705 
 218   0.0000       0.681511        18.5449 
 219   0.0000       0.683931        18.6107 
 220   0.0000       0.687755        18.7148 
 221   0.0000       0.693346        18.8669 
 222   0.0000       0.695290        18.9198 
 223   0.0000       0.698300        19.0017 
 224   0.0000       0.699997        19.0479 
 225   0.0000       0.704125        19.1602 
 226   0.0000       0.708923        19.2908 
 227   0.0000       0.712272        19.3819 
 228   0.0000       0.716575        19.4990 
 229   0.0000       0.718267        19.5450 
 230   0.0000       0.721491        19.6328 
 231   0.0000       0.727824        19.8051 
 232   0.0000       0.735866        20.0239 
 233   0.0000       0.747157        20.3312 
 234   0.0000       0.748854        20.3774 
 235   0.0000       0.752696        20.4819 
 236   0.0000       0.766046        20.8452 
 237   0.0000       0.771814        21.0021 
 238   0.0000       0.775922        21.1139 
 239   0.0000       0.778495        21.1839 
 240   0.0000       0.783163        21.3110 
 241   0.0000       0.800096        21.7717 
 242   0.0000       0.820754        22.3338 
 243   0.0000       0.829875        22.5820 
 244   0.0000       0.832514        22.6538 
 245   0.0000       0.837069        22.7778 
 246   0.0000       0.843814        22.9613 
 247   0.0000       0.852801        23.2059 
 248   0.0000       0.856648        23.3106 
 249   0.0000       0.860371        23.4119 
 250   0.0000       0.864801        23.5324 
 251   0.0000       0.867363        23.6021 
[...]
 52:    602.05   0.001961    9.91  0.001016  (-0.018870  0.021426  0.014179)
 53:    606.45   0.011494   58.09  0.005915  ( 0.072416  0.013455  0.022123)
 54:    619.04   0.001099    5.55  0.000554  ( 0.011507 -0.007530  0.019100)
 55:    631.94   0.003894   19.68  0.001923  (-0.012716  0.041039 -0.008767)
 56:    661.91   0.002068   10.45  0.000975  (-0.025539  0.017965  0.000119)
 57:    711.29   0.001557    7.87  0.000683  ( 0.013807 -0.021109  0.006848)
 58:    723.88   0.002320   11.72  0.001000  ( 0.005624 -0.005148 -0.030690)
 59:    751.03   0.000952    4.81  0.000396  ( 0.004350  0.005434  0.018636)
 60:    756.61   0.003040   15.37  0.001254  ( 0.023546  0.007116  0.025475)
 61:    770.73   0.000326    1.65  0.000132  ( 0.000283 -0.006439  0.009515)
 62:    772.37   0.013785   69.66  0.005570  (-0.029949 -0.014507 -0.066799)
 63:    784.10   0.006217   31.42  0.002474  (-0.040045 -0.026401 -0.013187)
 64:    820.29   0.005467   27.63  0.002080  ( 0.037669  0.020971  0.014873)
 65:    833.27   0.013102   66.21  0.004907  (-0.025422  0.054688  0.035633)
 66:    846.69   0.011570   58.47  0.004264  ( 0.061244  0.003427 -0.022400)
 67:    857.92   0.003191   16.12  0.001161  ( 0.009444  0.004779 -0.032382)
 68:    879.28   0.002476   12.51  0.000879  (-0.011416 -0.027242 -0.002492)
 69:    881.64   0.002540   12.83  0.000899  (-0.003242 -0.003135 -0.029641)
 70:    887.17   0.001847    9.34  0.000650  ( 0.006463  0.024164 -0.004914)
 71:    919.76   0.003230   16.32  0.001096  (-0.008516  0.019020  0.025721)
 72:    929.92   0.006765   34.19  0.002270  ( 0.024631 -0.006550 -0.040258)
 73:    932.07   0.000501    2.53  0.000168  ( 0.012647  0.002518  0.001144)
 74:    940.59   0.002644   13.36  0.000877  (-0.021025 -0.005249  0.020185)
 75:    958.94   0.000403    2.03  0.000131  (-0.007050  0.007084  0.005581)
 76:    967.37   0.001458    7.37  0.000470  (-0.007743 -0.016817 -0.011289)
 77:    991.06   0.027483  138.89  0.008654  (-0.085607 -0.011261  0.034617)
 78:   1019.19   0.017286   87.35  0.005293  ( 0.047758  0.009386  0.054071)
 79:   1028.98   0.017758   89.74  0.005385  (-0.052089  0.039816  0.032968)
 80:   1046.46   0.031824  160.83  0.009490  ( 0.070982 -0.032563 -0.058236)
 81:   1059.70   0.023466  118.59  0.006910  ( 0.074223 -0.033049  0.017582)
 82:   1097.55   0.056889  287.49  0.016175  (-0.120428 -0.024905  0.032430)
 83:   1117.35   0.048168  243.42  0.013453  (-0.094749  0.063264  0.021749)
 84:   1133.30   0.026918  136.03  0.007412  (-0.047792  0.031718  0.064202)
 85:   1145.31   0.039942  201.85  0.010883  ( 0.049063  0.091945 -0.004691)
 86:   1176.32   0.000510    2.58  0.000135  (-0.007315  0.006795 -0.005961)
 87:   1177.81   0.003042   15.37  0.000806  ( 0.023751  0.011448  0.010526)
 88:   1190.57   0.005400   27.29  0.001415  ( 0.015282  0.033704  0.006780)
 89:   1204.17   0.005562   28.11  0.001441  (-0.008657  0.003955 -0.036754)
 90:   1206.42   0.006665   33.68  0.001724  (-0.015084  0.033722  0.018955)
 91:   1219.81   0.149641  756.23  0.038283  (-0.189682 -0.047485  0.006983)
 92:   1225.75   0.037545  189.74  0.009559  (-0.096273 -0.008357  0.014838)
 93:   1240.36   0.105995  535.66  0.026667  (-0.158401  0.038954 -0.007688)
 94:   1264.01   0.002858   14.44  0.000706  ( 0.018205  0.014208 -0.013123)
 95:   1269.40   0.006928   35.01  0.001703  ( 0.013725  0.022769 -0.031565)
 96:   1273.86   0.010404   52.58  0.002549  (-0.036735  0.010695 -0.032937)
 97:   1275.54   0.027662  139.79  0.006768  (-0.048357  0.053272  0.039891)
 98:   1290.26   0.019609   99.10  0.004743  (-0.050039  0.011687 -0.045850)
 99:   1296.28   0.009523   48.13  0.002293  ( 0.024703  0.035732  0.020141)
100:   1301.57   0.109906  555.42  0.026351  (-0.157549  0.002903 -0.038996)
101:   1313.51   0.104629  528.75  0.024858  ( 0.121973 -0.092957 -0.036596)
102:   1315.00   0.017658   89.24  0.004190  ( 0.024757 -0.059463 -0.006453)
103:   1324.19   0.063391  320.35  0.014939  ( 0.074313  0.049728  0.083328)
104:   1343.31   0.000838    4.23  0.000195  ( 0.009149  0.001947 -0.010349)
105:   1350.24   0.032012  161.77  0.007398  ( 0.074638 -0.021474 -0.036965)
106:   1363.90   0.032240  162.93  0.007377  (-0.076721  0.013584  0.036139)
107:   1372.34   0.010850   54.83  0.002467  (-0.038488 -0.030542 -0.007286)
108:   1385.76   0.037030  187.13  0.008339  (-0.077558 -0.022572 -0.042592)
109:   1395.38   0.004354   22.00  0.000974  ( 0.020300  0.020842 -0.011277)
110:   1434.15   0.023239  117.44  0.005057  (-0.021286  0.065417  0.018004)
111:   1458.99   0.031315  158.25  0.006698  (-0.027721 -0.058985 -0.049501)
112:   1468.10   0.001061    5.36  0.000225  (-0.008036  0.002222 -0.012486)
113:   1481.91   0.003740   18.90  0.000788  ( 0.010239  0.018266  0.018684)
114:   1484.19   0.002700   13.64  0.000568  (-0.013261 -0.019082  0.005263)
115:   1486.22   0.004819   24.35  0.001012  ( 0.004330  0.014320  0.028071)
116:   1491.60   0.003337   16.86  0.000698  (-0.017387  0.019175  0.005303)
117:   1496.82   0.006972   35.23  0.001454  ( 0.031014 -0.007828  0.020748)
118:   1497.05   0.009078   45.87  0.001892  (-0.020074  0.038574 -0.001158)
119:   1501.09   0.001009    5.10  0.000210  ( 0.001541  0.002269  0.014218)
120:   1564.39   0.071094  359.28  0.014182  (-0.100252 -0.033486 -0.054864)
121:   1566.94   0.012112   61.21  0.002412  ( 0.041456  0.006203 -0.025596)
122:   1635.67   0.185249  936.17  0.035343  ( 0.169864 -0.048325 -0.064453)
123:   1661.44   0.050365  254.52  0.009460  ( 0.027754  0.066124 -0.065706)
124:   1664.26   0.001400    7.08  0.000263  ( 0.001095  0.014868 -0.006349)
125:   1673.93   0.092030  465.08  0.017157  ( 0.080364  0.044854 -0.093201)
126:   1679.45   0.065797  332.51  0.012226  ( 0.083645  0.072313  0.000631)
127:   1714.06   0.018649   94.24  0.003395  ( 0.047165  0.015721  0.030388)
128:   1731.04   0.298381  1507.90  0.053791  ( 0.157016  0.149876 -0.081695)
129:   1755.21   0.005964   30.14  0.001060  ( 0.016624  0.027885  0.002536)
130:   3043.93   0.013795   69.71  0.001414  ( 0.026384 -0.026679  0.002511)
131:   3070.83   0.013734   69.41  0.001396  ( 0.019897 -0.019873 -0.024593)
132:   3101.02   0.000397    2.00  0.000040  (-0.000607 -0.003446 -0.005262)
133:   3102.47   0.000376    1.90  0.000038  ( 0.001407 -0.004971  0.003338)
134:   3118.45   0.010120   51.14  0.001013  ( 0.022421  0.021504  0.006898)
135:   3157.06   0.002556   12.92  0.000253  ( 0.015169  0.004553 -0.001361)
136:   3160.26   0.007619   38.50  0.000752  (-0.020224  0.014356 -0.011715)
137:   3163.15   0.008085   40.86  0.000798  ( 0.003585 -0.004813  0.027597)
138:   3181.14   0.001094    5.53  0.000107  (-0.010025 -0.000115 -0.002600)
139:   3181.90   0.002223   11.24  0.000218  ( 0.010381  0.010382  0.001586)
140:   3184.03   0.004303   21.75  0.000422  (-0.011204 -0.017175 -0.001111)
141:   3184.36   0.000383    1.93  0.000037  ( 0.004734  0.000967  0.003761)
142:   3186.74   0.001390    7.03  0.000136  ( 0.006298  0.000276  0.009818)
143:   3192.58   0.001050    5.30  0.000103  (-0.009134  0.001815  0.003984)
144:   3199.82   0.002744   13.87  0.000268  (-0.000321 -0.009079  0.013606)
145:   3201.31   0.000470    2.38  0.000046  ( 0.005152 -0.004358  0.000543)
146:   3206.33   0.001734    8.76  0.000169  (-0.001431 -0.012805  0.001652)
147:   3206.73   0.001096    5.54  0.000107  (-0.002537  0.004962 -0.008692)
148:   3806.43   0.039150  197.85  0.003210  (-0.038858 -0.039862  0.010523)
149:   3808.34   0.035987  181.86  0.002949  (-0.037564 -0.034606  0.018444)

* The epsilon (eps) is given for a Dirac delta lineshape.
** The dipole moment derivative (T) already includes vibrational overlap.

The first frequency considered to be a vibration is 6
The total number of vibrations considered is 144


--------------------------
THERMOCHEMISTRY AT 298.15K
--------------------------

Temperature         ... 298.15 K
Pressure            ... 1.00 atm
Total Mass          ... 414.39 AMU

Throughout the following assumptions are being made:
  (1) The electronic state is orbitally nondegenerate
      but the spin degeneracy is treated
  (2) There are no thermally accessible electronically excited states
  (3) Hindered rotations indicated by low frequency modes are not
      treated as such but are treated as vibrations and this may
      cause some error
  (4) All equations used are the standard statistical mechanics
      equations for an ideal gas
  (5) All vibrations are strictly harmonic

freq.      10.54  E(vib)   ...       0.58 
freq.      23.02  E(vib)   ...       0.56 
freq.      31.57  E(vib)   ...       0.55 
freq.      33.92  E(vib)   ...       0.55 
freq.      41.76  E(vib)   ...       0.53 
freq.      52.76  E(vib)   ...       0.52 
freq.      61.69  E(vib)   ...       0.51 
freq.      65.17  E(vib)   ...       0.50 
freq.      73.14  E(vib)   ...       0.49 
freq.      83.47  E(vib)   ...       0.48 
freq.      89.80  E(vib)   ...       0.47 
freq.     102.41  E(vib)   ...       0.46 
freq.     118.18  E(vib)   ...       0.44 
freq.     135.03  E(vib)   ...       0.42 
freq.     138.62  E(vib)   ...       0.42 
freq.     157.48  E(vib)   ...       0.40 
freq.     160.77  E(vib)   ...       0.39 
freq.     171.19  E(vib)   ...       0.38 
freq.     176.79  E(vib)   ...       0.38 
freq.     198.31  E(vib)   ...       0.35 
freq.     205.47  E(vib)   ...       0.35 
freq.     225.56  E(vib)   ...       0.33 
freq.     238.48  E(vib)   ...       0.32 
freq.     249.00  E(vib)   ...       0.31 
freq.     253.02  E(vib)   ...       0.30 
freq.     268.39  E(vib)   ...       0.29 
freq.     304.02  E(vib)   ...       0.26 
freq.     311.83  E(vib)   ...       0.25 
freq.     316.87  E(vib)   ...       0.25 
freq.     331.64  E(vib)   ...       0.24 
freq.     340.23  E(vib)   ...       0.23 
freq.     380.39  E(vib)   ...       0.21 
freq.     388.04  E(vib)   ...       0.20 
freq.     399.63  E(vib)   ...       0.19 
freq.     405.85  E(vib)   ...       0.19 
freq.     424.70  E(vib)   ...       0.18 
freq.     431.37  E(vib)   ...       0.18 
freq.     443.87  E(vib)   ...       0.17 
freq.     462.60  E(vib)   ...       0.16 
freq.     480.41  E(vib)   ...       0.15 
freq.     501.75  E(vib)   ...       0.14 
freq.     522.52  E(vib)   ...       0.13 
freq.     541.32  E(vib)   ...       0.12 
freq.     556.49  E(vib)   ...       0.12 
freq.     574.19  E(vib)   ...       0.11 
freq.     583.66  E(vib)   ...       0.11 
freq.     602.05  E(vib)   ...       0.10 
freq.     606.45  E(vib)   ...       0.10 
freq.     619.04  E(vib)   ...       0.09 
freq.     631.94  E(vib)   ...       0.09 
freq.     661.91  E(vib)   ...       0.08 
freq.     711.29  E(vib)   ...       0.07 
freq.     723.88  E(vib)   ...       0.06 
freq.     751.03  E(vib)   ...       0.06 
freq.     756.61  E(vib)   ...       0.06 
freq.     770.73  E(vib)   ...       0.05 
freq.     772.37  E(vib)   ...       0.05 
freq.     784.10  E(vib)   ...       0.05 
freq.     820.29  E(vib)   ...       0.05 
freq.     833.27  E(vib)   ...       0.04 
freq.     846.69  E(vib)   ...       0.04 
freq.     857.92  E(vib)   ...       0.04 
freq.     879.28  E(vib)   ...       0.04 
freq.     881.64  E(vib)   ...       0.04 
freq.     887.17  E(vib)   ...       0.04 
freq.     919.76  E(vib)   ...       0.03 
freq.     929.92  E(vib)   ...       0.03 
freq.     932.07  E(vib)   ...       0.03 
freq.     940.59  E(vib)   ...       0.03 
freq.     958.94  E(vib)   ...       0.03 
freq.     967.37  E(vib)   ...       0.03 
freq.     991.06  E(vib)   ...       0.02 
freq.    1019.19  E(vib)   ...       0.02 
freq.    1028.98  E(vib)   ...       0.02 
freq.    1046.46  E(vib)   ...       0.02 
freq.    1059.70  E(vib)   ...       0.02 
freq.    1097.55  E(vib)   ...       0.02 
freq.    1117.35  E(vib)   ...       0.01 
freq.    1133.30  E(vib)   ...       0.01 
freq.    1145.31  E(vib)   ...       0.01 
freq.    1176.32  E(vib)   ...       0.01 
freq.    1177.81  E(vib)   ...       0.01 
freq.    1190.57  E(vib)   ...       0.01 
freq.    1204.17  E(vib)   ...       0.01 
freq.    1206.42  E(vib)   ...       0.01 
freq.    1219.81  E(vib)   ...       0.01 
freq.    1225.75  E(vib)   ...       0.01 
freq.    1240.36  E(vib)   ...       0.01 
freq.    1264.01  E(vib)   ...       0.01 
freq.    1269.40  E(vib)   ...       0.01 
freq.    1273.86  E(vib)   ...       0.01 
freq.    1275.54  E(vib)   ...       0.01 
freq.    1290.26  E(vib)   ...       0.01 
freq.    1296.28  E(vib)   ...       0.01 
freq.    1301.57  E(vib)   ...       0.01 
freq.    1313.51  E(vib)   ...       0.01 
freq.    1315.00  E(vib)   ...       0.01 
freq.    1324.19  E(vib)   ...       0.01 
freq.    1343.31  E(vib)   ...       0.01 
freq.    1350.24  E(vib)   ...       0.01 
freq.    1363.90  E(vib)   ...       0.01 
freq.    1372.34  E(vib)   ...       0.01 
freq.    1385.76  E(vib)   ...       0.00 
freq.    1395.38  E(vib)   ...       0.00 
freq.    1434.15  E(vib)   ...       0.00 
freq.    1458.99  E(vib)   ...       0.00 
freq.    1468.10  E(vib)   ...       0.00 
freq.    1481.91  E(vib)   ...       0.00 
freq.    1484.19  E(vib)   ...       0.00 
freq.    1486.22  E(vib)   ...       0.00 
freq.    1491.60  E(vib)   ...       0.00 
freq.    1496.82  E(vib)   ...       0.00 
freq.    1497.05  E(vib)   ...       0.00 
freq.    1501.09  E(vib)   ...       0.00 
freq.    1564.39  E(vib)   ...       0.00 
freq.    1566.94  E(vib)   ...       0.00 
freq.    1635.67  E(vib)   ...       0.00 
freq.    1661.44  E(vib)   ...       0.00 
freq.    1664.26  E(vib)   ...       0.00 
freq.    1673.93  E(vib)   ...       0.00 
freq.    1679.45  E(vib)   ...       0.00 
freq.    1714.06  E(vib)   ...       0.00 
freq.    1731.04  E(vib)   ...       0.00 
freq.    1755.21  E(vib)   ...       0.00 
freq.    3043.93  E(vib)   ...       0.00 
freq.    3070.83  E(vib)   ...       0.00 
freq.    3101.02  E(vib)   ...       0.00 
freq.    3102.47  E(vib)   ...       0.00 
freq.    3118.45  E(vib)   ...       0.00 
freq.    3157.06  E(vib)   ...       0.00 
freq.    3160.26  E(vib)   ...       0.00 
freq.    3163.15  E(vib)   ...       0.00 
freq.    3181.14  E(vib)   ...       0.00 
freq.    3181.90  E(vib)   ...       0.00 
freq.    3184.03  E(vib)   ...       0.00 
freq.    3184.36  E(vib)   ...       0.00 
freq.    3186.74  E(vib)   ...       0.00 
freq.    3192.58  E(vib)   ...       0.00 
freq.    3199.82  E(vib)   ...       0.00 
freq.    3201.31  E(vib)   ...       0.00 
freq.    3206.33  E(vib)   ...       0.00 
freq.    3206.73  E(vib)   ...       0.00 
freq.    3806.43  E(vib)   ...       0.00 
freq.    3808.34  E(vib)   ...       0.00 

------------
INNER ENERGY
------------

The inner energy is: U= E(el) + E(ZPE) + E(vib) + E(rot) + E(trans)
    E(el)   - is the total energy from the electronic structure calculation
              = E(kin-el) + E(nuc-el) + E(el-el) + E(nuc-nuc)
    E(ZPE)  - the the zero temperature vibrational energy from the frequency calculation
    E(vib)  - the the finite temperature correction to E(ZPE) due to population
              of excited vibrational states
    E(rot)  - is the rotational thermal energy
    E(trans)- is the translational thermal energy

Summary of contributions to the inner energy U:
Electronic energy                ...  -1468.49842221 Eh
Zero point energy                ...      0.38371479 Eh     240.78 kcal/mol
Thermal vibrational correction   ...      0.02642499 Eh      16.58 kcal/mol
Thermal rotational correction    ...      0.00141627 Eh       0.89 kcal/mol
Thermal translational correction ...      0.00141627 Eh       0.89 kcal/mol
-----------------------------------------------------------------------
Total thermal energy                  -1468.08544988 Eh


Summary of corrections to the electronic energy:
(perhaps to be used in another calculation)
Total thermal correction                  0.02925754 Eh      18.36 kcal/mol
Non-thermal (ZPE) correction              0.38371479 Eh     240.78 kcal/mol
-----------------------------------------------------------------------
Total correction                          0.41297233 Eh     259.14 kcal/mol


--------
ENTHALPY
--------

The enthalpy is H = U + kB*T
                kB is Boltzmann's constant
Total free energy                 ...  -1468.08544988 Eh 
Thermal Enthalpy correction       ...      0.00094421 Eh       0.59 kcal/mol
-----------------------------------------------------------------------
Total Enthalpy                    ...  -1468.08450567 Eh


Note: Only C1 symmetry has been detected, increase convergence thresholds 
      if your molecule has a higher symmetry. Symmetry factor of 1.0 is   
      used for the rotational entropy correction. 
 

Note: Rotational entropy computed according to Herzberg 
Infrared and Raman Spectra, Chapter V,1, Van Nostrand Reinhold, 1945 
Point Group:  C1, Symmetry Number:   1  
Rotational constants in cm-1:     0.010844     0.001677     0.001630 

Vibrational entropy computed according to the QRRHO of S. Grimme
Chem.Eur.J. 2012 18 9955


-------
ENTROPY
-------

The entropy contributions are T*S = T*(S(el)+S(vib)+S(rot)+S(trans))
     S(el)   - electronic entropy
     S(vib)  - vibrational entropy
     S(rot)  - rotational entropy
     S(trans)- translational entropy
The entropies will be listed as multiplied by the temperature to get
units of energy

Electronic entropy                ...      0.00065446 Eh      0.41 kcal/mol
Vibrational entropy               ...      0.04808305 Eh     30.17 kcal/mol
Rotational entropy                ...      0.01769398 Eh     11.10 kcal/mol
Translational entropy             ...      0.02088467 Eh     13.11 kcal/mol
-----------------------------------------------------------------------
Final entropy term                ...      0.08731615 Eh     54.79 kcal/mol

In case the symmetry of your molecule has not been determined correctly
or in case you have a reason to use a different symmetry number we print 
out the resulting rotational entropy values for sn=1,12 :
 --------------------------------------------------------
|  sn= 1 | S(rot)=       0.01769398 Eh     11.10 kcal/mol|
|  sn= 2 | S(rot)=       0.01703952 Eh     10.69 kcal/mol|
|  sn= 3 | S(rot)=       0.01665669 Eh     10.45 kcal/mol|
|  sn= 4 | S(rot)=       0.01638507 Eh     10.28 kcal/mol|
|  sn= 5 | S(rot)=       0.01617438 Eh     10.15 kcal/mol|
|  sn= 6 | S(rot)=       0.01600223 Eh     10.04 kcal/mol|
|  sn= 7 | S(rot)=       0.01585669 Eh      9.95 kcal/mol|
|  sn= 8 | S(rot)=       0.01573061 Eh      9.87 kcal/mol|
|  sn= 9 | S(rot)=       0.01561940 Eh      9.80 kcal/mol|
|  sn=10 | S(rot)=       0.01551992 Eh      9.74 kcal/mol|
|  sn=11 | S(rot)=       0.01542993 Eh      9.68 kcal/mol|
|  sn=12 | S(rot)=       0.01534778 Eh      9.63 kcal/mol|
 --------------------------------------------------------


-------------------
GIBBS FREE ENERGY
-------------------

The Gibbs free energy is G = H - T*S

Total enthalpy                    ...  -1468.08450567 Eh 
Total entropy correction          ...     -0.08731615 Eh    -54.79 kcal/mol
-----------------------------------------------------------------------
Final Gibbs free energy         ...  -1468.17182182 Eh

For completeness - the Gibbs free energy minus the electronic energy
G-E(el)                           ...      0.32660039 Eh    204.94 kcal/mol



Timings for individual modules:

Sum of individual times         ...   362611.602 sec (=6043.527 min)
GTO integral calculation        ...       78.926 sec (=   1.315 min)   0.0 %
SCF iterations                  ...    58476.346 sec (= 974.606 min)  16.1 %
SCF Gradient evaluation         ...    10329.714 sec (= 172.162 min)   2.8 %
Geometry relaxation             ...        5.401 sec (=   0.090 min)   0.0 %
Numerical frequency calculation ...   293721.215 sec (=4895.354 min)  81.0 %
                             ****ORCA TERMINATED NORMALLY****
TOTAL RUN TIME: 4 days 4 hours 34 minutes 39 seconds 938 msec
