 Entering Gaussian System, Link 0=g16
 Initial command:
 /sw/cluster/pub/apps//g16/l1.exe "/data/natrosa/25341/Gau-174559.inp" -scrdir="/data/natrosa/25341/"
 Entering Link 1 = /sw/cluster/pub/apps//g16/l1.exe PID=    174560.
  
 Copyright (c) 1988,1990,1992,1993,1995,1998,2003,2009,2016,
            Gaussian, Inc.  All Rights Reserved.
  
 This is part of the Gaussian(R) 16 program.  It is based on
 the Gaussian(R) 09 system (copyright 2009, Gaussian, Inc.),
 the Gaussian(R) 03 system (copyright 2003, Gaussian, Inc.),
 the Gaussian(R) 98 system (copyright 1998, Gaussian, Inc.),
 the Gaussian(R) 94 system (copyright 1995, Gaussian, Inc.),
 the Gaussian 92(TM) system (copyright 1992, Gaussian, Inc.),
 the Gaussian 90(TM) system (copyright 1990, Gaussian, Inc.),
 the Gaussian 88(TM) system (copyright 1988, Gaussian, Inc.),
 the Gaussian 86(TM) system (copyright 1986, Carnegie Mellon
 University), and the Gaussian 82(TM) system (copyright 1983,
 Carnegie Mellon University). Gaussian is a federally registered
 trademark of Gaussian, Inc.
  
 This software contains proprietary and confidential information,
 including trade secrets, belonging to Gaussian, Inc.
  
 This software is provided under written license and may be
 used, copied, transmitted, or stored only in accord with that
 written license.
  
 The following legend is applicable only to US Government
 contracts under FAR:
  
                    RESTRICTED RIGHTS LEGEND
  
 Use, reproduction and disclosure by the US Government is
 subject to restrictions as set forth in subparagraphs (a)
 and (c) of the Commercial Computer Software - Restricted
 Rights clause in FAR 52.227-19.
  
 Gaussian, Inc.
 340 Quinnipiac St., Bldg. 40, Wallingford CT 06492
  
  
 ---------------------------------------------------------------
 Warning -- This program may not be used in any manner that
 competes with the business of Gaussian, Inc. or will provide
 assistance to any competitor of Gaussian, Inc.  The licensee
 of this program is prohibited from giving any competitor of
 Gaussian, Inc. access to this program.  By using this program,
 the user acknowledges that Gaussian, Inc. is engaged in the
 business of creating and licensing software in the field of
 computational chemistry and represents and warrants to the
 licensee that it is not a competitor of Gaussian, Inc. and that
 it will not use this program in any manner prohibited above.
 ---------------------------------------------------------------
  

 Cite this work as:
 Gaussian 16, Revision A.03,
 M. J. Frisch, G. W. Trucks, H. B. Schlegel, G. E. Scuseria, 
 M. A. Robb, J. R. Cheeseman, G. Scalmani, V. Barone, 
 G. A. Petersson, H. Nakatsuji, X. Li, M. Caricato, A. V. Marenich, 
 J. Bloino, B. G. Janesko, R. Gomperts, B. Mennucci, H. P. Hratchian, 
 J. V. Ortiz, A. F. Izmaylov, J. L. Sonnenberg, D. Williams-Young, 
 F. Ding, F. Lipparini, F. Egidi, J. Goings, B. Peng, A. Petrone, 
 T. Henderson, D. Ranasinghe, V. G. Zakrzewski, J. Gao, N. Rega, 
 G. Zheng, W. Liang, M. Hada, M. Ehara, K. Toyota, R. Fukuda, 
 J. Hasegawa, M. Ishida, T. Nakajima, Y. Honda, O. Kitao, H. Nakai, 
 T. Vreven, K. Throssell, J. A. Montgomery, Jr., J. E. Peralta, 
 F. Ogliaro, M. J. Bearpark, J. J. Heyd, E. N. Brothers, K. N. Kudin, 
 V. N. Staroverov, T. A. Keith, R. Kobayashi, J. Normand, 
 K. Raghavachari, A. P. Rendell, J. C. Burant, S. S. Iyengar, 
 J. Tomasi, M. Cossi, J. M. Millam, M. Klene, C. Adamo, R. Cammi, 
 J. W. Ochterski, R. L. Martin, K. Morokuma, O. Farkas, 
 J. B. Foresman, and D. J. Fox, Gaussian, Inc., Wallingford CT, 2016.
 
 ******************************************
 Gaussian 16:  ES64L-G16RevA.03 25-Dec-2016
                 1-Nov-2024 
 ******************************************
 %chk=CURCUMIN-OPT-FREQ-Reag-1-M06-2X-6-311G-D-298-cont.chk
 ----------------------------------------------------------------------
 # opt=loose freq=noraman M062X/6-311g(d) scrf=(smd,solvent=generic,rea
 d) temperature=298.15
 ----------------------------------------------------------------------
 1/7=-1,18=20,19=15,26=3,38=1,40=2,112=298150/1,3;
 2/9=110,12=2,17=6,18=5,40=1/2;
 3/5=4,6=6,7=1,11=2,25=1,30=1,70=32203,71=1,72=-2,74=-55/1,2,3;
 4//1;
 5/5=2,38=5/2;
 6/7=2,8=2,9=2,10=2,28=1/1;
 7//1,2,3,16;
 1/7=-1,18=20,19=15,26=3/3(2);
 2/9=110/2;
 99//99;
 2/9=110/2;
 3/5=4,6=6,7=1,11=2,25=1,30=1,70=32205,71=1,72=-2,74=-55/1,2,3;
 4/5=5,16=3,69=1/1;
 5/5=2,38=5/2;
 7//1,2,3,16;
 1/7=-1,18=20,19=15,26=3/3(-5);
 2/9=110/2;
 6/7=2,8=2,9=2,10=2,19=2,28=1/1;
 99/9=1/99;
 ----------
 Reagente 1
 ----------
 Symbolic Z-matrix:
 Charge =  0 Multiplicity = 2
 C                     2.20543   0.97952   0.72834 
 H                     1.77266   1.96056   0.55424 
 C                     1.46854   0.05784   1.40774 
 H                     1.83795  -0.94844   1.57361 
 C                     0.13104   0.28569   1.9538 
 O                    -0.47423  -0.62808   2.50386 
 C                     3.52163   0.81694   0.19221 
 C                     4.15836   1.88355  -0.42762 
 C                     4.26549  -0.4822    0.28756 
 C                     5.49155   1.82398  -0.82971 
 H                     3.61425   2.81323  -0.55815 
 C                     5.71943  -0.44375  -0.03693 
 H                     4.09677  -1.00488   1.22902 
 C                     6.29015   0.68193  -0.59474 
 H                     5.95218   2.69229  -1.29116 
 O                     7.62395   0.69177  -0.88433 
 H                     7.86797   1.55143  -1.25356 
 O                     6.30356  -1.62012   0.26038 
 C                     7.49939  -2.06628  -0.41182 
 H                     8.37003  -1.50355  -0.08154 
 H                     7.60185  -3.11324  -0.13233 
 H                     7.38275  -1.98166  -1.49284 
 C                    -3.16707   0.6078    0.86681 
 H                    -2.77304   0.29669   1.83023 
 C                    -2.42505   1.44151   0.10664 
 H                    -2.7616    1.75979  -0.87596 
 C                    -1.114     1.98326   0.47453 
 O                    -0.49482   2.68766  -0.31382 
 C                    -4.46213   0.03079   0.53222 
 C                    -5.06804  -0.84626   1.44556 
 C                    -5.14943   0.31171  -0.66531 
 C                    -6.29882  -1.42926   1.17176 
 H                    -4.56325  -1.08097   2.37696 
 C                    -6.376    -0.26189  -0.95228 
 H                    -4.73      0.98189  -1.40718 
 C                    -6.96087  -1.15313  -0.02468 
 H                    -6.74888  -2.11542   1.88422 
 O                    -8.15089  -1.71561  -0.35573 
 H                    -8.44083  -2.30646   0.35361 
 O                    -6.96812  -0.00467  -2.16049 
 C                    -8.177     0.76883  -2.10999 
 H                    -7.99561   1.73754  -1.63292 
 H                    -8.47652   0.92785  -3.14554 
 H                    -8.97018   0.23871  -1.57978 
 C                    -0.51542   1.67526   1.85385 
 H                    -1.28483   1.71872   2.62443 
 H                     0.21766   2.4554    2.05946 
 O                     2.82873  -2.33517  -0.3085 
 O                     3.90428  -1.38689  -1.93194 
 N                     3.604    -1.51223  -0.75972 
 

 GradGradGradGradGradGradGradGradGradGradGradGradGradGradGradGradGradGrad
 Berny optimization.
 Initialization pass.
                           ----------------------------
                           !    Initial Parameters    !
                           ! (Angstroms and Degrees)  !
 --------------------------                            --------------------------
 ! Name  Definition              Value          Derivative Info.                !
 --------------------------------------------------------------------------------
 ! R1    R(1,2)                  1.0863         estimate D2E/DX2                !
 ! R2    R(1,3)                  1.3616         estimate D2E/DX2                !
 ! R3    R(1,7)                  1.4305         estimate D2E/DX2                !
 ! R4    R(3,4)                  1.0847         estimate D2E/DX2                !
 ! R5    R(3,5)                  1.4625         estimate D2E/DX2                !
 ! R6    R(5,6)                  1.2263         estimate D2E/DX2                !
 ! R7    R(5,45)                 1.5358         estimate D2E/DX2                !
 ! R8    R(7,8)                  1.3883         estimate D2E/DX2                !
 ! R9    R(7,9)                  1.5001         estimate D2E/DX2                !
 ! R10   R(8,10)                 1.3938         estimate D2E/DX2                !
 ! R11   R(8,11)                 1.0851         estimate D2E/DX2                !
 ! R12   R(9,12)                 1.4902         estimate D2E/DX2                !
 ! R13   R(9,13)                 1.09           estimate D2E/DX2                !
 ! R14   R(9,50)                 1.611          estimate D2E/DX2                !
 ! R15   R(10,14)                1.4132         estimate D2E/DX2                !
 ! R16   R(10,15)                1.0859         estimate D2E/DX2                !
 ! R17   R(12,14)                1.3799         estimate D2E/DX2                !
 ! R18   R(12,18)                1.3466         estimate D2E/DX2                !
 ! R19   R(14,16)                1.3649         estimate D2E/DX2                !
 ! R20   R(16,17)                0.9669         estimate D2E/DX2                !
 ! R21   R(18,19)                1.4425         estimate D2E/DX2                !
 ! R22   R(19,20)                1.088          estimate D2E/DX2                !
 ! R23   R(19,21)                1.0885         estimate D2E/DX2                !
 ! R24   R(19,22)                1.0906         estimate D2E/DX2                !
 ! R25   R(23,24)                1.0864         estimate D2E/DX2                !
 ! R26   R(23,25)                1.3504         estimate D2E/DX2                !
 ! R27   R(23,29)                1.4567         estimate D2E/DX2                !
 ! R28   R(25,26)                1.0863         estimate D2E/DX2                !
 ! R29   R(25,27)                1.4655         estimate D2E/DX2                !
 ! R30   R(27,28)                1.2252         estimate D2E/DX2                !
 ! R31   R(27,45)                1.5348         estimate D2E/DX2                !
 ! R32   R(29,30)                1.4038         estimate D2E/DX2                !
 ! R33   R(29,31)                1.409          estimate D2E/DX2                !
 ! R34   R(30,32)                1.3891         estimate D2E/DX2                !
 ! R35   R(30,33)                1.0851         estimate D2E/DX2                !
 ! R36   R(31,34)                1.3841         estimate D2E/DX2                !
 ! R37   R(31,35)                1.0842         estimate D2E/DX2                !
 ! R38   R(32,36)                1.395          estimate D2E/DX2                !
 ! R39   R(32,37)                1.0867         estimate D2E/DX2                !
 ! R40   R(34,36)                1.4131         estimate D2E/DX2                !
 ! R41   R(34,40)                1.3699         estimate D2E/DX2                !
 ! R42   R(36,38)                1.3573         estimate D2E/DX2                !
 ! R43   R(38,39)                0.9676         estimate D2E/DX2                !
 ! R44   R(40,41)                1.4361         estimate D2E/DX2                !
 ! R45   R(41,42)                1.0949         estimate D2E/DX2                !
 ! R46   R(41,43)                1.0897         estimate D2E/DX2                !
 ! R47   R(41,44)                1.0915         estimate D2E/DX2                !
 ! R48   R(45,46)                1.0898         estimate D2E/DX2                !
 ! R49   R(45,47)                1.0901         estimate D2E/DX2                !
 ! R50   R(48,50)                1.2173         estimate D2E/DX2                !
 ! R51   R(49,50)                1.2165         estimate D2E/DX2                !
 ! A1    A(2,1,3)              118.403          estimate D2E/DX2                !
 ! A2    A(2,1,7)              114.1508         estimate D2E/DX2                !
 ! A3    A(3,1,7)              127.4461         estimate D2E/DX2                !
 ! A4    A(1,3,4)              121.3289         estimate D2E/DX2                !
 ! A5    A(1,3,5)              125.1517         estimate D2E/DX2                !
 ! A6    A(4,3,5)              113.5083         estimate D2E/DX2                !
 ! A7    A(3,5,6)              120.1817         estimate D2E/DX2                !
 ! A8    A(3,5,45)             120.1051         estimate D2E/DX2                !
 ! A9    A(6,5,45)             119.71           estimate D2E/DX2                !
 ! A10   A(1,7,8)              120.1343         estimate D2E/DX2                !
 ! A11   A(1,7,9)              122.0649         estimate D2E/DX2                !
 ! A12   A(8,7,9)              117.797          estimate D2E/DX2                !
 ! A13   A(7,8,10)             122.3221         estimate D2E/DX2                !
 ! A14   A(7,8,11)             118.816          estimate D2E/DX2                !
 ! A15   A(10,8,11)            118.7873         estimate D2E/DX2                !
 ! A16   A(7,9,12)             116.5919         estimate D2E/DX2                !
 ! A17   A(7,9,13)             113.1699         estimate D2E/DX2                !
 ! A18   A(7,9,50)             107.9868         estimate D2E/DX2                !
 ! A19   A(12,9,13)            110.5779         estimate D2E/DX2                !
 ! A20   A(12,9,50)            105.9952         estimate D2E/DX2                !
 ! A21   A(13,9,50)            101.0311         estimate D2E/DX2                !
 ! A22   A(8,10,14)            121.8094         estimate D2E/DX2                !
 ! A23   A(8,10,15)            119.6162         estimate D2E/DX2                !
 ! A24   A(14,10,15)           118.4994         estimate D2E/DX2                !
 ! A25   A(9,12,14)            120.8382         estimate D2E/DX2                !
 ! A26   A(9,12,18)            110.6466         estimate D2E/DX2                !
 ! A27   A(14,12,18)           128.4971         estimate D2E/DX2                !
 ! A28   A(10,14,12)           119.5201         estimate D2E/DX2                !
 ! A29   A(10,14,16)           120.7375         estimate D2E/DX2                !
 ! A30   A(12,14,16)           119.7245         estimate D2E/DX2                !
 ! A31   A(14,16,17)           109.5151         estimate D2E/DX2                !
 ! A32   A(12,18,19)           121.7955         estimate D2E/DX2                !
 ! A33   A(18,19,20)           111.2191         estimate D2E/DX2                !
 ! A34   A(18,19,21)           104.8255         estimate D2E/DX2                !
 ! A35   A(18,19,22)           110.4405         estimate D2E/DX2                !
 ! A36   A(20,19,21)           110.1342         estimate D2E/DX2                !
 ! A37   A(20,19,22)           110.2646         estimate D2E/DX2                !
 ! A38   A(21,19,22)           109.8298         estimate D2E/DX2                !
 ! A39   A(24,23,25)           118.4715         estimate D2E/DX2                !
 ! A40   A(24,23,29)           114.3743         estimate D2E/DX2                !
 ! A41   A(25,23,29)           127.1396         estimate D2E/DX2                !
 ! A42   A(23,25,26)           121.3213         estimate D2E/DX2                !
 ! A43   A(23,25,27)           125.3447         estimate D2E/DX2                !
 ! A44   A(26,25,27)           113.3234         estimate D2E/DX2                !
 ! A45   A(25,27,28)           120.2074         estimate D2E/DX2                !
 ! A46   A(25,27,45)           120.0211         estimate D2E/DX2                !
 ! A47   A(28,27,45)           119.7707         estimate D2E/DX2                !
 ! A48   A(23,29,30)           118.8009         estimate D2E/DX2                !
 ! A49   A(23,29,31)           123.3589         estimate D2E/DX2                !
 ! A50   A(30,29,31)           117.8396         estimate D2E/DX2                !
 ! A51   A(29,30,32)           121.0915         estimate D2E/DX2                !
 ! A52   A(29,30,33)           119.5273         estimate D2E/DX2                !
 ! A53   A(32,30,33)           119.3786         estimate D2E/DX2                !
 ! A54   A(29,31,34)           121.7248         estimate D2E/DX2                !
 ! A55   A(29,31,35)           121.0701         estimate D2E/DX2                !
 ! A56   A(34,31,35)           117.202          estimate D2E/DX2                !
 ! A57   A(30,32,36)           120.4284         estimate D2E/DX2                !
 ! A58   A(30,32,37)           120.1796         estimate D2E/DX2                !
 ! A59   A(36,32,37)           119.3877         estimate D2E/DX2                !
 ! A60   A(31,34,36)           119.4754         estimate D2E/DX2                !
 ! A61   A(31,34,40)           119.2152         estimate D2E/DX2                !
 ! A62   A(36,34,40)           121.2308         estimate D2E/DX2                !
 ! A63   A(32,36,34)           119.4334         estimate D2E/DX2                !
 ! A64   A(32,36,38)           122.9066         estimate D2E/DX2                !
 ! A65   A(34,36,38)           117.6566         estimate D2E/DX2                !
 ! A66   A(36,38,39)           109.6924         estimate D2E/DX2                !
 ! A67   A(34,40,41)           115.721          estimate D2E/DX2                !
 ! A68   A(40,41,42)           110.6339         estimate D2E/DX2                !
 ! A69   A(40,41,43)           106.056          estimate D2E/DX2                !
 ! A70   A(40,41,44)           111.545          estimate D2E/DX2                !
 ! A71   A(42,41,43)           109.2983         estimate D2E/DX2                !
 ! A72   A(42,41,44)           109.7817         estimate D2E/DX2                !
 ! A73   A(43,41,44)           109.4378         estimate D2E/DX2                !
 ! A74   A(5,45,27)            113.8416         estimate D2E/DX2                !
 ! A75   A(5,45,46)            106.6922         estimate D2E/DX2                !
 ! A76   A(5,45,47)            110.6202         estimate D2E/DX2                !
 ! A77   A(27,45,46)           110.6155         estimate D2E/DX2                !
 ! A78   A(27,45,47)           106.7485         estimate D2E/DX2                !
 ! A79   A(46,45,47)           108.2321         estimate D2E/DX2                !
 ! A80   A(9,50,48)            116.9217         estimate D2E/DX2                !
 ! A81   A(9,50,49)            117.3335         estimate D2E/DX2                !
 ! A82   A(48,50,49)           125.733          estimate D2E/DX2                !
 ! D1    D(2,1,3,4)            177.5302         estimate D2E/DX2                !
 ! D2    D(2,1,3,5)             -1.1774         estimate D2E/DX2                !
 ! D3    D(7,1,3,4)             -2.3134         estimate D2E/DX2                !
 ! D4    D(7,1,3,5)            178.979          estimate D2E/DX2                !
 ! D5    D(2,1,7,8)              2.9654         estimate D2E/DX2                !
 ! D6    D(2,1,7,9)           -177.7608         estimate D2E/DX2                !
 ! D7    D(3,1,7,8)           -177.1853         estimate D2E/DX2                !
 ! D8    D(3,1,7,9)              2.0885         estimate D2E/DX2                !
 ! D9    D(1,3,5,6)            176.9935         estimate D2E/DX2                !
 ! D10   D(1,3,5,45)            -3.6598         estimate D2E/DX2                !
 ! D11   D(4,3,5,6)             -1.8027         estimate D2E/DX2                !
 ! D12   D(4,3,5,45)           177.5441         estimate D2E/DX2                !
 ! D13   D(3,5,45,27)           79.046          estimate D2E/DX2                !
 ! D14   D(3,5,45,46)         -158.6512         estimate D2E/DX2                !
 ! D15   D(3,5,45,47)          -41.1465         estimate D2E/DX2                !
 ! D16   D(6,5,45,27)         -101.6041         estimate D2E/DX2                !
 ! D17   D(6,5,45,46)           20.6987         estimate D2E/DX2                !
 ! D18   D(6,5,45,47)          138.2033         estimate D2E/DX2                !
 ! D19   D(1,7,8,10)           172.5484         estimate D2E/DX2                !
 ! D20   D(1,7,8,11)            -4.2722         estimate D2E/DX2                !
 ! D21   D(9,7,8,10)            -6.7559         estimate D2E/DX2                !
 ! D22   D(9,7,8,11)           176.4235         estimate D2E/DX2                !
 ! D23   D(1,7,9,12)          -167.1296         estimate D2E/DX2                !
 ! D24   D(1,7,9,13)           -37.2046         estimate D2E/DX2                !
 ! D25   D(1,7,9,50)            73.7589         estimate D2E/DX2                !
 ! D26   D(8,7,9,12)            12.1604         estimate D2E/DX2                !
 ! D27   D(8,7,9,13)           142.0854         estimate D2E/DX2                !
 ! D28   D(8,7,9,50)          -106.9511         estimate D2E/DX2                !
 ! D29   D(7,8,10,14)           -1.8583         estimate D2E/DX2                !
 ! D30   D(7,8,10,15)         -178.6594         estimate D2E/DX2                !
 ! D31   D(11,8,10,14)         174.9632         estimate D2E/DX2                !
 ! D32   D(11,8,10,15)          -1.8379         estimate D2E/DX2                !
 ! D33   D(7,9,12,14)           -9.8052         estimate D2E/DX2                !
 ! D34   D(7,9,12,18)          171.6191         estimate D2E/DX2                !
 ! D35   D(13,9,12,14)        -140.9473         estimate D2E/DX2                !
 ! D36   D(13,9,12,18)          40.477          estimate D2E/DX2                !
 ! D37   D(50,9,12,14)         110.3756         estimate D2E/DX2                !
 ! D38   D(50,9,12,18)         -68.2001         estimate D2E/DX2                !
 ! D39   D(7,9,50,48)         -100.4217         estimate D2E/DX2                !
 ! D40   D(7,9,50,49)           78.4017         estimate D2E/DX2                !
 ! D41   D(12,9,50,48)         133.9408         estimate D2E/DX2                !
 ! D42   D(12,9,50,49)         -47.2358         estimate D2E/DX2                !
 ! D43   D(13,9,50,48)          18.5748         estimate D2E/DX2                !
 ! D44   D(13,9,50,49)        -162.6019         estimate D2E/DX2                !
 ! D45   D(8,10,14,12)           4.6059         estimate D2E/DX2                !
 ! D46   D(8,10,14,16)        -173.8534         estimate D2E/DX2                !
 ! D47   D(15,10,14,12)       -178.5585         estimate D2E/DX2                !
 ! D48   D(15,10,14,16)          2.9822         estimate D2E/DX2                !
 ! D49   D(9,12,14,10)           1.603          estimate D2E/DX2                !
 ! D50   D(9,12,14,16)        -179.922          estimate D2E/DX2                !
 ! D51   D(18,12,14,10)        179.8999         estimate D2E/DX2                !
 ! D52   D(18,12,14,16)         -1.6251         estimate D2E/DX2                !
 ! D53   D(9,12,18,19)         154.2733         estimate D2E/DX2                !
 ! D54   D(14,12,18,19)        -24.1641         estimate D2E/DX2                !
 ! D55   D(10,14,16,17)         -0.6436         estimate D2E/DX2                !
 ! D56   D(12,14,16,17)       -179.0997         estimate D2E/DX2                !
 ! D57   D(12,18,19,20)         73.2466         estimate D2E/DX2                !
 ! D58   D(12,18,19,21)       -167.7581         estimate D2E/DX2                !
 ! D59   D(12,18,19,22)        -49.5199         estimate D2E/DX2                !
 ! D60   D(24,23,25,26)        178.2742         estimate D2E/DX2                !
 ! D61   D(24,23,25,27)         -0.4588         estimate D2E/DX2                !
 ! D62   D(29,23,25,26)         -0.2508         estimate D2E/DX2                !
 ! D63   D(29,23,25,27)       -178.9838         estimate D2E/DX2                !
 ! D64   D(24,23,29,30)         -0.1005         estimate D2E/DX2                !
 ! D65   D(24,23,29,31)        179.5845         estimate D2E/DX2                !
 ! D66   D(25,23,29,30)        178.476          estimate D2E/DX2                !
 ! D67   D(25,23,29,31)         -1.839          estimate D2E/DX2                !
 ! D68   D(23,25,27,28)        176.801          estimate D2E/DX2                !
 ! D69   D(23,25,27,45)         -3.5288         estimate D2E/DX2                !
 ! D70   D(26,25,27,28)         -2.0203         estimate D2E/DX2                !
 ! D71   D(26,25,27,45)        177.6498         estimate D2E/DX2                !
 ! D72   D(25,27,45,5)          79.5384         estimate D2E/DX2                !
 ! D73   D(25,27,45,46)        -40.5777         estimate D2E/DX2                !
 ! D74   D(25,27,45,47)       -158.1125         estimate D2E/DX2                !
 ! D75   D(28,27,45,5)        -100.79           estimate D2E/DX2                !
 ! D76   D(28,27,45,46)        139.0939         estimate D2E/DX2                !
 ! D77   D(28,27,45,47)         21.559          estimate D2E/DX2                !
 ! D78   D(23,29,30,32)       -179.6438         estimate D2E/DX2                !
 ! D79   D(23,29,30,33)         -0.2396         estimate D2E/DX2                !
 ! D80   D(31,29,30,32)          0.6538         estimate D2E/DX2                !
 ! D81   D(31,29,30,33)       -179.942          estimate D2E/DX2                !
 ! D82   D(23,29,31,34)        179.6291         estimate D2E/DX2                !
 ! D83   D(23,29,31,35)          0.2914         estimate D2E/DX2                !
 ! D84   D(30,29,31,34)         -0.6831         estimate D2E/DX2                !
 ! D85   D(30,29,31,35)        179.9792         estimate D2E/DX2                !
 ! D86   D(29,30,32,36)          0.0327         estimate D2E/DX2                !
 ! D87   D(29,30,32,37)        179.2678         estimate D2E/DX2                !
 ! D88   D(33,30,32,36)       -179.3725         estimate D2E/DX2                !
 ! D89   D(33,30,32,37)         -0.1373         estimate D2E/DX2                !
 ! D90   D(29,31,34,36)          0.0255         estimate D2E/DX2                !
 ! D91   D(29,31,34,40)       -176.7897         estimate D2E/DX2                !
 ! D92   D(35,31,34,36)        179.3877         estimate D2E/DX2                !
 ! D93   D(35,31,34,40)          2.5725         estimate D2E/DX2                !
 ! D94   D(30,32,36,34)         -0.7068         estimate D2E/DX2                !
 ! D95   D(30,32,36,38)        178.5987         estimate D2E/DX2                !
 ! D96   D(37,32,36,34)       -179.948          estimate D2E/DX2                !
 ! D97   D(37,32,36,38)         -0.6425         estimate D2E/DX2                !
 ! D98   D(31,34,36,32)          0.6759         estimate D2E/DX2                !
 ! D99   D(31,34,36,38)       -178.6659         estimate D2E/DX2                !
 ! D100  D(40,34,36,32)        177.425          estimate D2E/DX2                !
 ! D101  D(40,34,36,38)         -1.9167         estimate D2E/DX2                !
 ! D102  D(31,34,40,41)       -112.7159         estimate D2E/DX2                !
 ! D103  D(36,34,40,41)         70.5266         estimate D2E/DX2                !
 ! D104  D(32,36,38,39)          0.281          estimate D2E/DX2                !
 ! D105  D(34,36,38,39)        179.5981         estimate D2E/DX2                !
 ! D106  D(34,40,41,42)         58.3262         estimate D2E/DX2                !
 ! D107  D(34,40,41,43)        176.7408         estimate D2E/DX2                !
 ! D108  D(34,40,41,44)        -64.1854         estimate D2E/DX2                !
 --------------------------------------------------------------------------------
 Trust Radius=3.00D-01 FncErr=1.00D-07 GrdErr=1.00D-06 EigMax=2.50D+02 EigMin=1.00D-04
 Number of steps in this run=    251 maximum allowed number of steps=    300.
 GradGradGradGradGradGradGradGradGradGradGradGradGradGradGradGradGradGrad

                          Input orientation:                          
 ---------------------------------------------------------------------
 Center     Atomic      Atomic             Coordinates (Angstroms)
 Number     Number       Type             X           Y           Z
 ---------------------------------------------------------------------
      1          6           0        2.205432    0.979520    0.728341
      2          1           0        1.772659    1.960559    0.554237
      3          6           0        1.468544    0.057835    1.407735
      4          1           0        1.837952   -0.948437    1.573614
      5          6           0        0.131040    0.285692    1.953802
      6          8           0       -0.474226   -0.628084    2.503857
      7          6           0        3.521633    0.816942    0.192213
      8          6           0        4.158356    1.883547   -0.427617
      9          6           0        4.265491   -0.482196    0.287564
     10          6           0        5.491546    1.823975   -0.829709
     11          1           0        3.614248    2.813234   -0.558149
     12          6           0        5.719426   -0.443750   -0.036926
     13          1           0        4.096773   -1.004881    1.229023
     14          6           0        6.290150    0.681927   -0.594739
     15          1           0        5.952176    2.692289   -1.291156
     16          8           0        7.623948    0.691767   -0.884325
     17          1           0        7.867974    1.551431   -1.253560
     18          8           0        6.303558   -1.620118    0.260379
     19          6           0        7.499391   -2.066281   -0.411821
     20          1           0        8.370033   -1.503548   -0.081542
     21          1           0        7.601849   -3.113243   -0.132329
     22          1           0        7.382747   -1.981661   -1.492842
     23          6           0       -3.167070    0.607804    0.866807
     24          1           0       -2.773038    0.296686    1.830233
     25          6           0       -2.425052    1.441511    0.106641
     26          1           0       -2.761604    1.759787   -0.875963
     27          6           0       -1.114004    1.983255    0.474529
     28          8           0       -0.494815    2.687661   -0.313816
     29          6           0       -4.462135    0.030793    0.532222
     30          6           0       -5.068039   -0.846255    1.445558
     31          6           0       -5.149434    0.311709   -0.665310
     32          6           0       -6.298818   -1.429257    1.171760
     33          1           0       -4.563254   -1.080968    2.376958
     34          6           0       -6.375995   -0.261891   -0.952282
     35          1           0       -4.729995    0.981890   -1.407177
     36          6           0       -6.960870   -1.153125   -0.024681
     37          1           0       -6.748881   -2.115424    1.884217
     38          8           0       -8.150893   -1.715606   -0.355725
     39          1           0       -8.440829   -2.306464    0.353611
     40          8           0       -6.968120   -0.004673   -2.160492
     41          6           0       -8.177003    0.768826   -2.109988
     42          1           0       -7.995608    1.737536   -1.632917
     43          1           0       -8.476522    0.927854   -3.145538
     44          1           0       -8.970180    0.238712   -1.579783
     45          6           0       -0.515416    1.675256    1.853845
     46          1           0       -1.284827    1.718716    2.624431
     47          1           0        0.217658    2.455400    2.059464
     48          8           0        2.828725   -2.335166   -0.308501
     49          8           0        3.904275   -1.386889   -1.931935
     50          7           0        3.603999   -1.512232   -0.759718
 ---------------------------------------------------------------------
                    Distance matrix (angstroms):
                    1          2          3          4          5
     1  C    0.000000
     2  H    1.086297   0.000000
     3  C    1.361647   2.107440   0.000000
     4  H    2.136948   3.083123   1.084694   0.000000
     5  C    2.507240   2.731094   1.462541   2.140366   0.000000
     6  O    3.594081   3.943423   2.333736   2.512796   1.226334
     7  C    1.430472   2.120809   2.503779   2.803500   3.857660
     8  C    2.442829   2.580992   3.733206   4.172449   4.944044
     9  C    2.564126   3.500340   3.060936   2.786441   4.523238
    10  C    3.733520   3.970401   4.930512   5.177932   6.232918
    11  H    2.646191   2.314283   4.007614   4.674378   4.983082
    12  C    3.867749   4.659093   4.517591   4.232539   5.977051
    13  H    2.786701   3.827620   2.840579   2.285651   4.232957
    14  C    4.303954   4.833505   5.258068   5.213627   6.677327
    15  H    4.588032   4.627015   5.858952   6.195856   7.085696
    16  O    5.660725   6.157668   6.598819   6.496883   8.022689
    17  H    6.026558   6.370901   7.089854   7.113608   8.470503
    18  O    4.875627   5.782443   5.244932   4.702912   6.678306
    19  C    6.213121   7.067119   6.647839   6.102739   8.088297
    20  H    6.695061   7.478609   7.230934   6.761344   8.673235
    21  H    6.827355   7.758498   7.074246   6.388985   8.468630
    22  H    6.364498   7.155747   6.895701   6.419926   8.343111
    23  C    5.387126   5.131137   4.699360   5.288829   3.487527
    24  H    5.144472   5.005996   4.269259   4.783034   2.906727
    25  C    4.694819   4.253296   4.332147   5.102653   3.358799
    26  H    5.277694   4.758710   5.099615   5.872889   4.306729
    27  C    3.477148   2.887852   3.353755   4.303121   2.572956
    28  O    3.360829   2.534488   3.706009   4.714383   3.362029
    29  C    6.737581   6.526648   5.995015   6.460223   4.814885
    30  C    7.533342   7.447671   6.598919   6.907934   5.345095
    31  C    7.515470   7.219513   6.939712   7.444751   5.894390
    32  C    8.849921   8.776157   7.911955   8.160864   6.700426
    33  H    7.264892   7.260647   6.214407   6.452780   4.907465
    34  C    8.832128   8.579595   8.198091   8.620929   7.147494
    35  H    7.256762   6.862175   6.870189   7.466539   5.950675
    36  C    9.441203   9.290032   8.635581   8.945150   7.501985
    37  H    9.544341   9.539346   8.513293   8.671334   7.287216
    38  O   10.756039  10.621634   9.939238  10.202349   8.827770
    39  H   11.148138  11.070821  10.241912  10.439635   9.097078
    40  O    9.667887   9.361256   9.160429   9.611511   8.210347
    41  C   10.765475  10.368900  10.291572  10.808202   9.261284
    42  H   10.498159  10.012613  10.081524  10.686215   9.000823
    43  H   11.362823  10.945343  10.972400  11.496923  10.025256
    44  H   11.435495  11.087262  10.859325  11.321173   9.763229
    45  C    3.025528   2.646822   2.598300   3.535624   1.535834
    46  H    4.040232   3.700326   3.438012   4.239065   2.123201
    47  H    2.810935   2.220046   2.781687   3.800988   2.174006
    48  O    3.528552   4.506977   3.243765   2.539095   4.389125
    49  O    3.945000   4.682974   4.378745   4.092775   5.668667
    50  N    3.221667   4.140116   3.423906   2.980138   4.759954
                    6          7          8          9         10
     6  O    0.000000
     7  C    4.837219   0.000000
     8  C    6.030145   1.388255   0.000000
     9  C    5.234325   1.500059   2.473803   0.000000
    10  C    7.260557   2.437006   1.393780   2.840763   0.000000
    11  H    6.159072   2.134667   1.085085   3.463987   2.139305
    12  C    6.697080   2.544041   2.829468   1.490201   2.413092
    13  H    4.760379   2.173661   3.330355   1.089959   3.766457
    14  C    7.554747   2.881355   2.452828   2.496575   1.413242
    15  H    8.168577   3.409523   2.148849   3.926145   1.085856
    16  O    8.877061   4.243064   3.693135   3.745764   2.414957
    17  H    9.405359   4.639010   3.814938   4.414588   2.429267
    18  O    7.208029   3.699056   4.165441   2.334378   3.702625
    19  C    8.610932   4.949787   5.173384   3.668320   4.397745
    20  H    9.255898   5.382063   5.415755   4.245782   4.462942
    21  H    8.851468   5.674491   6.075586   4.269661   5.414410
    22  H    8.918397   5.057647   5.145020   3.890440   4.301076
    23  C    3.385079   6.725888   7.547511   7.534360   8.906676
    24  H    2.567782   6.525079   7.460579   7.247577   8.815399
    25  C    3.719622   5.980006   6.619825   6.963961   7.980949
    26  H    4.728341   6.442750   6.935573   7.467285   8.253529
    27  C    3.368468   4.788436   5.349915   5.920504   6.734961
    28  O    4.351307   4.459541   4.723510   5.750666   6.070306
    29  C    4.497208   8.029582   8.869434   8.746112  10.205201
    30  C    4.719186   8.838527   9.802396   9.412134  11.127075
    31  C    5.725766   8.728001   9.442570   9.496266  10.749160
    32  C    6.028452  10.121570  11.085358  10.643465  12.393631
    33  H    4.115988   8.587233   9.629147   9.092350  10.946251
    34  C    6.849078  10.021816  10.763398  10.715735  12.050078
    35  H    5.999981   8.406820   8.987508   9.270084  10.272413
    36  C    6.981814  10.668227  11.533470  11.250725  12.828634
    37  H    6.478227  10.814116  11.845006  11.248694  13.142006
    38  O    8.263845  11.956668  12.824846  12.494067  14.102108
    39  H    8.420646  12.364555  13.300600  12.836779  14.579844
    40  O    8.019692  10.781706  11.417824  11.507173  12.663262
    41  C    9.086897  11.923109  12.499362  12.732987  13.768867
    42  H    8.903945  11.697240  12.214455  12.607538  13.511326
    43  H    9.918334  12.454261  12.959189  13.271523  14.187072
    44  H    9.466186  12.630111  13.281243  13.386175  14.567676
    45  C    2.393656   4.449212   5.205055   5.474021   6.580818
    46  H    2.485776   5.461771   6.242628   6.411785   7.606668
    47  H    3.191248   4.133693   4.694858   5.306039   6.046479
    48  O    4.661864   3.265979   4.424889   2.419316   4.965957
    49  O    6.278798   3.084686   3.608778   2.423865   3.747530
    50  N    5.297599   2.517540   3.456721   1.611008   3.833798
                   11         12         13         14         15
    11  H    0.000000
    12  C    3.912977   0.000000
    13  H    4.243208   2.133190   0.000000
    14  C    3.421149   1.379866   3.313960   0.000000
    15  H    2.453127   3.385558   4.843851   2.154247   0.000000
    16  O    4.548044   2.373750   4.448125   1.364908   2.638640
    17  H    4.491094   3.174461   5.188440   1.918231   2.230079
    18  O    5.249475   1.346641   2.487305   2.455772   4.596475
    19  C    6.239024   2.437505   3.923869   3.008051   5.080462
    20  H    6.440439   2.854975   4.497444   3.060324   4.991417
    21  H    7.155796   3.267845   4.310920   4.041991   6.145608
    22  H    6.169786   2.692861   4.377245   3.015801   4.892139
    23  C    7.271911   8.994015   7.449521   9.569776   9.600132
    24  H    7.268755   8.726768   7.017823   9.389903   9.571381
    25  C    6.228701   8.361061   7.055408   8.776312   8.584651
    26  H    6.470104   8.802694   7.688413   9.120039   8.773363
    27  C    4.910362   7.269643   6.053959   7.593305   7.317873
    28  O    4.118236   6.964136   6.090804   7.080794   6.520652
    29  C    8.611553  10.208492   8.649454  10.830773  10.902575
    30  C    9.632695  10.896292   9.168742  11.640731  11.893529
    31  C    9.114342  10.913189   9.529651  11.445791  11.371218
    32  C   10.920632  12.119007  10.404407  12.886417  13.158265
    33  H    9.521092  10.581417   8.736110  11.390134  11.758690
    34  C   10.460243  12.131371  10.723292  12.706292  12.681712
    35  H    8.584932  10.634869   9.423834  11.054123  10.818859
    36  C   11.307065  12.700129  11.129475  13.389620  13.532846
    37  H   11.732488  12.725721  10.922033  13.564171  13.946826
    38  O   12.608327  13.932157  12.370201  14.640663  14.805442
    39  H   13.128880  14.287584  12.635344  15.060929  15.324862
    40  O   11.067729  12.871525  11.615554  13.368049  13.227373
    41  C   12.067370  14.102435  12.842921  14.546548  14.282993
    42  H   11.709014  13.978818  12.725456  14.362277  13.984600
    43  H   12.507436  14.596907  13.452137  14.987383  14.653985
    44  H   12.885640  14.786165  13.423158  15.298510  15.125477
    45  C    4.915977   6.851165   5.370831   7.300548   7.263273
    46  H    5.943713   7.798631   6.190861   8.295677   8.285764
    47  H    4.303111   6.562726   5.264096   6.860405   6.645861
    48  O    5.213961   3.465164   2.396160   4.600679   5.999738
    49  O    4.428593   2.788430   3.189771   3.429357   4.609142
    50  N    4.330172   2.477723   2.110763   3.472313   4.845034
                   16         17         18         19         20
    16  O    0.000000
    17  H    0.966905   0.000000
    18  O    2.898032   3.846834   0.000000
    19  C    2.801000   3.732589   1.442543   0.000000
    20  H    2.453673   3.310376   2.097813   1.088012   0.000000
    21  H    3.878671   4.804911   2.017226   1.088459   1.784322
    22  H    2.752397   3.574275   2.090250   1.090584   1.787482
    23  C   10.932501  11.276462   9.748035  11.070637  11.766984
    24  H   10.752778  11.149677   9.408675  10.776512  11.448308
    25  C   10.125539  10.383093   9.251262  10.538879  11.191186
    26  H   10.440327  10.638323   9.741262  10.960942  11.627287
    27  C    8.936791   9.156893   8.249266   9.559024  10.119979
    28  O    8.379940   8.491783   8.068738   9.301446   9.808451
    29  C   12.186751  12.551213  10.894932  12.180601  12.938139
    30  C   12.995399  13.430360  11.459351  12.762391  13.540526
    31  C   12.780912  13.089532  11.651604  12.872912  13.653275
    32  C   14.232696  14.678715  12.636729  13.903384  14.722482
    33  H   12.739955  13.215355  11.084141  12.419965  13.171663
    34  C   14.032551  14.362088  12.809621  14.002652  14.823807
    35  H   12.368405  12.611772  11.458206  12.642783  13.399457
    36  C   14.726151  15.123471  13.275707  14.494236  15.335013
    37  H   14.903804  15.392983  13.162384  14.432168  15.258446
    38  O   15.966229  16.373263  14.467891  15.654313  16.524562
    39  H   16.388988  16.835778  14.760647  15.960394  16.835650
    40  O   14.664313  14.945022  13.587042  14.717913  15.550807
    41  C   15.848604  16.086865  14.866484  16.020953  16.825061
    42  H   15.672414  15.869209  14.809610  16.001722  16.755465
    43  H   16.260195  16.465448  15.379961  16.482350  17.294687
    44  H   16.614873  16.892397  15.496081  16.671050  17.491803
    45  C    8.643730   8.941618   7.739317   9.130689   9.633365
    46  H    9.629759   9.941859   8.620913  10.035313  10.531932
    47  H    8.162685   8.385739   7.542197   8.920565   9.312271
    48  O    5.699830   6.433724   3.592963   4.679540   5.607958
    49  O    4.387968   4.980444   3.258404   3.961967   4.835345
    50  N    4.586189   5.273651   2.887881   3.949947   4.814050
                   21         22         23         24         25
    21  H    0.000000
    22  H    1.783109   0.000000
    23  C   11.437398  11.116290   0.000000
    24  H   11.095835  10.925825   1.086391   0.000000
    25  C   11.015518  10.510441   1.350374   2.098211   0.000000
    26  H   11.476087  10.829904   2.128078   3.076409   1.086314
    27  C   10.114774   9.580495   2.502165   2.726691   1.465495
    28  O    9.961897   9.233020   3.586171   3.937513   2.335699
    29  C   12.484643  12.184091   1.456737   2.146760   2.514150
    30  C   12.967460  12.843108   2.462300   2.592551   3.743254
    31  C   13.213992  12.767142   2.522860   3.446044   3.048708
    32  C   14.062894  13.949569   3.748394   3.980401   4.937798
    33  H   12.586357  12.589422   2.661172   2.324158   4.011128
    34  C   14.289250  13.876339   3.789809   4.586469   4.430897
    35  H   13.056406  12.470304   2.784543   3.844478   2.795650
    36  C   14.694436  14.442345   4.276510   4.804227   5.227143
    37  H   14.526030  14.530152   4.613075   4.650647   5.874271
    38  O   15.816200  15.577477   5.633055   6.144026   6.554878
    39  H   16.070300  15.934254   6.047219   6.409419   7.092100
    40  O   15.035313  14.501780   4.897719   5.797880   5.279281
    41  C   16.369293  15.813028   5.829808   6.704558   6.200878
    42  H   16.403124  15.822321   5.553350   6.429984   5.843354
    43  H   16.850042  16.208427   6.662704   7.595156   6.889180
    44  H   16.969469  16.503207   6.308575   7.073623   6.865089
    45  C    9.631438   9.324931   3.024065   2.645349   2.598859
    46  H   10.484301  10.284530   2.804676   2.206285   2.777809
    47  H    9.504737   9.145758   4.036388   3.695518   3.438809
    48  O    4.839334   4.718765   6.781739   6.548326   6.483657
    49  O    4.459925   3.556167   7.862295   7.846964   7.226065
    50  N    4.351972   3.877728   7.279252   7.116645   6.769389
                   26         27         28         29         30
    26  H    0.000000
    27  C    2.142044   0.000000
    28  O    2.513024   1.225182   0.000000
    29  C    2.804320   3.876263   4.849160   0.000000
    30  C    4.183367   4.958167   6.041385   1.403751   0.000000
    31  C    2.800542   4.514199   5.237764   1.409034   2.408998
    32  C    5.184116   6.246092   7.269278   2.431904   1.389127
    33  H    4.679458   4.990594   6.164010   2.156221   1.085083
    34  C    4.142080   5.896187   6.610278   2.439729   2.793182
    35  H    2.182172   4.197492   4.694874   2.176604   3.405068
    36  C    5.181078   6.653716   7.526294   2.820546   2.416316
    37  H    6.207595   7.109024   8.186227   3.415164   2.151381
    38  O    6.433773   7.993041   8.832103   4.176757   3.674831
    39  H    7.092238   8.491094   9.408819   4.617865   3.834093
    40  O    4.738999   6.720556   7.250004   3.678577   4.161990
    41  C    5.641929   7.618433   8.119370   4.618031   4.991598
    42  H    5.288504   7.201262   7.674937   4.481766   4.972288
    43  H    6.205108   8.271966   8.650041   5.517784   5.986934
    44  H    6.430820   8.305608   8.912454   4.982596   5.055348
    45  C    3.536150   1.534824   2.392518   4.475214   5.220258
    46  H    3.799384   2.172841   3.193160   4.161936   4.720330
    47  H    4.239883   2.123267   2.488779   5.487408   6.262300
    48  O    6.952872   5.899746   6.022851   7.711110   8.225112
    49  O    7.446515   6.506310   6.210657   8.836216   9.602196
    50  N    7.158249   6.000112   5.885423   8.313396   8.972793
                   31         32         33         34         35
    31  C    0.000000
    32  C    2.779725   0.000000
    33  H    3.396844   2.141492   0.000000
    34  C    1.384132   2.424924   3.878241   0.000000
    35  H    1.084176   3.863386   4.313104   2.112637   0.000000
    36  C    2.416080   1.395003   3.394354   1.413089   3.383251
    37  H    3.866432   1.086728   2.467764   3.408864   4.950003
    38  O    3.635190   2.417724   4.554281   2.370534   4.481582
    39  H    4.327391   2.455009   4.542176   3.185777   5.261553
    40  O    2.375560   3.685283   5.246927   1.369870   2.559296
    41  C    3.385591   4.373673   6.050918   2.376192   3.524373
    42  H    3.327154   4.557838   5.983654   2.661601   3.359492
    43  H    4.195316   5.379352   7.060240   3.261607   4.130531
    44  H    3.929337   4.182019   6.067813   2.715540   4.308280
    45  C    5.447892   6.599317   4.924978   6.780359   5.373797
    46  H    5.266617   6.095908   4.318282   6.529600   5.354060
    47  H    6.389482   7.638261   5.955151   7.741482   6.218368
    48  O    8.413339   9.291065   7.964048   9.457261   8.327316
    49  O    9.298345  10.664794   9.505745  10.387940   8.968673
    50  N    8.941938  10.089761   8.759495  10.059857   8.723262
                   36         37         38         39         40
    36  C    0.000000
    37  H    2.148220   0.000000
    38  O    1.357251   2.672608   0.000000
    39  H    1.914047   2.289528   0.967643   0.000000
    40  O    2.425012   4.567604   2.753802   3.713196   0.000000
    41  C    3.085673   5.129533   3.041467   3.949219   1.436053
    42  H    3.465981   5.363754   3.685040   4.527522   2.090301
    43  H    4.045667   6.127375   3.857068   4.765095   2.028595
    44  H    2.897047   4.740825   2.447225   3.239776   2.098739
    45  C    7.285086   7.295633   8.641797   8.995386   7.782959
    46  H    6.890771   6.715983   8.235215   8.518630   7.626623
    47  H    8.300384   8.334015   9.657281  10.027696   8.688809
    48  O    9.864783   9.827860  10.997186  11.289024  10.239103
    49  O   11.033750  11.339467  12.162219  12.588524  10.962287
    50  N   10.596494  10.702166  11.763590  12.122219  10.770543
                   41         42         43         44         45
    41  C    0.000000
    42  H    1.094943   0.000000
    43  H    1.089663   1.781821   0.000000
    44  H    1.091452   1.788599   1.780507   0.000000
    45  C    8.673725   8.253161   9.430358   9.237775   0.000000
    46  H    8.415409   7.947323   9.254106   8.884283   1.089810
    47  H    9.523613   9.033645  10.247644  10.127892   1.090092
    48  O   11.576103  11.640754  12.103912  12.143112   5.651770
    49  O   12.273389  12.306854  12.653656  12.981455   6.575905
    50  N   12.075532  12.077845  12.553292  12.721961   5.827553
                   46         47         48         49         50
    46  H    0.000000
    47  H    1.766169   0.000000
    48  O    6.477450   5.947643   0.000000
    49  O    7.571792   6.654742   2.166004   0.000000
    50  N    6.766987   5.929350   1.217320   1.216540   0.000000
 Stoichiometry    C21H20NO8(2)
 Framework group  C1[X(C21H20NO8)]
 Deg. of freedom   144
 Full point group                 C1      NOp   1
 Largest Abelian subgroup         C1      NOp   1
 Largest concise Abelian subgroup C1      NOp   1
                         Standard orientation:                         
 ---------------------------------------------------------------------
 Center     Atomic      Atomic             Coordinates (Angstroms)
 Number     Number       Type             X           Y           Z
 ---------------------------------------------------------------------
      1          6           0        2.205432    0.979520    0.728341
      2          1           0        1.772659    1.960559    0.554237
      3          6           0        1.468544    0.057835    1.407735
      4          1           0        1.837952   -0.948437    1.573614
      5          6           0        0.131040    0.285692    1.953802
      6          8           0       -0.474226   -0.628084    2.503857
      7          6           0        3.521633    0.816942    0.192213
      8          6           0        4.158356    1.883547   -0.427617
      9          6           0        4.265491   -0.482196    0.287564
     10          6           0        5.491546    1.823975   -0.829709
     11          1           0        3.614248    2.813234   -0.558149
     12          6           0        5.719426   -0.443750   -0.036926
     13          1           0        4.096773   -1.004881    1.229023
     14          6           0        6.290150    0.681927   -0.594739
     15          1           0        5.952176    2.692289   -1.291156
     16          8           0        7.623948    0.691767   -0.884325
     17          1           0        7.867974    1.551431   -1.253560
     18          8           0        6.303558   -1.620118    0.260379
     19          6           0        7.499391   -2.066281   -0.411821
     20          1           0        8.370033   -1.503548   -0.081542
     21          1           0        7.601849   -3.113243   -0.132329
     22          1           0        7.382747   -1.981661   -1.492842
     23          6           0       -3.167070    0.607804    0.866807
     24          1           0       -2.773038    0.296686    1.830233
     25          6           0       -2.425052    1.441511    0.106641
     26          1           0       -2.761604    1.759787   -0.875963
     27          6           0       -1.114004    1.983255    0.474529
     28          8           0       -0.494815    2.687661   -0.313816
     29          6           0       -4.462135    0.030793    0.532222
     30          6           0       -5.068039   -0.846255    1.445558
     31          6           0       -5.149434    0.311709   -0.665310
     32          6           0       -6.298818   -1.429257    1.171760
     33          1           0       -4.563254   -1.080968    2.376958
     34          6           0       -6.375995   -0.261891   -0.952282
     35          1           0       -4.729995    0.981890   -1.407177
     36          6           0       -6.960870   -1.153125   -0.024681
     37          1           0       -6.748881   -2.115424    1.884217
     38          8           0       -8.150893   -1.715606   -0.355725
     39          1           0       -8.440829   -2.306464    0.353611
     40          8           0       -6.968120   -0.004673   -2.160492
     41          6           0       -8.177003    0.768826   -2.109988
     42          1           0       -7.995608    1.737536   -1.632917
     43          1           0       -8.476522    0.927854   -3.145538
     44          1           0       -8.970180    0.238712   -1.579783
     45          6           0       -0.515416    1.675256    1.853845
     46          1           0       -1.284827    1.718716    2.624431
     47          1           0        0.217658    2.455400    2.059464
     48          8           0        2.828725   -2.335166   -0.308501
     49          8           0        3.904275   -1.386889   -1.931935
     50          7           0        3.603999   -1.512232   -0.759718
 ---------------------------------------------------------------------
 Rotational constants (GHZ):           0.3757415           0.0449607           0.0441915
 Standard basis: 6-311G(d) (5D, 7F)
 There are   630 symmetry adapted cartesian basis functions of A   symmetry.
 There are   600 symmetry adapted basis functions of A   symmetry.
   600 basis functions,  1060 primitive gaussians,   630 cartesian basis functions
   109 alpha electrons      108 beta electrons
       nuclear repulsion energy      2674.2778623731 Hartrees.
 NAtoms=   50 NActive=   50 NUniq=   50 SFac= 1.00D+00 NAtFMM=   60 NAOKFM=F Big=F
 Integral buffers will be    131072 words long.
 Raffenetti 2 integral format.
 Two-electron integral symmetry is turned on.
 Using the following non-standard input for PCM:
 Eps=7
 EpsInf=1.85341
 HbondAcidity=0
 HbondBasicity=0.48
 SurfaceTensionAtInterface=60.62
 CarbonAromaticity=0
 ElectronegativeHalogenicity=0
 --- end of non-standard input.
 ------------------------------------------------------------------------------
 Polarizable Continuum Model (PCM)
 =================================
 Model                : PCM.
 Atomic radii         : SMD-Coulomb.
 Polarization charges : Total charges.
 Charge compensation  : None.
 Solution method      : On-the-fly selection.
 Cavity type          : VdW (van der Waals Surface) (Alpha=1.000).
 Cavity algorithm     : GePol (No added spheres)
                        Default sphere list used, NSphG=   50.
                        Lebedev-Laikov grids with approx.  5.0 points / Ang**2.
                        Smoothing algorithm: York/Karplus (Gamma=1.0000).
                        Polarization charges: spherical gaussians, with
                                              point-specific exponents (IZeta= 3).
                        Self-potential: point-specific (ISelfS= 7).
                        Self-field    : sphere-specific E.n sum rule (ISelfD= 2).
 1st derivatives      : Analytical E(r).r(x)/FMM algorithm (CHGder, D1EAlg=3).
                        Cavity 1st derivative terms included.
 Solvent              : Generic,
                        Eps                           =   7.000000
                        Eps(infinity)                 =   1.853410
                        RSolv                         =   0.000000 Ang.
                        Molar volume                  =   0.000000 cm**3/mol
                        Thermal expansion coefficient =   0.000000 K**-1
                        Absolute temperature          = 298.150000 K
                        Numeral density               =   0.000000 Ang**-3
                        Hydrogen bond acidity         =   0.000000
                        Hydrogen bond basicity        =   0.480000
                        Surface tension at interface  =  60.620000 (cal/mol)*Ang**-2
                        Carbon aromaticity            =   0.000000
                        Electronegative halogenicity  =   0.000000
 ------------------------------------------------------------------------------
 ------------------------------------------------------------------------------
 Atomic radii for non-electrostatic terms: SMD-CDS.
 ------------------------------------------------------------------------------
 Nuclear repulsion after PCM non-electrostatic terms =     2674.2739358687 Hartrees.
 One-electron integrals computed using PRISM.
 NBasis=   600 RedAO= T EigKep=  1.75D-04  NBF=   600
 NBsUse=   600 1.00D-06 EigRej= -1.00D+00 NBFU=   600
 ExpMin= 1.03D-01 ExpMax= 8.59D+03 ExpMxC= 1.30D+03 IAcc=3 IRadAn=         5 AccDes= 0.00D+00
 Harris functional with IExCor= 1009 and IRadAn=       5 diagonalized for initial guess.
 HarFok:  IExCor= 1009 AccDes= 0.00D+00 IRadAn=         5 IDoV= 1 UseB2=F ITyADJ=14
 ICtDFT=  3500011 ScaDFX=  1.000000  1.000000  1.000000  1.000000
 FoFCou: FMM=F IPFlag=           0 FMFlag=      100000 FMFlg1=           0
         NFxFlg=           0 DoJE=T BraDBF=F KetDBF=T FulRan=T
         wScrn=  0.000000 ICntrl=       500 IOpCl=  0 I1Cent=   200000004 NGrid=           0
         NMat0=    1 NMatS0=      1 NMatT0=    0 NMatD0=    1 NMtDS0=    0 NMtDT0=    0
 Petite list used in FoFCou.
 Initial guess <Sx>= 0.0000 <Sy>= 0.0000 <Sz>= 0.5000 <S**2>= 0.7500 S= 0.5000
 Requested convergence on RMS density matrix=1.00D-08 within 128 cycles.
 Requested convergence on MAX density matrix=1.00D-06.
 Requested convergence on             energy=1.00D-06.
 No special actions if energy rises.
 Inv3:  Mode=1 IEnd=    50135232.
 Iteration    1 A*A^-1 deviation from unit magnitude is 4.22D-15 for   2411.
 Iteration    1 A*A^-1 deviation from orthogonality  is 2.74D-15 for   1676    733.
 Iteration    1 A^-1*A deviation from unit magnitude is 3.55D-15 for   1814.
 Iteration    1 A^-1*A deviation from orthogonality  is 2.06D-15 for   1705   1676.
 Restarting incremental Fock formation.
 Error on total polarization charges =  0.03385
 SCF Done:  E(UM062X) =  -1468.40587367     A.U. after   24 cycles
            NFock= 24  Conv=0.60D-08     -V/T= 2.0035
 <Sx>= 0.0000 <Sy>= 0.0000 <Sz>= 0.5000 <S**2>= 0.7975 S= 0.5235
 <L.S>=  0.00000000000    
 SMD-CDS (non-electrostatic) energy       (kcal/mol) =      -2.46
 (included in total energy above)
 Annihilation of the first spin contaminant:
 S**2 before annihilation     0.7975,   after     0.7513

 **********************************************************************

            Population analysis using the SCF density.

 **********************************************************************

 Orbital symmetries:
 Alpha Orbitals:
       Occupied  (A) (A) (A) (A) (A) (A) (A) (A) (A) (A) (A) (A)
                 (A) (A) (A) (A) (A) (A) (A) (A) (A) (A) (A) (A)
                 (A) (A) (A) (A) (A) (A) (A) (A) (A) (A) (A) (A)
                 (A) (A) (A) (A) (A) (A) (A) (A) (A) (A) (A) (A)
                 (A) (A) (A) (A) (A) (A) (A) (A) (A) (A) (A) (A)
                 (A) (A) (A) (A) (A) (A) (A) (A) (A) (A) (A) (A)
                 (A) (A) (A) (A) (A) (A) (A) (A) (A) (A) (A) (A)
                 (A) (A) (A) (A) (A) (A) (A) (A) (A) (A) (A) (A)
                 (A) (A) (A) (A) (A) (A) (A) (A) (A) (A) (A) (A)
                 (A)
       Virtual   (A) (A) (A) (A) (A) (A) (A) (A) (A) (A) (A) (A)
                 (A) (A) (A) (A) (A) (A) (A) (A) (A) (A) (A) (A)
                 (A) (A) (A) (A) (A) (A) (A) (A) (A) (A) (A) (A)
                 (A) (A) (A) (A) (A) (A) (A) (A) (A) (A) (A) (A)
                 (A) (A) (A) (A) (A) (A) (A) (A) (A) (A) (A) (A)
                 (A) (A) (A) (A) (A) (A) (A) (A) (A) (A) (A) (A)
                 (A) (A) (A) (A) (A) (A) (A) (A) (A) (A) (A) (A)
                 (A) (A) (A) (A) (A) (A) (A) (A) (A) (A) (A) (A)
                 (A) (A) (A) (A) (A) (A) (A) (A) (A) (A) (A) (A)
                 (A) (A) (A) (A) (A) (A) (A) (A) (A) (A) (A) (A)
                 (A) (A) (A) (A) (A) (A) (A) (A) (A) (A) (A) (A)
                 (A) (A) (A) (A) (A) (A) (A) (A) (A) (A) (A) (A)
                 (A) (A) (A) (A) (A) (A) (A) (A) (A) (A) (A) (A)
                 (A) (A) (A) (A) (A) (A) (A) (A) (A) (A) (A) (A)
                 (A) (A) (A) (A) (A) (A) (A) (A) (A) (A) (A) (A)
                 (A) (A) (A) (A) (A) (A) (A) (A) (A) (A) (A) (A)
                 (A) (A) (A) (A) (A) (A) (A) (A) (A) (A) (A) (A)
                 (A) (A) (A) (A) (A) (A) (A) (A) (A) (A) (A) (A)
                 (A) (A) (A) (A) (A) (A) (A) (A) (A) (A) (A) (A)
                 (A) (A) (A) (A) (A) (A) (A) (A) (A) (A) (A) (A)
                 (A) (A) (A) (A) (A) (A) (A) (A) (A) (A) (A) (A)
                 (A) (A) (A) (A) (A) (A) (A) (A) (A) (A) (A) (A)
                 (A) (A) (A) (A) (A) (A) (A) (A) (A) (A) (A) (A)
                 (A) (A) (A) (A) (A) (A) (A) (A) (A) (A) (A) (A)
                 (A) (A) (A) (A) (A) (A) (A) (A) (A) (A) (A) (A)
                 (A) (A) (A) (A) (A) (A) (A) (A) (A) (A) (A) (A)
                 (A) (A) (A) (A) (A) (A) (A) (A) (A) (A) (A) (A)
                 (A) (A) (A) (A) (A) (A) (A) (A) (A) (A) (A) (A)
                 (A) (A) (A) (A) (A) (A) (A) (A) (A) (A) (A) (A)
                 (A) (A) (A) (A) (A) (A) (A) (A) (A) (A) (A) (A)
                 (A) (A) (A) (A) (A) (A) (A) (A) (A) (A) (A) (A)
                 (A) (A) (A) (A) (A) (A) (A) (A) (A) (A) (A) (A)
                 (A) (A) (A) (A) (A) (A) (A) (A) (A) (A) (A) (A)
                 (A) (A) (A) (A) (A) (A) (A) (A) (A) (A) (A) (A)
                 (A) (A) (A) (A) (A) (A) (A) (A) (A) (A) (A) (A)
                 (A) (A) (A) (A) (A) (A) (A) (A) (A) (A) (A) (A)
                 (A) (A) (A) (A) (A) (A) (A) (A) (A) (A) (A) (A)
                 (A) (A) (A) (A) (A) (A) (A) (A) (A) (A) (A) (A)
                 (A) (A) (A) (A) (A) (A) (A) (A) (A) (A) (A) (A)
                 (A) (A) (A) (A) (A) (A) (A) (A) (A) (A) (A) (A)
                 (A) (A) (A) (A) (A) (A) (A) (A) (A) (A) (A)
 Beta  Orbitals:
       Occupied  (A) (A) (A) (A) (A) (A) (A) (A) (A) (A) (A) (A)
                 (A) (A) (A) (A) (A) (A) (A) (A) (A) (A) (A) (A)
                 (A) (A) (A) (A) (A) (A) (A) (A) (A) (A) (A) (A)
                 (A) (A) (A) (A) (A) (A) (A) (A) (A) (A) (A) (A)
                 (A) (A) (A) (A) (A) (A) (A) (A) (A) (A) (A) (A)
                 (A) (A) (A) (A) (A) (A) (A) (A) (A) (A) (A) (A)
                 (A) (A) (A) (A) (A) (A) (A) (A) (A) (A) (A) (A)
                 (A) (A) (A) (A) (A) (A) (A) (A) (A) (A) (A) (A)
                 (A) (A) (A) (A) (A) (A) (A) (A) (A) (A) (A) (A)
       Virtual   (A) (A) (A) (A) (A) (A) (A) (A) (A) (A) (A) (A)
                 (A) (A) (A) (A) (A) (A) (A) (A) (A) (A) (A) (A)
                 (A) (A) (A) (A) (A) (A) (A) (A) (A) (A) (A) (A)
                 (A) (A) (A) (A) (A) (A) (A) (A) (A) (A) (A) (A)
                 (A) (A) (A) (A) (A) (A) (A) (A) (A) (A) (A) (A)
                 (A) (A) (A) (A) (A) (A) (A) (A) (A) (A) (A) (A)
                 (A) (A) (A) (A) (A) (A) (A) (A) (A) (A) (A) (A)
                 (A) (A) (A) (A) (A) (A) (A) (A) (A) (A) (A) (A)
                 (A) (A) (A) (A) (A) (A) (A) (A) (A) (A) (A) (A)
                 (A) (A) (A) (A) (A) (A) (A) (A) (A) (A) (A) (A)
                 (A) (A) (A) (A) (A) (A) (A) (A) (A) (A) (A) (A)
                 (A) (A) (A) (A) (A) (A) (A) (A) (A) (A) (A) (A)
                 (A) (A) (A) (A) (A) (A) (A) (A) (A) (A) (A) (A)
                 (A) (A) (A) (A) (A) (A) (A) (A) (A) (A) (A) (A)
                 (A) (A) (A) (A) (A) (A) (A) (A) (A) (A) (A) (A)
                 (A) (A) (A) (A) (A) (A) (A) (A) (A) (A) (A) (A)
                 (A) (A) (A) (A) (A) (A) (A) (A) (A) (A) (A) (A)
                 (A) (A) (A) (A) (A) (A) (A) (A) (A) (A) (A) (A)
                 (A) (A) (A) (A) (A) (A) (A) (A) (A) (A) (A) (A)
                 (A) (A) (A) (A) (A) (A) (A) (A) (A) (A) (A) (A)
                 (A) (A) (A) (A) (A) (A) (A) (A) (A) (A) (A) (A)
                 (A) (A) (A) (A) (A) (A) (A) (A) (A) (A) (A) (A)
                 (A) (A) (A) (A) (A) (A) (A) (A) (A) (A) (A) (A)
                 (A) (A) (A) (A) (A) (A) (A) (A) (A) (A) (A) (A)
                 (A) (A) (A) (A) (A) (A) (A) (A) (A) (A) (A) (A)
                 (A) (A) (A) (A) (A) (A) (A) (A) (A) (A) (A) (A)
                 (A) (A) (A) (A) (A) (A) (A) (A) (A) (A) (A) (A)
                 (A) (A) (A) (A) (A) (A) (A) (A) (A) (A) (A) (A)
                 (A) (A) (A) (A) (A) (A) (A) (A) (A) (A) (A) (A)
                 (A) (A) (A) (A) (A) (A) (A) (A) (A) (A) (A) (A)
                 (A) (A) (A) (A) (A) (A) (A) (A) (A) (A) (A) (A)
                 (A) (A) (A) (A) (A) (A) (A) (A) (A) (A) (A) (A)
                 (A) (A) (A) (A) (A) (A) (A) (A) (A) (A) (A) (A)
                 (A) (A) (A) (A) (A) (A) (A) (A) (A) (A) (A) (A)
                 (A) (A) (A) (A) (A) (A) (A) (A) (A) (A) (A) (A)
                 (A) (A) (A) (A) (A) (A) (A) (A) (A) (A) (A) (A)
                 (A) (A) (A) (A) (A) (A) (A) (A) (A) (A) (A) (A)
                 (A) (A) (A) (A) (A) (A) (A) (A) (A) (A) (A) (A)
                 (A) (A) (A) (A) (A) (A) (A) (A) (A) (A) (A) (A)
                 (A) (A) (A) (A) (A) (A) (A) (A) (A) (A) (A) (A)
                 (A) (A) (A) (A) (A) (A) (A) (A) (A) (A) (A) (A)
 The electronic state is 2-A.
 Alpha  occ. eigenvalues --  -19.67120 -19.66422 -19.66226 -19.65961 -19.65913
 Alpha  occ. eigenvalues --  -19.63512 -19.60938 -19.60902 -14.99283 -10.63407
 Alpha  occ. eigenvalues --  -10.63311 -10.62949 -10.62248 -10.62021 -10.61782
 Alpha  occ. eigenvalues --  -10.60233 -10.58454 -10.57511 -10.57352 -10.56692
 Alpha  occ. eigenvalues --  -10.56649 -10.56494 -10.56318 -10.55656 -10.55188
 Alpha  occ. eigenvalues --  -10.54943 -10.54876 -10.54673 -10.54453 -10.54235
 Alpha  occ. eigenvalues --   -1.36688  -1.21468  -1.20167  -1.19158  -1.18540
 Alpha  occ. eigenvalues --   -1.16976  -1.16425  -1.15983  -0.99122  -0.97136
 Alpha  occ. eigenvalues --   -0.91794  -0.90830  -0.89967  -0.87138  -0.85703
 Alpha  occ. eigenvalues --   -0.84897  -0.82406  -0.80919  -0.78577  -0.77862
 Alpha  occ. eigenvalues --   -0.74737  -0.73309  -0.71519  -0.70586  -0.67773
 Alpha  occ. eigenvalues --   -0.66663  -0.65769  -0.64064  -0.63175  -0.62979
 Alpha  occ. eigenvalues --   -0.62205  -0.60676  -0.60496  -0.59435  -0.58627
 Alpha  occ. eigenvalues --   -0.58568  -0.57236  -0.56432  -0.55893  -0.55423
 Alpha  occ. eigenvalues --   -0.54367  -0.53795  -0.52921  -0.52791  -0.51978
 Alpha  occ. eigenvalues --   -0.51809  -0.50686  -0.50394  -0.49918  -0.49669
 Alpha  occ. eigenvalues --   -0.49188  -0.48701  -0.48341  -0.46477  -0.46259
 Alpha  occ. eigenvalues --   -0.45950  -0.44830  -0.44539  -0.44207  -0.43727
 Alpha  occ. eigenvalues --   -0.43364  -0.43234  -0.42963  -0.42411  -0.41723
 Alpha  occ. eigenvalues --   -0.40365  -0.40076  -0.38777  -0.38400  -0.38030
 Alpha  occ. eigenvalues --   -0.35792  -0.35464  -0.34875  -0.33668  -0.31953
 Alpha  occ. eigenvalues --   -0.30564  -0.28559  -0.26701  -0.23592
 Alpha virt. eigenvalues --   -0.04501  -0.03089  -0.01651   0.02260   0.04213
 Alpha virt. eigenvalues --    0.05571   0.06986   0.07436   0.08761   0.09276
 Alpha virt. eigenvalues --    0.09901   0.10194   0.10432   0.11303   0.11324
 Alpha virt. eigenvalues --    0.11763   0.12133   0.12392   0.13314   0.14471
 Alpha virt. eigenvalues --    0.15311   0.15351   0.15865   0.16055   0.16329
 Alpha virt. eigenvalues --    0.17263   0.18213   0.18402   0.19394   0.20020
 Alpha virt. eigenvalues --    0.20655   0.21798   0.21846   0.22417   0.23684
 Alpha virt. eigenvalues --    0.25088   0.26224   0.26517   0.27017   0.27754
 Alpha virt. eigenvalues --    0.28603   0.29680   0.30434   0.31169   0.31439
 Alpha virt. eigenvalues --    0.32503   0.32821   0.34156   0.34694   0.35118
 Alpha virt. eigenvalues --    0.35866   0.36610   0.36922   0.37377   0.38197
 Alpha virt. eigenvalues --    0.38581   0.39258   0.39808   0.39951   0.40231
 Alpha virt. eigenvalues --    0.40620   0.41056   0.41505   0.41736   0.42119
 Alpha virt. eigenvalues --    0.42302   0.42951   0.43816   0.44153   0.44424
 Alpha virt. eigenvalues --    0.44950   0.45280   0.45670   0.46364   0.47151
 Alpha virt. eigenvalues --    0.47609   0.47840   0.48074   0.48453   0.48988
 Alpha virt. eigenvalues --    0.49191   0.50158   0.50193   0.50637   0.50933
 Alpha virt. eigenvalues --    0.51358   0.51855   0.52486   0.53153   0.53721
 Alpha virt. eigenvalues --    0.53925   0.55092   0.55726   0.56367   0.56586
 Alpha virt. eigenvalues --    0.56909   0.57669   0.58437   0.58999   0.59230
 Alpha virt. eigenvalues --    0.60010   0.60448   0.61101   0.62041   0.62349
 Alpha virt. eigenvalues --    0.62871   0.63170   0.63295   0.64049   0.64368
 Alpha virt. eigenvalues --    0.64658   0.65229   0.65446   0.65490   0.66031
 Alpha virt. eigenvalues --    0.66857   0.67027   0.67565   0.67637   0.68121
 Alpha virt. eigenvalues --    0.68323   0.68684   0.69297   0.69931   0.70578
 Alpha virt. eigenvalues --    0.71498   0.71687   0.72197   0.73250   0.73498
 Alpha virt. eigenvalues --    0.74369   0.74903   0.76656   0.76773   0.77577
 Alpha virt. eigenvalues --    0.79258   0.79458   0.80168   0.80893   0.82208
 Alpha virt. eigenvalues --    0.82477   0.82731   0.83260   0.83610   0.84302
 Alpha virt. eigenvalues --    0.84942   0.85312   0.85747   0.85987   0.86787
 Alpha virt. eigenvalues --    0.87597   0.87897   0.89107   0.89434   0.89922
 Alpha virt. eigenvalues --    0.90927   0.91492   0.92693   0.93654   0.94115
 Alpha virt. eigenvalues --    0.94378   0.94788   0.96156   0.96353   0.97648
 Alpha virt. eigenvalues --    0.97720   0.98225   0.98614   0.99812   1.00223
 Alpha virt. eigenvalues --    1.00477   1.01951   1.02468   1.02943   1.03378
 Alpha virt. eigenvalues --    1.04172   1.04730   1.06016   1.06380   1.08189
 Alpha virt. eigenvalues --    1.09204   1.09660   1.10338   1.11342   1.12661
 Alpha virt. eigenvalues --    1.13872   1.14448   1.15292   1.16470   1.17398
 Alpha virt. eigenvalues --    1.18105   1.19527   1.20001   1.21169   1.22116
 Alpha virt. eigenvalues --    1.23312   1.23451   1.24946   1.26032   1.27312
 Alpha virt. eigenvalues --    1.27782   1.28174   1.28749   1.29314   1.29873
 Alpha virt. eigenvalues --    1.31941   1.32497   1.33615   1.34860   1.38112
 Alpha virt. eigenvalues --    1.40666   1.41244   1.42632   1.42740   1.44815
 Alpha virt. eigenvalues --    1.45759   1.48133   1.48847   1.49714   1.50524
 Alpha virt. eigenvalues --    1.51138   1.52063   1.53750   1.54589   1.55050
 Alpha virt. eigenvalues --    1.55173   1.56231   1.56486   1.56966   1.57980
 Alpha virt. eigenvalues --    1.58398   1.58689   1.59022   1.59990   1.60670
 Alpha virt. eigenvalues --    1.61123   1.62402   1.63135   1.63843   1.64819
 Alpha virt. eigenvalues --    1.65720   1.66755   1.68504   1.68785   1.69627
 Alpha virt. eigenvalues --    1.70738   1.71992   1.72492   1.72819   1.73061
 Alpha virt. eigenvalues --    1.74141   1.75203   1.75615   1.76098   1.76891
 Alpha virt. eigenvalues --    1.77708   1.78851   1.80192   1.80753   1.81351
 Alpha virt. eigenvalues --    1.82092   1.82695   1.83516   1.83823   1.84371
 Alpha virt. eigenvalues --    1.86271   1.87011   1.87164   1.88305   1.88727
 Alpha virt. eigenvalues --    1.91577   1.92267   1.94522   1.95149   1.97671
 Alpha virt. eigenvalues --    1.99248   2.00040   2.01520   2.02915   2.04460
 Alpha virt. eigenvalues --    2.05745   2.06685   2.08241   2.09142   2.11110
 Alpha virt. eigenvalues --    2.11815   2.13280   2.14387   2.15031   2.15747
 Alpha virt. eigenvalues --    2.17799   2.19101   2.20616   2.22276   2.22699
 Alpha virt. eigenvalues --    2.25302   2.27965   2.28420   2.30746   2.31089
 Alpha virt. eigenvalues --    2.32614   2.33591   2.34503   2.34964   2.35678
 Alpha virt. eigenvalues --    2.37083   2.37381   2.37555   2.38706   2.39417
 Alpha virt. eigenvalues --    2.41869   2.42567   2.44165   2.44725   2.45688
 Alpha virt. eigenvalues --    2.47355   2.48618   2.50462   2.53517   2.55073
 Alpha virt. eigenvalues --    2.56933   2.57816   2.58434   2.60855   2.64765
 Alpha virt. eigenvalues --    2.65526   2.66648   2.67375   2.70145   2.71840
 Alpha virt. eigenvalues --    2.72717   2.73400   2.74712   2.76013   2.78074
 Alpha virt. eigenvalues --    2.80852   2.83340   2.84320   2.84843   2.87218
 Alpha virt. eigenvalues --    2.88831   2.89117   2.90012   2.90538   2.91425
 Alpha virt. eigenvalues --    2.92349   2.92833   2.93749   2.95774   2.96654
 Alpha virt. eigenvalues --    2.97869   2.99470   2.99957   3.00247   3.00536
 Alpha virt. eigenvalues --    3.01217   3.01958   3.02831   3.03628   3.04293
 Alpha virt. eigenvalues --    3.05401   3.06404   3.07267   3.08267   3.09955
 Alpha virt. eigenvalues --    3.10676   3.12164   3.12762   3.15696   3.16583
 Alpha virt. eigenvalues --    3.19357   3.19416   3.20270   3.20736   3.21272
 Alpha virt. eigenvalues --    3.21483   3.21761   3.23308   3.23991   3.24809
 Alpha virt. eigenvalues --    3.25037   3.25846   3.26553   3.30390   3.32043
 Alpha virt. eigenvalues --    3.32761   3.34258   3.35324   3.35689   3.36223
 Alpha virt. eigenvalues --    3.36417   3.36905   3.37843   3.38445   3.38974
 Alpha virt. eigenvalues --    3.39275   3.41112   3.42135   3.44969   3.45592
 Alpha virt. eigenvalues --    3.47591   3.50305   3.50617   3.51591   3.53167
 Alpha virt. eigenvalues --    3.53569   3.54620   3.56421   3.57557   3.59110
 Alpha virt. eigenvalues --    3.62029   3.62166   3.65395   3.68013   3.71765
 Alpha virt. eigenvalues --    3.75533   3.76830   3.78942   3.82564   3.92487
 Alpha virt. eigenvalues --    3.94726   3.95249   3.95356   3.98312   3.99650
 Alpha virt. eigenvalues --    4.00644   4.03873   4.11527   4.13092   4.13464
 Alpha virt. eigenvalues --    4.15353   4.41959   4.48590   4.50089   4.50760
 Alpha virt. eigenvalues --    4.70572   4.81359   4.93801   4.94172   4.95729
 Alpha virt. eigenvalues --    4.97937   5.00162   5.01096   5.05176   5.05968
 Alpha virt. eigenvalues --    5.08383   5.09437   5.17476   5.18162   5.23162
 Alpha virt. eigenvalues --    5.26511   5.27874   5.31297   5.55216   5.59222
 Alpha virt. eigenvalues --    5.59860   5.68127   5.68991   5.77369   5.78391
 Alpha virt. eigenvalues --    6.08019  23.32651  23.35108  23.51583  23.51817
 Alpha virt. eigenvalues --   23.64025  23.64837  23.79202  23.81563  23.83788
 Alpha virt. eigenvalues --   23.86835  23.87236  23.93962  23.97381  24.01337
 Alpha virt. eigenvalues --   24.06612  24.09286  24.12848  24.16445  24.18993
 Alpha virt. eigenvalues --   24.19274  24.22373  35.40873  49.92733  49.98117
 Alpha virt. eigenvalues --   49.98300  50.02539  50.04408  50.04610  50.07320
 Alpha virt. eigenvalues --   50.09006
  Beta  occ. eigenvalues --  -19.66890 -19.66384 -19.66207 -19.66014 -19.65913
  Beta  occ. eigenvalues --  -19.63512 -19.60938 -19.60772 -14.99083 -10.63407
  Beta  occ. eigenvalues --  -10.63334 -10.62703 -10.62357 -10.62071 -10.61782
  Beta  occ. eigenvalues --  -10.60233 -10.58456 -10.57352 -10.57320 -10.56764
  Beta  occ. eigenvalues --  -10.56494 -10.56453 -10.56378 -10.55656 -10.55188
  Beta  occ. eigenvalues --  -10.54943 -10.54876 -10.54556 -10.54453 -10.54235
  Beta  occ. eigenvalues --   -1.36431  -1.21046  -1.20167  -1.19027  -1.18378
  Beta  occ. eigenvalues --   -1.16976  -1.16308  -1.15756  -0.98590  -0.97136
  Beta  occ. eigenvalues --   -0.91490  -0.90773  -0.89396  -0.86894  -0.85700
  Beta  occ. eigenvalues --   -0.84720  -0.82299  -0.80686  -0.77863  -0.77796
  Beta  occ. eigenvalues --   -0.74723  -0.72947  -0.71234  -0.70545  -0.67459
  Beta  occ. eigenvalues --   -0.66662  -0.65503  -0.63953  -0.63099  -0.62522
  Beta  occ. eigenvalues --   -0.61965  -0.60386  -0.60289  -0.59155  -0.58582
  Beta  occ. eigenvalues --   -0.58475  -0.57100  -0.56031  -0.55638  -0.54634
  Beta  occ. eigenvalues --   -0.54358  -0.53795  -0.52819  -0.52568  -0.51771
  Beta  occ. eigenvalues --   -0.51551  -0.50681  -0.50212  -0.49870  -0.49530
  Beta  occ. eigenvalues --   -0.49127  -0.48511  -0.48302  -0.46288  -0.45896
  Beta  occ. eigenvalues --   -0.45620  -0.44672  -0.44391  -0.44128  -0.43628
  Beta  occ. eigenvalues --   -0.43149  -0.42779  -0.42546  -0.42248  -0.40957
  Beta  occ. eigenvalues --   -0.40351  -0.39503  -0.38597  -0.38311  -0.37146
  Beta  occ. eigenvalues --   -0.35492  -0.34920  -0.34201  -0.33469  -0.31787
  Beta  occ. eigenvalues --   -0.30563  -0.26708  -0.26615
  Beta virt. eigenvalues --   -0.09926  -0.04238  -0.02138  -0.01100   0.02265
  Beta virt. eigenvalues --    0.04788   0.06379   0.07011   0.07437   0.09294
  Beta virt. eigenvalues --    0.09792   0.09903   0.10380   0.10475   0.11255
  Beta virt. eigenvalues --    0.11569   0.11768   0.12290   0.12577   0.13460
  Beta virt. eigenvalues --    0.14578   0.15283   0.15370   0.15863   0.16056
  Beta virt. eigenvalues --    0.16346   0.17332   0.18174   0.18409   0.19575
  Beta virt. eigenvalues --    0.20029   0.20666   0.21802   0.22106   0.23096
  Beta virt. eigenvalues --    0.23839   0.25250   0.26445   0.26579   0.27471
  Beta virt. eigenvalues --    0.27818   0.28820   0.29917   0.30502   0.31179
  Beta virt. eigenvalues --    0.31568   0.32624   0.33068   0.34283   0.34738
  Beta virt. eigenvalues --    0.35190   0.35975   0.36711   0.37104   0.37542
  Beta virt. eigenvalues --    0.38343   0.38779   0.39496   0.39891   0.39985
  Beta virt. eigenvalues --    0.40484   0.40636   0.41204   0.41666   0.41910
  Beta virt. eigenvalues --    0.42263   0.42552   0.42964   0.44004   0.44302
  Beta virt. eigenvalues --    0.44473   0.45175   0.45415   0.45867   0.46545
  Beta virt. eigenvalues --    0.47161   0.47835   0.47992   0.48202   0.48575
  Beta virt. eigenvalues --    0.49071   0.49434   0.50206   0.50356   0.50676
  Beta virt. eigenvalues --    0.51026   0.51601   0.51946   0.52919   0.53351
  Beta virt. eigenvalues --    0.53785   0.54067   0.55237   0.55811   0.56413
  Beta virt. eigenvalues --    0.56591   0.56977   0.57921   0.58579   0.59212
  Beta virt. eigenvalues --    0.59286   0.60094   0.60668   0.61149   0.62060
  Beta virt. eigenvalues --    0.62443   0.62903   0.63236   0.63381   0.64098
  Beta virt. eigenvalues --    0.64660   0.64742   0.65317   0.65500   0.65763
  Beta virt. eigenvalues --    0.66188   0.67090   0.67100   0.67650   0.67717
  Beta virt. eigenvalues --    0.68332   0.68428   0.68841   0.69336   0.70040
  Beta virt. eigenvalues --    0.70711   0.71662   0.71706   0.72440   0.73431
  Beta virt. eigenvalues --    0.73823   0.74547   0.75122   0.76814   0.77050
  Beta virt. eigenvalues --    0.77723   0.79354   0.79553   0.80279   0.80918
  Beta virt. eigenvalues --    0.82333   0.82635   0.82890   0.83295   0.83658
  Beta virt. eigenvalues --    0.84435   0.85097   0.85380   0.85869   0.86090
  Beta virt. eigenvalues --    0.86837   0.87645   0.87982   0.89328   0.89479
  Beta virt. eigenvalues --    0.90044   0.91001   0.91664   0.92768   0.93805
  Beta virt. eigenvalues --    0.94183   0.94497   0.94838   0.96241   0.96427
  Beta virt. eigenvalues --    0.97754   0.97870   0.98343   0.98689   0.99965
  Beta virt. eigenvalues --    1.00351   1.00663   1.02023   1.02537   1.03064
  Beta virt. eigenvalues --    1.03427   1.04419   1.05008   1.06197   1.06435
  Beta virt. eigenvalues --    1.08665   1.09301   1.09811   1.10388   1.11443
[...]
 699,-0.00000061,-0.00000348,-0.00000397,-0.00003169,0.00002320,0.00000
 340,0.00001289,-0.00000167,0.00004091,0.00002141,0.00001420,-0.0000017
 8,-0.00000242,0.00000069,-0.00004782,-0.00002592,-0.00001339,0.0000045
 1,0.00000526,-0.00000294,-0.00001308,0.00000652,-0.00001690,0.00000840
 ,-0.00000563,0.00000072,-0.00000038,0.00000098,0.00000046,-0.00000102,
 0.00000095,-0.00000132,-0.00000015,-0.00000078,0.00000102,-0.13482677,
 -0.18526354,-0.04566472,0.00332922,0.00325085,0.00161987,0.14451327,0.
 19754050,0.00014700,-0.00045035,0.00018859,0.00155676,-0.00072567,-0.0
 0102200,0.00000682,0.00011091,-0.00019850,0.00000830,0.00007432,0.0000
 4372,0.00361178,0.00315165,-0.00080585,-0.00145120,0.00177544,-0.00041
 738,-0.00005580,0.00021695,-0.00009098,-0.00002400,-0.00001193,0.00004
 003,-0.00011240,-0.00001735,0.00002636,0.00003015,-0.00006242,0.000001
 50,0.00002125,0.00001693,-0.00002054,0.00002321,-0.00016107,0.00005187
 ,0.00002206,0.00000662,0.00001313,0.00009328,0.00013492,-0.00008063,-0
 .00000930,-0.00000274,0.00000495,-0.00010420,-0.00001196,0.00003509,0.
 00001405,0.00000896,-0.00000477,-0.00010570,0.00015255,-0.00000437,0.0
 0004981,-0.00002579,-0.00003797,-0.00000613,-0.00000076,0.00000696,-0.
 00000423,0.00000737,0.00000373,-0.00000195,-0.00000124,0.00000628,0.00
 079244,0.00071427,-0.00048226,0.00000858,0.00004100,0.00031700,-0.0008
 8188,0.00237299,-0.00461068,-0.00127793,-0.00035806,-0.00025495,-0.025
 21370,-0.02366408,-0.01111399,0.00151464,0.00013189,0.00473700,-0.0000
 2511,-0.00018022,0.00019102,-0.00001001,-0.00000409,-0.00002497,0.0000
 4541,0.00003726,-0.00003466,-0.00002457,-0.00000187,-0.00001626,-0.000
 00268,-0.00001003,0.00000323,-0.00000018,-0.00004487,0.00006900,-0.000
 00353,-0.00000497,0.00004043,0.00003181,0.00001406,0.00000259,-0.00000
 472,-0.00000184,0.00000028,-0.00005179,-0.00002971,-0.00000889,0.00000
 234,0.00000522,-0.00000375,-0.00001026,0.00000923,-0.00001127,0.000010
 68,-0.00000683,0.00000095,-0.00000038,0.00000138,0.00000026,-0.0000012
 2,0.00000096,-0.00000114,-0.00000048,-0.00000075,0.00000103,-0.0320122
 5,-0.04028280,-0.05480854,0.01274710,0.01630137,0.00585122,0.04064701,
 0.04075571,0.06242784,-0.00357417,-0.00122645,0.00191811,0.00025279,0.
 00002544,-0.00027778,0.00258026,-0.00000296,0.00126309,-0.00038714,0.0
 0089520,-0.00122051,-0.00156054,0.00098016,0.00055592,0.00084374,0.000
 67025,-0.00044053,-0.00461766,-0.00200294,-0.00178266,0.00130246,-0.00
 139228,-0.00064565,-0.00238128,-0.03036874,0.00869834,-0.00009827,-0.0
 0015757,-0.00016899,-0.00004493,-0.00029345,0.00054658,0.00134579,-0.0
 0280807,-0.00138862,-0.00016693,-0.00002345,0.00133342,0.00065821,0.00
 027228,-0.00017150,-0.00012090,-0.00004298,-0.00003567,-0.00123369,-0.
 00022898,0.00059650,0.00015025,0.00011711,-0.00002889,-0.00114331,0.00
 162025,0.00035787,0.00052421,-0.00028938,-0.00026663,-0.00008574,0.000
 01348,0.00002150,-0.00007460,0.00011714,0.00005923,0.00009465,-0.00002
 201,-0.00002239,0.00001106,-0.00002021,-0.00002294,-0.00001845,-0.0000
 1203,-0.00001772,0.00000421,0.00011237,0.00006928,0.00002166,-0.000020
 77,0.00000391,-0.00018422,-0.00012886,-0.00008966,0.00010120,0.0000922
 0,-0.00001355,0.00001105,0.00001127,0.00001312,-0.00001409,0.00001759,
 0.00000192,-0.00000769,0.00000927,0.00000952,-0.00000698,0.00002854,0.
 00000124,0.00001016,-0.00001648,-0.00001474,0.00002017,-0.00001258,0.0
 0005280,0.00000923,-0.00001589,-0.00000166,0.00004014,0.00000968,-0.00
 000119,0.00000866,-0.00000887,-0.00000398,-0.00004251,0.00000108,-0.00
 000454,0.00001729,-0.00000558,-0.00000368,-0.00004736,0.00002885,-0.00
 004113,0.00003575,-0.00002996,0.00000152,-0.00000148,0.00000706,0.0000
 0407,-0.00000411,0.00000133,-0.00000345,-0.00000267,0.00000052,0.00000
 201,-0.00026786,-0.00009887,0.00006082,-0.00003187,0.00005949,-0.00001
 765,0.00003946,-0.00002955,0.00001022,0.26950480,-0.00301319,-0.000895
 86,0.00180099,0.00026063,0.00001125,-0.00009635,0.00343517,-0.00024643
 ,-0.00208849,0.00085977,-0.00207054,-0.00217071,-0.00225898,0.00006396
 ,0.00106314,0.00117656,0.00085161,-0.00080998,0.00031579,0.00335816,-0
 .00188394,-0.00155665,-0.00162505,0.00155704,-0.03167604,-0.01587967,0
 .01163025,0.00131471,0.00001154,-0.00091240,0.00003006,-0.00020388,0.0
 0025725,0.00049064,-0.00737180,-0.00329363,-0.00068994,-0.00049588,0.0
 0050267,-0.00000623,0.00144063,-0.00075838,-0.00010455,-0.00011065,-0.
 00004988,-0.00204761,-0.00062911,0.00122963,0.00013914,0.00026684,0.00
 009089,0.00010871,0.00142351,0.00043116,0.00029563,-0.00038285,0.00000
 701,-0.00002232,0.00001911,-0.00004492,-0.00017935,0.00016176,0.000047
 28,0.00018107,-0.00002893,-0.00019523,-0.00007944,-0.00009062,0.000001
 74,-0.00005123,-0.00000502,-0.00000512,0.00013259,0.00015517,0.0000499
 0,0.00001736,-0.00000441,0.00001496,-0.00035693,-0.00016064,-0.0002949
 2,0.00018849,0.00005049,0.00004792,0.00004777,0.00002536,0.00002714,-0
 .00002404,-0.00000577,0.00002240,-0.00001209,0.00001215,-0.00001391,0.
 00001393,0.00002776,0.00002422,0.00000427,-0.00001689,-0.00001198,0.00
 002558,0.00001183,0.00000680,0.00000117,-0.00000945,-0.00000421,-0.000
 01639,-0.00002241,-0.00001022,0.00001326,-0.00000530,-0.00000412,0.000
 02682,0.00004125,0.00001124,0.00000877,-0.00001489,0.00000042,-0.00001
 424,0.00001984,-0.00001365,0.00001359,-0.00001824,0.00000041,-0.000000
 50,0.00000490,0.00000347,-0.00000257,-0.00000079,-0.00000114,-0.000000
 83,0.00000156,-0.00000073,0.00013918,-0.00016482,0.00014290,0.00002799
 ,-0.00000005,-0.00001359,0.00001852,0.00000163,0.00003563,0.29428726,0
 .38200578,0.00072275,-0.00024136,-0.00007361,0.00009171,-0.00006591,0.
 00024421,0.00028226,0.00043752,-0.00230975,0.00047196,-0.00183325,0.00
 031254,-0.00055711,-0.00082366,0.00040431,0.00029079,0.00007944,-0.000
 13348,-0.00136699,-0.00029065,-0.00027904,0.00036456,-0.00088875,0.000
 46352,-0.00795099,-0.00724110,0.01193174,0.00053400,-0.00074890,0.0000
 8128,-0.00007018,-0.00021071,0.00011951,-0.00162688,-0.00406946,-0.000
 68646,0.00014860,-0.00078925,0.00403803,-0.00074084,0.00203365,-0.0000
 6196,-0.00004320,-0.00005311,-0.00001830,-0.00054656,-0.00050084,0.000
 44744,-0.00009642,0.00003520,-0.00001605,-0.00061429,0.00054799,0.0003
 2447,0.00017111,-0.00017592,-0.00081827,-0.00004309,0.00000542,0.00017
 765,-0.00001098,0.00003238,0.00004263,-0.00031772,0.00002068,0.0002968
 2,-0.00002767,-0.00002428,0.00000227,-0.00003267,0.00000329,0.00001018
 ,0.00005348,0.00004784,0.00001862,0.00002143,-0.00000171,0.00001391,-0
 .00014845,-0.00000440,-0.00036605,0.00006793,-0.00007295,0.00020311,0.
 00001860,0.00000493,0.00001323,-0.00000162,-0.00000859,0.00000217,-0.0
 0000013,0.00001251,-0.00001546,0.00000874,-0.00000627,0.00001726,-0.00
 000497,0.00000216,0.00000601,-0.00000064,0.00001867,-0.00003987,0.0000
 0220,-0.00000691,-0.00000256,-0.00002616,-0.00001325,-0.00001163,-0.00
 000249,0.00000156,-0.00000054,0.00003027,0.00001559,0.00001558,-0.0000
 0433,-0.00000232,-0.00000238,0.00001386,-0.00000979,0.00004141,-0.0000
 0408,0.00000498,-0.00000254,0.00000081,-0.00000052,-0.00000289,0.00000
 355,-0.00000042,0.00000295,-0.00000187,-0.00000144,-0.00000009,0.00043
 293,-0.00011837,0.00001661,0.00006672,-0.00007776,0.00000864,-0.000013
 71,0.00003470,0.00002717,-0.16302797,-0.19345570,0.25721975,-0.0013983
 7,-0.00067583,0.00058332,0.00009211,-0.00002777,-0.00008508,0.00119392
 ,-0.00015797,-0.00040772,0.00002539,-0.00024570,-0.00027134,-0.0011385
 3,0.00018314,0.00046000,0.00057356,0.00036892,-0.00036901,-0.00051048,
 -0.00146451,-0.00130218,0.00098657,-0.00020084,-0.00042609,0.01513061,
 -0.00256945,-0.01574664,-0.00113723,0.00136900,-0.00009323,0.00011699,
 -0.00006306,0.00025998,0.00095698,0.00102019,-0.00241471,-0.00106127,-
 0.00249086,-0.00324112,0.00139428,-0.00183890,-0.00136848,-0.00007283,
 -0.00004149,0.00003261,-0.00119780,0.00017662,0.00054124,0.00014129,0.
 00008403,-0.00018311,-0.00058942,-0.00036040,0.00008376,0.00084901,-0.
 00036111,-0.00021681,-0.00009039,-0.00000066,0.00001815,-0.00002677,0.
 00008739,0.00003013,-0.00009114,-0.00000418,-0.00022842,0.00000188,-0.
 00001034,-0.00001200,-0.00002579,-0.00000577,-0.00000452,0.00001284,0.
 00007552,0.00004845,0.00002661,-0.00001570,0.00000825,-0.00014073,-0.0
 0004647,-0.00024897,0.00005478,0.00001337,0.00011568,0.00000851,0.0000
 0472,0.00001117,-0.00000701,0.00000737,0.00000084,-0.00000350,0.000013
 02,-0.00000093,-0.00000304,0.00001285,0.00000579,0.00000370,-0.0000085
 6,-0.00000503,0.00001144,-0.00000172,0.00001865,0.00000817,-0.00001376
 ,-0.00000227,0.00001884,0.00000438,-0.00000470,0.00000382,-0.00000487,
 -0.00000218,-0.00002002,0.00000252,0.00000253,0.00000952,-0.00000342,-
 0.00000345,-0.00002676,0.00001349,-0.00000834,0.00002298,-0.00001701,0
 .00000033,-0.00000062,0.00000407,0.00000100,-0.00000078,0.00000092,-0.
 00000115,-0.00000281,-0.00000052,0.00000167,0.00007209,-0.00012683,0.0
 0007829,0.00001443,0.00000131,-0.00000332,0.00001821,0.00000330,0.0000
 1395,0.00709032,-0.02180364,0.06796333,0.08136368,-0.00138201,-0.00020
 074,0.00087976,0.00010511,-0.00000216,-0.00014648,0.00130436,-0.000175
 11,0.00019121,-0.00003198,-0.00012745,-0.00087129,-0.00097825,0.000400
 83,0.00044035,0.00052400,0.00032528,-0.00034544,-0.00012295,0.00247123
 ,-0.00136491,-0.00006247,-0.00009367,0.00008813,-0.00276501,0.01452737
 ,-0.02052140,-0.00001338,0.00115395,-0.00054467,0.00004244,-0.00008732
 ,-0.00002183,0.00015004,-0.00196418,-0.00269114,-0.00305983,-0.0029454
 2,-0.00408981,0.00106022,-0.00078851,-0.00082507,-0.00008812,-0.000068
 03,0.00001370,-0.00175241,0.00004272,0.00085700,0.00013487,0.00016847,
 -0.00005132,0.00017635,0.00064767,0.00064739,-0.00026710,-0.00022857,-
 0.00046382,-0.00001202,0.00000935,0.00012161,-0.00007045,0.00006435,0.
 00000643,-0.00003163,-0.00003563,0.00015719,-0.00004793,-0.00005264,0.
 00000223,-0.00002302,-0.00000091,-0.00000070,0.00007488,0.00007719,0.0
 0001463,0.00000477,-0.00000097,0.00000653,-0.00019211,-0.00008631,-0.0
 0008396,0.00011312,0.00003602,-0.00001748,0.00002680,0.00001451,0.0000
 1425,-0.00001256,-0.00000432,0.00001167,-0.00000740,0.00000582,-0.0000
 0850,0.00000869,0.00001309,0.00001485,0.00000174,-0.00000791,-0.000005
 07,0.00001136,0.00000979,-0.00000694,-0.00000017,-0.00000472,-0.000002
 57,-0.00001614,-0.00001606,-0.00000689,0.00000611,-0.00000253,-0.00000
 229,0.00002171,0.00002565,0.00000910,0.00000322,-0.00000854,-0.0000004
 4,-0.00000237,0.00000852,0.00000192,0.00000431,-0.00000819,-0.00000096
 ,0.00000007,0.00000259,0.00000152,-0.00000064,-0.00000078,0.00000019,-
 0.00000047,0.00000057,-0.00000068,-0.00004413,-0.00007978,0.00005007,-
 0.00000028,0.00001710,-0.00001217,0.00001793,-0.00000454,0.00001735,-0
 .02119574,0.00042303,0.07957577,0.06071507,0.09934133,0.00032165,-0.00
 139733,0.00062198,0.00010496,-0.00014936,-0.00008383,0.00030337,0.0007
 2900,-0.00147719,-0.00044135,0.00024206,0.00167641,-0.00105456,-0.0003
 7291,0.00060015,0.00052280,0.00013619,-0.00032416,-0.00213348,0.003306
 69,-0.00144436,0.00024568,-0.00173857,0.00073835,-0.00198266,-0.000398
 15,-0.04177248,0.00128157,-0.00202417,-0.00019603,-0.00002065,-0.00026
 190,0.00039934,0.00431089,-0.00573411,-0.00190812,-0.00328782,-0.00505
 563,-0.00341005,0.00015349,0.00430806,-0.00100710,-0.00008059,-0.00007
 460,0.00004807,-0.00159320,-0.00076778,0.00092868,-0.00003518,0.000122
 88,-0.00009663,-0.00220006,0.00401920,0.00080711,0.00028516,-0.0002480
 9,-0.00158683,-0.00004783,0.00001036,0.00036915,-0.00013424,0.00010892
 ,0.00012307,-0.00081381,0.00003781,0.00069176,-0.00002195,-0.00001591,
 -0.00000691,-0.00005363,0.00000757,0.00001581,0.00004702,0.00007301,0.
 00003694,0.00004114,-0.00000936,0.00002115,-0.00018190,0.00003302,-0.0
 0059565,0.00005179,-0.00011240,0.00035690,0.00002004,0.00000002,0.0000
 1996,0.00000025,-0.00000868,-0.00000274,0.00000224,0.00002363,-0.00002
 223,0.00000869,-0.00001123,0.00002362,-0.00000705,0.00000323,0.0000113
 3,-0.00000387,0.00002537,-0.00005761,0.00000662,-0.00001455,-0.0000044
 2,-0.00003267,-0.00001589,-0.00001789,-0.00000530,0.00000123,-0.000000
 69,0.00003532,0.00001777,0.00002362,-0.00000498,-0.00000219,-0.0000054
 0,0.00001587,-0.00001431,0.00006626,-0.00000139,0.00000466,-0.00000443
 ,0.00000158,0.00000020,-0.00000469,0.00000599,-0.00000029,0.00000459,-
 0.00000374,-0.00000279,0.00000046,0.00044001,-0.00024109,0.00010657,0.
 00006627,-0.00005926,0.00000348,-0.00000092,0.00003662,0.00003590,0.05
 600728,0.06797607,-0.07251456,-0.07628865,-0.08611365,0.73079264,0.000
 97060,0.00384483,-0.00007755,-0.00069696,-0.00016866,0.00018698,-0.001
 11401,0.00115265,-0.00187799,-0.00010388,0.00036725,0.00251195,0.00039
 573,-0.00071448,-0.00003058,-0.00039185,-0.00034652,0.00021490,0.01879
 819,-0.00061459,0.00916472,-0.00459011,0.00323003,0.00187200,-0.077050
 60,0.02258941,-0.00265955,0.00161864,-0.00203935,0.00035050,-0.0000322
 3,0.00038118,-0.00143012,-0.04698850,-0.02874376,-0.01316393,-0.001280
 56,-0.00258037,0.00067891,-0.00270478,0.00594523,-0.00360455,0.0002362
 6,0.00001005,-0.00017129,0.00035557,-0.00041986,0.00096101,-0.00014079
 ,0.00016644,0.00062182,0.00633001,-0.00466156,0.00010911,-0.00177744,0
 .00157409,0.00164195,0.00055361,-0.00023465,-0.00030272,0.00022541,-0.
 00025742,-0.00015275,0.00001062,-0.00012512,-0.00003307,-0.00003934,-0
 .00000723,0.00001634,-0.00000670,0.00002690,0.00002361,0.00002394,-0.0
 0013140,-0.00007740,-0.00003279,0.00003521,-0.00000038,0.00023006,0.00
 022382,-0.00004074,-0.00021442,-0.00015169,0.00005282,-0.00000088,-0.0
 0001112,-0.00000622,0.00001394,-0.00002802,0.00000365,0.00000940,-0.00
 001188,-0.00001614,0.00001555,-0.00003368,0.00000441,-0.00001426,0.000
 01955,0.00001706,-0.00002307,0.00002170,-0.00007631,-0.00001555,0.0000
 2365,0.00000181,-0.00006548,-0.00002169,-0.00000011,-0.00000901,0.0000
 1270,0.00000471,0.00007338,0.00000941,0.00000846,-0.00002433,0.0000053
 5,0.00000666,0.00006972,-0.00003894,0.00005504,-0.00005252,0.00004236,
 -0.00000193,0.00000179,-0.00000965,-0.00000502,0.00000510,-0.00000231,
 0.00000473,0.00000437,-0.00000014,-0.00000340,0.00025516,0.00001913,0.
 00001535,0.00001076,-0.00006552,-0.00000365,-0.00002397,-0.00002777,-0
 .00001306,-0.26855910,-0.23965768,0.10552044,-0.10265716,-0.03232663,0
 .02615190,0.47840244,-0.00117300,0.00046791,0.00093976,-0.00042532,0.0
 0036751,0.00142413,-0.00114671,0.00187462,-0.00298831,0.00036546,0.000
 22553,0.00206762,0.00095803,-0.00095402,-0.00036121,-0.00070019,-0.000
 38546,0.00038752,-0.00474021,-0.04479696,-0.01603779,0.00239531,0.0013
 9336,-0.00347343,0.01637348,-0.05853041,-0.00163031,0.00025962,-0.0050
 3726,0.00236153,0.00021685,0.00043414,0.00046098,-0.02579353,-0.002267
 17,0.00780477,0.00432461,0.00398882,0.00791027,-0.00036924,0.00677052,
 -0.00309041,0.00015126,0.00014061,-0.00017747,0.00350513,0.00014150,-0
 .00171317,-0.00016574,-0.00037778,0.00006077,0.00256486,-0.00077081,-0
 .00106703,-0.00013333,0.00091929,0.00056409,0.00012210,-0.00013492,-0.
 00013816,0.00019451,-0.00022290,-0.00005592,-0.00016071,-0.00003320,0.
 00005785,0.00005528,0.00007212,-0.00000257,0.00002142,0.00001497,0.000
 01303,-0.00010083,-0.00014627,-0.00004261,-0.00001425,0.00001376,-0.00
 000631,0.00037512,0.00021912,0.00000971,-0.00025078,-0.00013981,0.0001
 0340,-0.00003730,-0.00002505,-0.00001900,0.00002571,-0.00000691,-0.000
 01611,0.00001570,-0.00001044,0.00000206,-0.00000596,-0.00003537,-0.000
 01620,-0.00000995,0.00002092,0.00001624,-0.00002846,-0.00000131,-0.000
 03149,-0.00000511,0.00001393,0.00000387,-0.00000845,0.00001055,0.00000
 652,-0.00001347,0.00000988,0.00000434,0.00000411,-0.00003033,-0.000006
 37,-0.00001516,0.00001460,0.00000274,0.00003369,-0.00003012,0.00003247
 ,-0.00002636,0.00002974,-0.00000036,0.00000066,-0.00000732,-0.00000517
 ,0.00000414,0.00000007,0.00000251,0.00000172,-0.00000162,-0.00000003,0
 .00017900,0.00009063,-0.00002133,0.00000592,-0.00006179,0.00001508,-0.
 00003732,-0.00002579,-0.00003351,-0.23892318,-0.35992916,0.12882330,-0
 .03159988,-0.11279140,0.02362059,0.27373075,0.56951943,-0.00316675,0.0
 0098643,0.00120988,-0.00042275,0.00036852,0.00026619,0.00037851,-0.000
 76195,0.00172342,0.00120946,-0.00014236,-0.00359051,0.00132091,0.00093
 938,-0.00086696,-0.00072450,-0.00012542,0.00039504,0.01161630,-0.01661
 479,0.00218091,-0.00039175,0.00535962,-0.00337056,0.00983999,0.0160452
 2,-0.07497905,-0.00221847,0.00169116,0.00075764,0.00027147,0.00080171,
 -0.00106076,-0.01164474,0.01274721,0.01273067,-0.02013866,-0.02326080,
 -0.02996899,0.00311886,-0.00388646,-0.00232830,0.00021324,0.00020506,0
 .00008124,0.00158953,0.00165935,-0.00156520,0.00028859,-0.00014116,-0.
 00005841,0.00439166,-0.00533369,-0.00202555,-0.00059552,0.00082684,0.0
 0293929,0.00024376,-0.00007708,-0.00071388,0.00016183,-0.00016899,-0.0
 0024931,0.00114781,-0.00005661,-0.00119687,0.00004925,0.00003770,-0.00
 000196,0.00008373,-0.00001143,-0.00002567,-0.00010160,-0.00011689,-0.0
 0004479,-0.00005896,0.00000987,-0.00003343,0.00035362,-0.00001834,0.00
 087808,-0.00015577,0.00016842,-0.00051621,-0.00003813,-0.00000356,-0.0
 0002833,0.00000151,0.00001794,-0.00000272,-0.00000114,-0.00003377,0.00
 003541,-0.00001723,0.00001705,-0.00003781,0.00001131,-0.00000487,-0.00
 001558,0.00000236,-0.00004163,0.00009085,-0.00000803,0.00001912,0.0000
 0649,0.00005490,0.00002558,0.00002640,0.00000692,-0.00000295,0.0000001
 9,-0.00006229,-0.00003005,-0.00003577,0.00000962,0.00000410,0.00000648
 ,-0.00002811,0.00002317,-0.00009797,0.00000603,-0.00000995,0.00000599,
 -0.00000199,0.00000089,0.00000710,-0.00000875,0.00000065,-0.00000680,0
 .00000507,0.00000371,-0.00000023,-0.00078982,0.00037291,-0.00006636,-0
 .00012782,0.00012371,-0.00000975,-0.00000693,-0.00007901,-0.00007278,0
 .09812543,0.11915073,-0.19914754,0.03266028,0.03507667,-0.61197933,-0.
 12645235,-0.14576093,0.91075619\\-0.00001858,-0.00000833,0.00000862,0.
 00000483,-0.00001350,-0.00000108,0.00002906,0.00002047,-0.00001000,-0.
 00001023,0.00000272,0.00001149,-0.00001641,-0.00003002,0.00001183,0.00
 001946,-0.00001301,0.00002776,-0.00000823,-0.00002064,0.00000482,-0.00
 000675,0.00001771,0.00000564,0.00001529,0.00001288,-0.00000015,-0.0000
 1587,0.00001344,-0.00000335,0.00000670,-0.00000157,-0.00000313,-0.0000
 0809,0.00003415,-0.00001129,0.00000726,-0.00001620,-0.00000891,0.00000
 430,-0.00002253,0.00001220,-0.00001140,0.00000662,0.00000812,0.0000174
 4,0.00001393,0.00000307,0.00000041,0.00000703,0.00000089,0.00001318,-0
 .00000826,-0.00000392,-0.00001637,0.00001265,-0.00000559,0.00000153,-0
 .00000522,-0.00000976,0.00000134,0.00000623,-0.00000273,0.00000987,0.0
 0000712,-0.00000302,0.00001178,0.00001998,0.00000350,-0.00000913,-0.00
 000670,0.00000605,-0.00002334,-0.00001498,0.00000031,0.00001218,0.0000
 0626,0.00000888,0.00001000,0.00002812,-0.00000842,-0.00001863,0.000000
 74,0.00001064,-0.00000592,-0.00001221,-0.00001542,-0.00000450,-0.00000
 367,0.00000922,-0.00000857,0.00000116,0.00000068,0.00000724,-0.0000007
 9,-0.00000729,0.00000373,-0.00000954,-0.00000751,0.00000233,-0.0000135
 5,-0.00000160,0.00000018,-0.00000381,-0.00000200,0.00000119,0.00000895
 ,0.00000699,0.00001327,0.00001151,0.00000518,-0.00001677,-0.00005877,-
 0.00004501,-0.00000486,0.00000255,-0.00000003,0.00000296,0.00004447,0.
 00001957,0.00000461,-0.00000599,0.00000471,0.00000037,0.00000020,-0.00
 000138,-0.00000486,0.00000158,0.00000304,-0.00000200,-0.00000355,0.000
 01628,0.00001429,-0.00001555,0.00001212,-0.00000640,-0.00000004,-0.000
 03282,0.00001208,0.00000831,0.00000551,-0.00001827,-0.00000879,-0.0000
 0981,-0.00000561,-0.00000699,-0.00002011,0.00001391,0.00001540,0.00000
 724\\\@


 LAWS OF PROGRAMMING DEFINITION:  A WORKING PROGRAM
                                  IS ONE THAT HAS
                                  ONLY UNOBSERVED
                                  BUGS.
 Job cpu time:       0 days  3 hours 53 minutes 21.5 seconds.
 Elapsed time:       0 days  3 hours 53 minutes 41.3 seconds.
 File lengths (MBytes):  RWF=   3721 Int=      0 D2E=      0 Chk=     56 Scr=      1
 Normal termination of Gaussian 16 at Fri Nov  1 20:13:38 2024.
