 Entering Gaussian System, Link 0=g16
 Initial command:
 /sw/cluster/pub/apps//g16/l1.exe "/data/natrosa/25867/Gau-317403.inp" -scrdir="/data/natrosa/25867/"
 Entering Link 1 = /sw/cluster/pub/apps//g16/l1.exe PID=    317404.
  
 Copyright (c) 1988,1990,1992,1993,1995,1998,2003,2009,2016,
            Gaussian, Inc.  All Rights Reserved.
  
 This is part of the Gaussian(R) 16 program.  It is based on
 the Gaussian(R) 09 system (copyright 2009, Gaussian, Inc.),
 the Gaussian(R) 03 system (copyright 2003, Gaussian, Inc.),
 the Gaussian(R) 98 system (copyright 1998, Gaussian, Inc.),
 the Gaussian(R) 94 system (copyright 1995, Gaussian, Inc.),
 the Gaussian 92(TM) system (copyright 1992, Gaussian, Inc.),
 the Gaussian 90(TM) system (copyright 1990, Gaussian, Inc.),
 the Gaussian 88(TM) system (copyright 1988, Gaussian, Inc.),
 the Gaussian 86(TM) system (copyright 1986, Carnegie Mellon
 University), and the Gaussian 82(TM) system (copyright 1983,
 Carnegie Mellon University). Gaussian is a federally registered
 trademark of Gaussian, Inc.
  
 This software contains proprietary and confidential information,
 including trade secrets, belonging to Gaussian, Inc.
  
 This software is provided under written license and may be
 used, copied, transmitted, or stored only in accord with that
 written license.
  
 The following legend is applicable only to US Government
 contracts under FAR:
  
                    RESTRICTED RIGHTS LEGEND
  
 Use, reproduction and disclosure by the US Government is
 subject to restrictions as set forth in subparagraphs (a)
 and (c) of the Commercial Computer Software - Restricted
 Rights clause in FAR 52.227-19.
  
 Gaussian, Inc.
 340 Quinnipiac St., Bldg. 40, Wallingford CT 06492
  
  
 ---------------------------------------------------------------
 Warning -- This program may not be used in any manner that
 competes with the business of Gaussian, Inc. or will provide
 assistance to any competitor of Gaussian, Inc.  The licensee
 of this program is prohibited from giving any competitor of
 Gaussian, Inc. access to this program.  By using this program,
 the user acknowledges that Gaussian, Inc. is engaged in the
 business of creating and licensing software in the field of
 computational chemistry and represents and warrants to the
 licensee that it is not a competitor of Gaussian, Inc. and that
 it will not use this program in any manner prohibited above.
 ---------------------------------------------------------------
  

 Cite this work as:
 Gaussian 16, Revision A.03,
 M. J. Frisch, G. W. Trucks, H. B. Schlegel, G. E. Scuseria, 
 M. A. Robb, J. R. Cheeseman, G. Scalmani, V. Barone, 
 G. A. Petersson, H. Nakatsuji, X. Li, M. Caricato, A. V. Marenich, 
 J. Bloino, B. G. Janesko, R. Gomperts, B. Mennucci, H. P. Hratchian, 
 J. V. Ortiz, A. F. Izmaylov, J. L. Sonnenberg, D. Williams-Young, 
 F. Ding, F. Lipparini, F. Egidi, J. Goings, B. Peng, A. Petrone, 
 T. Henderson, D. Ranasinghe, V. G. Zakrzewski, J. Gao, N. Rega, 
 G. Zheng, W. Liang, M. Hada, M. Ehara, K. Toyota, R. Fukuda, 
 J. Hasegawa, M. Ishida, T. Nakajima, Y. Honda, O. Kitao, H. Nakai, 
 T. Vreven, K. Throssell, J. A. Montgomery, Jr., J. E. Peralta, 
 F. Ogliaro, M. J. Bearpark, J. J. Heyd, E. N. Brothers, K. N. Kudin, 
 V. N. Staroverov, T. A. Keith, R. Kobayashi, J. Normand, 
 K. Raghavachari, A. P. Rendell, J. C. Burant, S. S. Iyengar, 
 J. Tomasi, M. Cossi, J. M. Millam, M. Klene, C. Adamo, R. Cammi, 
 J. W. Ochterski, R. L. Martin, K. Morokuma, O. Farkas, 
 J. B. Foresman, and D. J. Fox, Gaussian, Inc., Wallingford CT, 2016.
 
 ******************************************
 Gaussian 16:  ES64L-G16RevA.03 25-Dec-2016
                 2-Dec-2024 
 ******************************************
 %oldchk=/home/natrosa/MOSSRI/REACAO-1/M06-2X-6-311G-D/CURCUMIN-OPT-FREQ-TS-M06-2
 X-6-311G-D-298.chk
 %chk=CURCUMIN-TS-1-M062X-6-311G-D-298-NBO.chk
 Copying data from "/home/natrosa/MOSSRI/REACAO-1/M06-2X-6-311G-D/CURCUMIN-OPT-FREQ-TS-M06-2X-6-311G-D-298.chk" to current chk file "CURCUMIN-TS-1-M062X-6-311G-D-298-NBO.chk"
 IOpt=  2 FromEx=T IUOpen= 4 IOptOp= 5 NList=   0 IFRang= 0 IUIn= 4 IUOut= 2.
 ----------------------------------------------------------------------
 # pop=nbo M062X/6-311g(d) scrf=(smd,solvent=generic,read) temperature=
 298.15 Geom=Check Guess=Read
 ----------------------------------------------------------------------
 1/29=2,38=1,40=2,112=298150,172=1/1;
 2/12=2,40=1/2;
 3/5=4,6=6,7=1,11=2,14=-4,25=1,30=1,70=32203,72=-2,74=-55,116=-2/1,2,3;
 4/5=1/1;
 5/5=2,38=6/2;
 6/7=2,8=2,9=2,10=2,28=1,40=1/1,7;
 99/5=1,9=1/99;
 ----------
 Reagente 1
 ----------
 Structure from the checkpoint file:  "CURCUMIN-TS-1-M062X-6-311G-D-298-NBO.chk"
 Charge =  0 Multiplicity = 2
 Redundant internal coordinates found in file.  (old form).
 C,0,2.2253347478,1.3014082344,0.0534496474
 H,0,1.8743308119,2.1093384308,-0.5823857735
 C,0,1.5002884446,0.9385008677,1.1216714371
 H,0,1.8206302303,0.1636601069,1.8129422199
 C,0,0.2135254633,1.5602305482,1.4949124875
 O,0,-0.37688767,1.1824320464,2.4845813681
 C,0,3.5169982967,0.7473788537,-0.3394170628
 C,0,4.3942693977,1.5327711145,-1.0804223736
 C,0,4.0219007648,-0.4935716744,0.1196251248
 C,0,5.6823369876,1.1101586331,-1.3911035981
 H,0,4.0624475484,2.5095356424,-1.4138882793
 C,0,5.2747590977,-0.9852949314,-0.2647047034
 H,0,4.3670557924,0.066057653,1.8310942909
 C,0,6.1315414097,-0.1423781363,-0.9838576253
 H,0,6.3413304146,1.7513611857,-1.9680161459
 O,0,7.3526887343,-0.6322514233,-1.271122379
 H,0,7.8541622022,0.0073950214,-1.793959766
 O,0,5.6378374253,-2.2467723189,0.0559786431
 C,0,6.4727171559,-2.325658005,1.2215384852
 H,0,5.9426685683,-1.9276042404,2.0895841078
 H,0,6.6837163525,-3.3820728627,1.3708464913
 H,0,7.4040447684,-1.7799848547,1.0605558957
 C,0,-2.8779722605,1.1198884001,0.3287544644
 H,0,-2.5257309647,1.4332388466,1.3085106333
 C,0,-2.149593111,1.4286745562,-0.7561559037
 H,0,-2.4485299816,1.1241855182,-1.7546526182
 C,0,-0.8869296397,2.1819302126,-0.716124995
 O,0,-0.2725551937,2.4107143916,-1.7386042741
 C,0,-4.1306340705,0.3674382148,0.3474507876
 C,0,-4.735339943,0.0973512613,1.5773813474
 C,0,-4.7608404365,-0.0941919435,-0.8195190096
 C,0,-5.9239411703,-0.6178393603,1.649277553
 H,0,-4.2653254919,0.4440533578,2.4915361298
 C,0,-5.9408625157,-0.8079909727,-0.7609386
 H,0,-4.3345784542,0.085941285,-1.8003427632
 C,0,-6.5342757838,-1.0773702277,0.4875546154
 H,0,-6.3791487549,-0.8295072823,2.6121370739
 O,0,-7.6826907557,-1.7905226936,0.4846712941
 H,0,-7.990657007,-1.9203324219,1.3909653107
 O,0,-6.5098284331,-1.2803136093,-1.9077787643
 C,0,-7.6865118727,-0.5733253669,-2.2981428853
 H,0,-7.4551766554,0.4808120581,-2.4777736801
 H,0,-8.0303005948,-1.0320535238,-3.2236257601
 H,0,-8.4664750716,-0.6561428713,-1.5389605723
 C,0,-0.353779077,2.6800921116,0.6280785244
 H,0,-1.1474413095,3.1605020247,1.1997628001
 H,0,0.4183314973,3.4188381027,0.4126730836
 O,0,3.2913282667,-2.0825572869,1.6586159777
 O,0,2.1898020164,-1.8443519481,-0.170948389
 N,0,3.0827078238,-1.5563247237,0.5902131274
 Recover connectivity data from disk.
                           ----------------------------
                           !    Current Parameters    !
                           ! (Angstroms and Degrees)  !
 --------------------------                            --------------------------
 ! Name  Definition              Value                                          !
 --------------------------------------------------------------------------------
 ! R1    R(1,2)                  1.0864                                         !
 ! R2    R(1,3)                  1.3411                                         !
 ! R3    R(1,7)                  1.4593                                         !
 ! R4    R(3,4)                  1.0867                                         !
 ! R5    R(3,5)                  1.477                                          !
 ! R6    R(5,6)                  1.2128                                         !
 ! R7    R(5,45)                 1.5256                                         !
 ! R8    R(7,8)                  1.3912                                         !
 ! R9    R(7,9)                  1.4162                                         !
 ! R10   R(8,10)                 1.3908                                         !
 ! R11   R(8,11)                 1.0841                                         !
 ! R12   R(9,12)                 1.3997                                         !
 ! R13   R(9,13)                 1.8334                                         !
 ! R14   R(9,50)                 1.4943                                         !
 ! R15   R(10,14)                1.3916                                         !
 ! R16   R(10,15)                1.0855                                         !
 ! R17   R(12,14)                1.4006                                         !
 ! R18   R(12,18)                1.3513                                         !
 ! R19   R(14,16)                1.3467                                         !
 ! R20   R(16,17)                0.9664                                         !
 ! R21   R(18,19)                1.4359                                         !
 ! R22   R(19,20)                1.0922                                         !
 ! R23   R(19,21)                1.0876                                         !
 ! R24   R(19,22)                1.0914                                         !
 ! R25   R(23,24)                1.0873                                         !
 ! R26   R(23,25)                1.3427                                         !
 ! R27   R(23,29)                1.4614                                         !
 ! R28   R(25,26)                1.0859                                         !
 ! R29   R(25,27)                1.4708                                         !
 ! R30   R(27,28)                1.2146                                         !
 ! R31   R(27,45)                1.5295                                         !
 ! R32   R(29,30)                1.3969                                         !
 ! R33   R(29,31)                1.4043                                         !
 ! R34   R(30,32)                1.389                                          !
 ! R35   R(30,33)                1.0848                                         !
 ! R36   R(31,34)                1.3804                                         !
 ! R37   R(31,35)                1.0845                                         !
 ! R38   R(32,36)                1.3904                                         !
 ! R39   R(32,37)                1.0859                                         !
 ! R40   R(34,36)                1.4083                                         !
 ! R41   R(34,40)                1.3646                                         !
 ! R42   R(36,38)                1.3518                                         !
 ! R43   R(38,39)                0.966                                          !
 ! R44   R(40,41)                1.4272                                         !
 ! R45   R(41,42)                1.0941                                         !
 ! R46   R(41,43)                1.0886                                         !
 ! R47   R(41,44)                1.0916                                         !
 ! R48   R(45,46)                1.0897                                         !
 ! R49   R(45,47)                1.0901                                         !
 ! R50   R(48,50)                1.2091                                         !
 ! R51   R(49,50)                1.2081                                         !
 ! A1    A(2,1,3)              119.5224                                         !
 ! A2    A(2,1,7)              114.2515                                         !
 ! A3    A(3,1,7)              126.1728                                         !
 ! A4    A(1,3,4)              122.7031                                         !
 ! A5    A(1,3,5)              123.9435                                         !
 ! A6    A(4,3,5)              113.3415                                         !
 ! A7    A(3,5,6)              119.9477                                         !
 ! A8    A(3,5,45)             119.2993                                         !
 ! A9    A(6,5,45)             120.7523                                         !
 ! A10   A(1,7,8)              119.1556                                         !
 ! A11   A(1,7,9)              124.1222                                         !
 ! A12   A(8,7,9)              116.2638                                         !
 ! A13   A(7,8,10)             122.1031                                         !
 ! A14   A(7,8,11)             118.649                                          !
 ! A15   A(10,8,11)            119.2438                                         !
 ! A16   A(7,9,12)             122.5443                                         !
 ! A17   A(7,9,13)              95.8675                                         !
 ! A18   A(7,9,50)             120.0789                                         !
 ! A19   A(12,9,13)            101.2471                                         !
 ! A20   A(12,9,50)            113.528                                          !
 ! A21   A(13,9,50)             92.3747                                         !
 ! A22   A(8,10,14)            120.4708                                         !
 ! A23   A(8,10,15)            120.0993                                         !
 ! A24   A(14,10,15)           119.4234                                         !
 ! A25   A(9,12,14)            118.4962                                         !
 ! A26   A(9,12,18)            120.2183                                         !
 ! A27   A(14,12,18)           121.2854                                         !
 ! A28   A(10,14,12)           119.6356                                         !
 ! A29   A(10,14,16)           123.8956                                         !
 ! A30   A(12,14,16)           116.4412                                         !
 ! A31   A(14,16,17)           110.1909                                         !
 ! A32   A(12,18,19)           113.5876                                         !
 ! A33   A(18,19,20)           110.0563                                         !
 ! A34   A(18,19,21)           106.1174                                         !
 ! A35   A(18,19,22)           110.4247                                         !
 ! A36   A(20,19,21)           109.8191                                         !
 ! A37   A(20,19,22)           110.4356                                         !
 ! A38   A(21,19,22)           109.8988                                         !
 ! A39   A(24,23,25)           119.0825                                         !
 ! A40   A(24,23,29)           114.491                                          !
 ! A41   A(25,23,29)           126.4217                                         !
 ! A42   A(23,25,26)           121.9488                                         !
 ! A43   A(23,25,27)           124.1578                                         !
 ! A44   A(26,25,27)           113.8897                                         !
 ! A45   A(25,27,28)           120.5168                                         !
 ! A46   A(25,27,45)           119.339                                          !
 ! A47   A(28,27,45)           120.144                                          !
 ! A48   A(23,29,30)           118.8078                                         !
 ! A49   A(23,29,31)           122.9079                                         !
 ! A50   A(30,29,31)           118.2837                                         !
 ! A51   A(29,30,32)           121.0339                                         !
 ! A52   A(29,30,33)           119.5124                                         !
 ! A53   A(32,30,33)           119.4516                                         !
 ! A54   A(29,31,34)           121.222                                          !
 ! A55   A(29,31,35)           121.3697                                         !
 ! A56   A(34,31,35)           117.4047                                         !
 ! A57   A(30,32,36)           120.1678                                         !
 ! A58   A(30,32,37)           120.3299                                         !
 ! A59   A(36,32,37)           119.5003                                         !
 ! A60   A(31,34,36)           119.7841                                         !
 ! A61   A(31,34,40)           119.9843                                         !
 ! A62   A(36,34,40)           120.2089                                         !
 ! A63   A(32,36,34)           119.5058                                         !
 ! A64   A(32,36,38)           123.301                                          !
 ! A65   A(34,36,38)           117.1915                                         !
 ! A66   A(36,38,39)           109.861                                          !
 ! A67   A(34,40,41)           113.7151                                         !
 ! A68   A(40,41,42)           110.3573                                         !
 ! A69   A(40,41,43)           106.5086                                         !
 ! A70   A(40,41,44)           111.1801                                         !
 ! A71   A(42,41,43)           109.4626                                         !
 ! A72   A(42,41,44)           109.7777                                         !
 ! A73   A(43,41,44)           109.4897                                         !
 ! A74   A(5,45,27)            112.9491                                         !
 ! A75   A(5,45,46)            107.2392                                         !
 ! A76   A(5,45,47)            110.2647                                         !
 ! A77   A(27,45,46)           110.5346                                         !
 ! A78   A(27,45,47)           107.0954                                         !
 ! A79   A(46,45,47)           108.7091                                         !
 ! A80   A(9,50,48)            118.6436                                         !
 ! A81   A(9,50,49)            115.8274                                         !
 ! A82   A(48,50,49)           125.4838                                         !
 ! D1    D(2,1,3,4)           -177.6364                                         !
 ! D2    D(2,1,3,5)              1.0215                                         !
 ! D3    D(7,1,3,4)             -0.4531                                         !
 ! D4    D(7,1,3,5)            178.2048                                         !
 ! D5    D(2,1,7,8)             23.9038                                         !
 ! D6    D(2,1,7,9)           -164.166                                          !
 ! D7    D(3,1,7,8)           -153.408                                          !
 ! D8    D(3,1,7,9)             18.5222                                         !
 ! D9    D(1,3,5,6)           -179.3655                                         !
 ! D10   D(1,3,5,45)             0.3383                                         !
 ! D11   D(4,3,5,6)             -0.5955                                         !
 ! D12   D(4,3,5,45)           179.1084                                         !
 ! D13   D(3,5,45,27)           72.1377                                         !
 ! D14   D(3,5,45,46)         -165.8413                                         !
 ! D15   D(3,5,45,47)          -47.6395                                         !
 ! D16   D(6,5,45,27)         -108.1609                                         !
 ! D17   D(6,5,45,46)           13.8601                                         !
 ! D18   D(6,5,45,47)          132.0619                                         !
 ! D19   D(1,7,8,10)           174.472                                          !
 ! D20   D(1,7,8,11)            -4.7854                                         !
 ! D21   D(9,7,8,10)             1.9179                                         !
 ! D22   D(9,7,8,11)          -177.3394                                         !
 ! D23   D(1,7,9,12)          -179.0971                                         !
 ! D24   D(1,7,9,13)           -71.7493                                         !
 ! D25   D(1,7,9,50)            24.4309                                         !
 ! D26   D(8,7,9,12)            -6.9544                                         !
 ! D27   D(8,7,9,13)           100.3934                                         !
 ! D28   D(8,7,9,50)          -163.4264                                         !
 ! D29   D(7,8,10,14)            1.1913                                         !
 ! D30   D(7,8,10,15)         -179.7432                                         !
 ! D31   D(11,8,10,14)        -179.5556                                         !
 ! D32   D(11,8,10,15)          -0.4901                                         !
 ! D33   D(7,9,12,14)            8.6913                                         !
 ! D34   D(7,9,12,18)         -171.2682                                         !
 ! D35   D(13,9,12,14)         -95.8187                                         !
 ! D36   D(13,9,12,18)          84.2218                                         !
 ! D37   D(50,9,12,14)         166.5581                                         !
 ! D38   D(50,9,12,18)         -13.4015                                         !
 ! D39   D(7,9,50,48)         -130.0884                                         !
 ! D40   D(7,9,50,49)           52.222                                          !
 ! D41   D(12,9,50,48)          71.4439                                         !
 ! D42   D(12,9,50,49)        -106.2457                                         !
 ! D43   D(13,9,50,48)         -31.9099                                         !
 ! D44   D(13,9,50,49)         150.4005                                         !
 ! D45   D(8,10,14,12)           0.478                                          !
 ! D46   D(8,10,14,16)         178.4975                                         !
 ! D47   D(15,10,14,12)       -178.5938                                         !
 ! D48   D(15,10,14,16)         -0.5743                                         !
 ! D49   D(9,12,14,10)          -5.2292                                         !
 ! D50   D(9,12,14,16)         176.6068                                         !
 ! D51   D(18,12,14,10)        174.7299                                         !
 ! D52   D(18,12,14,16)         -3.4341                                         !
 ! D53   D(9,12,18,19)         -98.3835                                         !
 ! D54   D(14,12,18,19)         81.6581                                         !
 ! D55   D(10,14,16,17)         -0.1431                                         !
 ! D56   D(12,14,16,17)        177.9343                                         !
 ! D57   D(12,18,19,20)         60.8566                                         !
 ! D58   D(12,18,19,21)        179.6207                                         !
 ! D59   D(12,18,19,22)        -61.3236                                         !
 ! D60   D(24,23,25,26)        178.9131                                         !
 ! D61   D(24,23,25,27)         -0.3458                                         !
 ! D62   D(29,23,25,26)         -0.2494                                         !
 ! D63   D(29,23,25,27)       -179.5082                                         !
 ! D64   D(24,23,29,30)         -1.3178                                         !
 ! D65   D(24,23,29,31)        178.4049                                         !
 ! D66   D(25,23,29,30)        177.8779                                         !
 ! D67   D(25,23,29,31)         -2.3994                                         !
 ! D68   D(23,25,27,28)        179.0865                                         !
 ! D69   D(23,25,27,45)         -1.0847                                         !
 ! D70   D(26,25,27,28)         -0.2257                                         !
 ! D71   D(26,25,27,45)        179.6031                                         !
 ! D72   D(25,27,45,5)          73.1801                                         !
 ! D73   D(25,27,45,46)        -46.9706                                         !
 ! D74   D(25,27,45,47)       -165.2364                                         !
 ! D75   D(28,27,45,5)        -106.9905                                         !
 ! D76   D(28,27,45,46)        132.8589                                         !
 ! D77   D(28,27,45,47)         14.593                                          !
 ! D78   D(23,29,30,32)       -179.7797                                         !
 ! D79   D(23,29,30,33)         -0.3065                                         !
 ! D80   D(31,29,30,32)          0.4847                                         !
 ! D81   D(31,29,30,33)        179.9579                                         !
 ! D82   D(23,29,31,34)        179.6731                                         !
 ! D83   D(23,29,31,35)          0.3756                                         !
 ! D84   D(30,29,31,34)         -0.6029                                         !
 ! D85   D(30,29,31,35)       -179.9004                                         !
 ! D86   D(29,30,32,36)         -0.0771                                         !
 ! D87   D(29,30,32,37)        179.4127                                         !
 ! D88   D(33,30,32,36)       -179.5507                                         !
 ! D89   D(33,30,32,37)         -0.0608                                         !
 ! D90   D(29,31,34,36)          0.3106                                         !
 ! D91   D(29,31,34,40)       -177.9614                                         !
 ! D92   D(35,31,34,36)        179.6349                                         !
 ! D93   D(35,31,34,40)          1.363                                          !
 ! D94   D(30,32,36,34)         -0.2266                                         !
 ! D95   D(30,32,36,38)        179.283                                          !
 ! D96   D(37,32,36,34)       -179.7207                                         !
 ! D97   D(37,32,36,38)         -0.2111                                         !
 ! D98   D(31,34,36,32)          0.1108                                         !
 ! D99   D(31,34,36,38)       -179.4283                                         !
 ! D100  D(40,34,36,32)        178.3788                                         !
 ! D101  D(40,34,36,38)         -1.1603                                         !
 ! D102  D(31,34,40,41)       -107.3174                                         !
 ! D103  D(36,34,40,41)         74.418                                          !
 ! D104  D(32,36,38,39)         -0.0812                                         !
 ! D105  D(34,36,38,39)        179.4388                                         !
 ! D106  D(34,40,41,42)         60.4308                                         !
 ! D107  D(34,40,41,43)        179.1579                                         !
 ! D108  D(34,40,41,44)        -61.6309                                         !
 --------------------------------------------------------------------------------
                          Input orientation:                          
 ---------------------------------------------------------------------
 Center     Atomic      Atomic             Coordinates (Angstroms)
 Number     Number       Type             X           Y           Z
 ---------------------------------------------------------------------
      1          6           0        2.225335    1.301408    0.053450
      2          1           0        1.874331    2.109338   -0.582386
      3          6           0        1.500288    0.938501    1.121671
      4          1           0        1.820630    0.163660    1.812942
      5          6           0        0.213525    1.560231    1.494912
      6          8           0       -0.376888    1.182432    2.484581
      7          6           0        3.516998    0.747379   -0.339417
      8          6           0        4.394269    1.532771   -1.080422
      9          6           0        4.021901   -0.493572    0.119625
     10          6           0        5.682337    1.110159   -1.391104
     11          1           0        4.062448    2.509536   -1.413888
     12          6           0        5.274759   -0.985295   -0.264705
     13          1           0        4.367056    0.066058    1.831094
     14          6           0        6.131541   -0.142378   -0.983858
     15          1           0        6.341330    1.751361   -1.968016
     16          8           0        7.352689   -0.632251   -1.271122
     17          1           0        7.854162    0.007395   -1.793960
     18          8           0        5.637837   -2.246772    0.055979
     19          6           0        6.472717   -2.325658    1.221538
     20          1           0        5.942669   -1.927604    2.089584
     21          1           0        6.683716   -3.382073    1.370846
     22          1           0        7.404045   -1.779985    1.060556
     23          6           0       -2.877972    1.119888    0.328754
     24          1           0       -2.525731    1.433239    1.308511
     25          6           0       -2.149593    1.428675   -0.756156
     26          1           0       -2.448530    1.124186   -1.754653
     27          6           0       -0.886930    2.181930   -0.716125
     28          8           0       -0.272555    2.410714   -1.738604
     29          6           0       -4.130634    0.367438    0.347451
     30          6           0       -4.735340    0.097351    1.577381
     31          6           0       -4.760840   -0.094192   -0.819519
     32          6           0       -5.923941   -0.617839    1.649278
     33          1           0       -4.265325    0.444053    2.491536
     34          6           0       -5.940863   -0.807991   -0.760939
     35          1           0       -4.334578    0.085941   -1.800343
     36          6           0       -6.534276   -1.077370    0.487555
     37          1           0       -6.379149   -0.829507    2.612137
     38          8           0       -7.682691   -1.790523    0.484671
     39          1           0       -7.990657   -1.920332    1.390965
     40          8           0       -6.509828   -1.280314   -1.907779
     41          6           0       -7.686512   -0.573325   -2.298143
     42          1           0       -7.455177    0.480812   -2.477774
     43          1           0       -8.030301   -1.032054   -3.223626
     44          1           0       -8.466475   -0.656143   -1.538961
     45          6           0       -0.353779    2.680092    0.628079
     46          1           0       -1.147441    3.160502    1.199763
     47          1           0        0.418331    3.418838    0.412673
     48          8           0        3.291328   -2.082557    1.658616
     49          8           0        2.189802   -1.844352   -0.170948
     50          7           0        3.082708   -1.556325    0.590213
 ---------------------------------------------------------------------
                    Distance matrix (angstroms):
                    1          2          3          4          5
     1  C    0.000000
     2  H    1.086389   0.000000
     3  C    1.341079   2.101090   0.000000
     4  H    2.134027   3.086445   1.086670   0.000000
     5  C    2.488409   2.715688   1.477029   2.152751   0.000000
     6  O    3.563161   3.915792   2.332556   2.513579   1.212751
     7  C    1.459345   2.147632   2.497684   2.801971   3.865026
     8  C    2.458347   2.632596   3.684766   4.107267   4.910369
     9  C    2.540469   3.446740   3.068136   2.853922   4.540181
    10  C    3.751556   4.019116   4.881909   5.106324   6.199964
    11  H    2.643414   2.374744   3.932159   4.576168   4.916961
    12  C    3.824817   4.608751   4.457539   4.191386   5.932288
    13  H    3.045173   4.026607   3.079414   2.548360   4.426893
    14  C    4.291733   4.832727   5.200967   5.147786   6.638229
    15  H    4.607624   4.690651   5.800224   6.103538   7.041193
    16  O    5.637667   6.164664   6.514853   6.383463   7.964018
    17  H    6.063917   6.453252   7.052629   7.031193   8.462110
    18  O    4.922882   5.791994   5.329257   4.844396   6.781369
    19  C    5.706163   6.638410   5.948929   5.309273   7.372404
    20  H    5.328315   6.323583   5.374584   4.630455   6.733625
    21  H    6.599068   7.556514   6.752583   6.034673   8.142796
    22  H    6.109688   6.957286   6.499864   5.959728   7.940357
    23  C    5.113950   4.938985   4.453177   5.019368   3.333344
    24  H    4.915809   4.836646   4.060604   4.556000   2.748527
    25  C    4.451028   4.084784   4.133780   4.895222   3.266335
    26  H    5.014544   4.586051   4.888853   5.645890   4.223310
    27  C    3.324719   2.765450   3.259206   4.219061   2.546802
    28  O    3.268252   2.456988   3.673086   4.695121   3.378643
    29  C    6.430947   6.321267   5.712514   6.132433   4.648779
    30  C    7.226556   7.238814   6.308587   6.560536   5.161210
    31  C    7.177494   6.995518   6.635993   7.093102   5.730447
    32  C    8.522962   8.557503   7.603930   7.785622   6.514316
    33  H    6.986272   7.065235   5.946706   6.130087   4.722205
    34  C    8.473463   8.343856   7.871797   8.234667   6.969493
    35  H    6.924332   6.642899   6.581086   7.137819   5.806676
    36  C    9.087233   9.055636   8.307831   8.549928   7.314679
    37  H    9.226311   9.325327   8.211752   8.298281   7.100873
    38  O   10.388212  10.377099   9.601065   9.792663   8.637035
    39  H   10.795140  10.837451   9.915820  10.039046   8.912560
    40  O    9.317445   9.140051   8.846620   9.237173   8.052980
    41  C   10.358056  10.077213   9.918571  10.384119   9.019419
    42  H   10.039560   9.658380   9.662600  10.225039   8.703814
    43  H   11.016457  10.721297  10.658181  11.128234   9.846076
    44  H   10.985562  10.746869  10.438306  10.850432   9.458282
    45  C    2.980402   2.599126   2.591204   3.530494   1.525557
    46  H    4.018194   3.662254   3.457436   4.262218   2.121370
    47  H    2.806744   2.196558   2.797388   3.810955   2.160465
    48  O    3.894114   4.960036   3.552876   2.689287   4.771747
    49  O    3.153954   3.987539   3.144927   2.846792   4.274569
    50  N    3.031475   4.033888   3.001775   2.458913   4.331698
                    6          7          8          9         10
     6  O    0.000000
     7  C    4.829760   0.000000
     8  C    5.966232   1.391235   0.000000
     9  C    5.267955   1.416194   2.384290   0.000000
    10  C    7.193077   2.434409   1.390770   2.758859   0.000000
    11  H    6.055325   2.134760   1.084147   3.372234   2.140751
    12  C    6.648212   2.469304   2.789501   1.399698   2.413674
    13  H    4.917147   2.428563   3.260202   1.833424   3.633548
    14  C    7.492986   2.835984   2.415277   2.406573   1.391575
    15  H    8.079837   3.411329   2.150965   3.844180   1.085468
    16  O    8.783208   4.181384   3.670958   3.612141   2.416705
    17  H    9.350765   4.634033   3.847956   4.312656   2.468847
    18  O    7.337198   3.690425   4.137973   2.385166   3.655819
    19  C    7.798658   4.540530   4.950398   3.252269   4.388102
    20  H    7.054441   4.351949   4.941728   3.102666   4.627198
    21  H    8.480993   5.477725   5.950292   4.122409   5.367613
    22  H    8.446696   4.843204   4.961541   3.738864   4.162672
    23  C    3.302563   6.440564   7.419013   7.089093   8.731375
    24  H    2.462433   6.300845   7.321428   6.928025   8.646657
    25  C    3.702094   5.722595   6.552719   6.522987   7.864079
    26  H    4.718707   6.142671   6.888064   6.927953   8.139003
    27  C    3.391705   4.646980   5.333403   5.652734   6.690258
    28  O    4.399416   4.368653   4.794084   5.507290   6.105157
    29  C    4.395697   7.687810   8.721858   8.201041   9.993428
    30  C    4.582196   8.496925   9.616346   8.897388  10.879599
    31  C    5.636124   8.334348   9.302210   8.841835  10.527921
    32  C    5.891393   9.744232  10.887693  10.063551  12.121699
    33  H    3.957929   8.286789   9.430418   8.670826  10.699279
    34  C    6.741884   9.594164  10.601707  10.006543  11.797253
    35  H    5.935165   8.013680   8.877183   8.593768  10.077455
    36  C    6.856256  10.248985  11.344800  10.578708  12.552301
    37  H    6.331770  10.446625  11.631074  10.700808  12.855648
    38  O    8.137128  11.513171  12.623263  11.781885  13.804219
    39  H    8.294132  11.938888  13.092673  12.163614  14.278464
    40  O    7.935421  10.349326  11.291471  10.753913  12.435040
    41  C    8.909980  11.449869  12.323302  11.955705  13.504923
    42  H    8.672913  11.181782  11.977837  11.807591  13.197393
    43  H    9.801138  12.034332  12.866297  12.518900  13.999416
    44  H    9.220123  12.124867  13.053749  12.599082  14.259403
    45  C    2.385398   4.433322   5.174871   5.429295   6.555645
    46  H    2.481385   5.472589   6.209614   6.421919   7.586987
    47  H    3.150665   4.159816   4.647006   5.327151   6.024397
    48  O    4.979777   3.471542   4.667913   2.329615   5.021070
    49  O    4.775056   2.916659   4.134221   2.294695   4.734523
    50  N    4.801898   2.521878   3.748830   1.494316   4.218272
                   11         12         13         14         15
    11  H    0.000000
    12  C    3.873521   0.000000
    13  H    4.073485   2.514287   0.000000
    14  C    3.390977   1.400630   3.328785   0.000000
    15  H    2.464791   3.395310   4.601222   2.144488   0.000000
    16  O    4.551582   2.335660   4.361810   1.346736   2.681439
    17  H    4.558757   3.158698   5.030345   1.909482   2.315248
    18  O    5.221573   1.351292   3.180425   2.398641   4.536136
    19  C    6.011154   2.332508   3.244329   3.122000   5.178089
    20  H    5.958000   2.622351   2.554224   3.559319   5.491615
    21  H    7.024019   3.225637   4.179515   4.042914   6.133301
    22  H    5.974038   2.630913   3.636606   2.912155   4.772003
    23  C    7.289537   8.441032   7.473822   9.191714   9.522051
    24  H    7.209297   8.316968   7.046473   9.093178   9.458415
    25  C    6.339584   7.822390   7.142640   8.431918   8.583036
    26  H    6.665444   8.143651   7.773637   8.707235   8.814790
    27  C    5.009045   6.942730   6.210443   7.398177   7.348494
    28  O    4.348270   6.669179   6.306041   6.935444   6.650628
    29  C    8.649710   9.521872   8.631498  10.360721  10.813818
    30  C    9.600385  10.235599   9.105985  11.167208  11.747264
    31  C    9.218627  10.090349   9.506310  10.893728  11.312971
    32  C   10.903734  11.367024  10.315299  12.348851  13.005184
    33  H    9.427108  10.032603   8.665857  10.978028  11.580061
    34  C   10.559287  11.227994  10.664698  12.092794  12.603951
    35  H    8.748326   9.790051   9.429007  10.500402  10.806330
    36  C   11.347772  11.833329  11.043168  12.785233  13.409429
    37  H   11.678400  12.004751  10.811706  13.035363  13.764057
    38  O   12.650822  13.004056  12.266056  13.989495  14.670848
    39  H   13.144134  13.401000  12.524078  14.430433  15.171353
    40  O   11.241882  11.902236  11.580091  12.726066  13.204051
    41  C   12.178834  13.126277  12.757269  13.887104  14.222992
    42  H   11.743221  13.003784  12.589819  13.682802  13.864262
    43  H   12.729987  13.630188  13.433186  14.365440  14.692438
    44  H   12.923276  13.804115  13.288279  14.617598  15.008373
    45  C    4.868447   6.775881   5.528716   7.254244   7.240631
    46  H    5.864970   7.783120   6.354828   8.286182   8.252406
    47  H    4.176451   6.590912   5.370799   6.875560   6.597733
    48  O    5.578730   2.972734   2.409042   4.337485   6.095400
    49  O    4.899800   3.203706   3.521118   4.369765   5.778736
    50  N    4.637621   2.421167   2.412770   3.711109   5.301315
                   16         17         18         19         20
    16  O    0.000000
    17  H    0.966428   0.000000
    18  O    2.703440   3.662736   0.000000
    19  C    3.139321   4.055214   1.435889   0.000000
    20  H    3.867873   4.741302   2.080947   1.092200   0.000000
    21  H    3.871568   4.782723   2.027720   1.087578   1.783596
    22  H    2.599356   3.397881   2.084839   1.091350   1.793408
    23  C   10.502191  10.996466   9.161213  10.005211   9.496917
    24  H   10.416522  10.927055   9.041856   9.752381   9.144350
    25  C    9.736836  10.157371   8.649425   9.609918   9.211273
    26  H    9.969090  10.363119   8.946009  10.017374   9.721306
    27  C    8.724618   9.071770   7.923518   8.845185   8.450070
    28  O    8.223292   8.474818   7.735984   8.757532   8.491469
    29  C   11.639839  12.179927  10.116427  10.974874  10.477293
    30  C   12.440528  13.033403  10.743016  11.472495  10.880380
    31  C   12.133880  12.652990  10.655168  11.633494  11.242303
    32  C   13.594037  14.215588  11.784174  12.521052  11.946790
    33  H   12.259457  12.862275  10.547280  11.161978  10.487586
    34  C   13.304498  13.857658  11.696313  12.662168  12.271810
    35  H   11.721267  12.188995  10.408485  11.478032  11.171737
    36  C   14.004958  14.608531  12.235771  13.087353  12.608074
    37  H   14.271719  14.923178  12.367318  13.013174  12.381682
    38  O   15.181800  15.805647  13.335232  14.184672  13.720239
    39  H   15.625752  16.276307  13.697613  14.470044  13.950831
    40  O   13.892253  14.422045  12.343264  13.395218  13.094372
    41  C   15.074342  15.559691  13.633803  14.694985  14.381960
    42  H   14.898584  15.331914  13.612003  14.681533  14.358394
    43  H   15.511559  15.982508  14.108485  15.224008  14.975850
    44  H   15.821449  16.336111  14.283052  15.283557  14.913295
    45  C    8.600478   8.965483   7.778223   8.485917   7.938017
    46  H    9.630289   9.996666   8.751392   9.389635   8.772130
    47  H    8.205596   8.473414   7.711654   8.385051   7.868594
    48  O    5.213579   6.091604   2.846317   3.220461   2.690604
    49  O    5.416177   6.176416   3.478848   4.529242   4.381888
    50  N    4.748812   5.558442   2.700150   3.533074   3.250436
                   21         22         23         24         25
    21  H    0.000000
    22  H    1.783771   0.000000
    23  C   10.619769  10.708159   0.000000
    24  H   10.392547  10.439671   1.087283   0.000000
    25  C   10.280797  10.240505   1.342727   2.098654   0.000000
    26  H   10.652372  10.650485   2.127210   3.079682   1.085851
    27  C    9.624358   9.359146   2.486756   2.710232   1.470821
    28  O    9.571561   9.182998   3.567689   3.913715   2.335140
    29  C   11.491577  11.754521   1.461401   2.152970   2.503736
    30  C   11.939175  12.294558   2.460582   2.596008   3.728794
    31  C   12.107260  12.424211   2.517482   3.443439   3.023533
    32  C   12.910133  13.391504   3.747186   3.983827   4.921385
    33  H   11.652326  11.965294   2.656902   2.324699   3.999163
    34  C   13.059495  13.503672   3.779609   4.579176   4.401865
    35  H   11.978580  12.225453   2.779173   3.840847   2.769011
    36  C   13.446456  13.967776   4.268690   4.800579   5.201204
    37  H   13.367679  13.902778   4.612181   4.654921   5.859516
    38  O   14.481436  15.097726   5.619619   6.137229   6.520587
    39  H   14.747011  15.398887   6.042415   6.412383   7.067107
    40  O   13.756322  14.235749   4.894224   5.794904   5.260846
    41  C   15.094834  15.506830   5.734947   6.608170   6.086312
    42  H   15.153945  15.441096   5.407016   6.288283   5.657882
    43  H   15.592757  16.035356   6.617911   7.544416   6.835665
    44  H   15.666077  16.121225   6.154186   6.911299   6.697928
    45  C    9.318148   8.958971   2.982513   2.595189   2.589807
    46  H   10.205958   9.877029   2.813805   2.212453   2.798062
    47  H    9.296533   8.731993   4.019680   3.662326   3.452702
    48  O    3.644153   4.166973   7.077037   6.805995   6.911114
    49  O    4.993694   5.358085   5.892263   5.930232   5.466765
    50  N    4.112178   4.352608   6.539127   6.395938   6.172512
                   26         27         28         29         30
    26  H    0.000000
    27  C    2.153128   0.000000
    28  O    2.527900   1.214604   0.000000
    29  C    2.796601   3.865901   4.838530   0.000000
    30  C    4.169693   4.941245   6.021948   1.396906   0.000000
    31  C    2.775914   4.494286   5.221492   1.404308   2.404677
    32  C    5.167192   6.229392   7.251761   2.425175   1.389043
    33  H    4.668345   4.972209   6.140363   2.149678   1.084802
    34  C    4.113048   5.872297   6.591328   2.426332   2.782206
    35  H    2.153420   4.177916   4.680643   2.175741   3.401435
    36  C    5.154383   6.630566   7.505442   2.807952   2.409121
    37  H    6.191569   7.092993   8.168138   3.408416   2.152183
    38  O    6.395822   7.962705   8.803605   4.158453   3.666737
    39  H    7.062519   8.469435   9.387293   4.606799   3.834434
    40  O    4.722204   6.710005   7.249544   3.669021   4.146458
    41  C    5.532936   7.505234   8.011512   4.530835   4.917206
    42  H    5.099347   7.009927   7.474018   4.364325   4.897840
    43  H    6.161446   8.224658   8.616296   5.469786   5.931441
    44  H    6.279471   8.135184   8.751331   4.837952   4.919422
    45  C    3.533587   1.529476   2.383348   4.437539   5.173954
    46  H    3.816803   2.167048   3.156202   4.174575   4.732706
    47  H    4.263992   2.123166   2.474193   5.477991   6.240925
    48  O    7.408075   6.425192   6.665723   7.925097   8.317812
    49  O    5.730136   5.096513   5.160071   6.716299   7.401652
    50  N    6.578611   5.607057   5.693732   7.469411   8.051771
                   31         32         33         34         35
    31  C    0.000000
    32  C    2.778843   0.000000
    33  H    3.390919   2.141967   0.000000
    34  C    1.380360   2.417765   3.866993   0.000000
    35  H    1.084510   3.862805   4.307350   2.111782   0.000000
    36  C    2.412500   1.390423   3.388039   1.408346   3.380301
    37  H    3.864696   1.085871   2.470779   3.401499   4.948565
    38  O    3.621555   2.413440   4.549640   2.356030   4.466796
    39  H    4.318882   2.456528   4.547491   3.173271   5.251332
    40  O    2.377005   3.665349   5.231176   1.364571   2.570974
    41  C    3.312922   4.323282   5.973324   2.337810   3.452230
    42  H    3.215569   4.536989   5.905128   2.627105   3.217603
    43  H    4.165175   5.324801   7.001215   3.237404   4.115095
    44  H    3.816427   4.078089   5.924947   2.647092   4.206136
    45  C    5.405033   6.553313   4.875709   6.731389   5.336067
    46  H    5.265661   6.106790   4.332317   6.524582   5.348963
    47  H    6.378362   7.618949   5.925172   7.725464   6.212551
    48  O    8.656337   9.330953   8.011275   9.628713   8.649927
    49  O    7.196884   8.405378   7.348081   8.217654   6.996320
    50  N    8.102248   9.117132   7.849212   9.154804   7.964165
                   36         37         38         39         40
    36  C    0.000000
    37  H    2.144610   0.000000
    38  O    1.351833   2.673740   0.000000
    39  H    1.909917   2.297416   0.965952   0.000000
    40  O    2.404039   4.544221   2.712883   3.672082   0.000000
    41  C    3.056439   5.087797   3.037374   3.939093   1.427165
    42  H    3.474070   5.364883   3.739894   4.584689   2.078495
    43  H    4.001625   6.068233   3.800997   4.699475   2.026061
    44  H    2.831535   4.649580   2.448718   3.226305   2.086644
    45  C    7.234418   7.249749   8.586030   8.948062   7.746763
    46  H    6.890921   6.729468   8.230036   8.525317   7.624490
    47  H    8.280111   8.312149   9.631676  10.008740   8.687113
    48  O    9.946069   9.797829  11.040495  11.286326  10.460662
    49  O    8.782450   9.066553   9.894385  10.299859   8.889223
    50  N    9.629450   9.702740  10.768463  11.108245   9.916295
                   41         42         43         44         45
    41  C    0.000000
    42  H    1.094070   0.000000
    43  H    1.088642   1.782084   0.000000
    44  H    1.091586   1.787949   1.780352   0.000000
    45  C    8.539114   8.056860   9.356529   9.035616   0.000000
    46  H    8.302786   7.777695   9.193348   8.696875   1.089732
    47  H    9.432623   8.887002  10.218243   9.967654   1.090092
    48  O   11.766337  11.796947  12.374131  12.268052   6.085363
    49  O   10.182438  10.185943  10.697157  10.809234   5.251556
    50  N   11.193077  11.162862  11.760918  11.778257   5.455099
                   46         47         48         49         50
    46  H    0.000000
    47  H    1.771410   0.000000
    48  O    6.884976   6.330232   0.000000
    49  O    6.169652   5.583896   2.148815   0.000000
    50  N    6.365074   5.646474   1.209102   1.208142   0.000000
 Stoichiometry    C21H20NO8(2)
 Framework group  C1[X(C21H20NO8)]
 Deg. of freedom   144
 Full point group                 C1      NOp   1
 Largest Abelian subgroup         C1      NOp   1
 Largest concise Abelian subgroup C1      NOp   1
                         Standard orientation:                         
 ---------------------------------------------------------------------
 Center     Atomic      Atomic             Coordinates (Angstroms)
 Number     Number       Type             X           Y           Z
 ---------------------------------------------------------------------
      1          6           0        2.186038    1.286851    0.459561
      2          1           0        1.818548    2.248310    0.112013
      3          6           0        1.476775    0.596029    1.364107
      4          1           0        1.813791   -0.351888    1.774869
      5          6           0        0.186565    1.049856    1.921793
      6          8           0       -0.388730    0.371574    2.746252
      7          6           0        3.480118    0.903527   -0.095513
      8          6           0        4.339907    1.894873   -0.557606
      9          6           0        4.004882   -0.411161   -0.052827
     10          6           0        5.629663    1.610428   -0.993340
     11          1           0        3.992738    2.921903   -0.565172
     12          6           0        5.259495   -0.738598   -0.579976
     13          1           0        4.361264   -0.412416    1.745626
     14          6           0        6.098330    0.300185   -1.003121
     15          1           0        6.274687    2.410112   -1.343613
     16          8           0        7.322238   -0.056458   -1.437346
     17          1           0        7.810353    0.722422   -1.735795
     18          8           0        5.641242   -2.031416   -0.674208
     19          6           0        6.489280   -2.460032    0.402313
     20          1           0        5.963629   -2.362723    1.354743
     21          1           0        6.714665   -3.506617    0.210774
     22          1           0        7.412156   -1.877640    0.415182
     23          6           0       -2.911495    0.952255    0.695546
     24          1           0       -2.552761    0.947172    1.721932
     25          6           0       -2.198418    1.596993   -0.241870
     26          1           0       -2.504160    1.617167   -1.283594
     27          6           0       -0.944649    2.318214    0.025000
     28          8           0       -0.343931    2.865705   -0.877581
     29          6           0       -4.154653    0.213500    0.484617
     30          6           0       -4.743011   -0.438221    1.571098
     31          6           0       -4.791491    0.132506   -0.764366
     32          6           0       -5.922009   -1.157366    1.421984
     33          1           0       -4.267618   -0.389287    2.544957
     34          6           0       -5.962067   -0.581008   -0.925737
     35          1           0       -4.377830    0.617935   -1.641524
     36          6           0       -6.538947   -1.237720    0.178518
     37          1           0       -6.364418   -1.667517    2.272358
     38          8           0       -7.678578   -1.930844   -0.041195
     39          1           0       -7.975357   -2.343334    0.780290
     40          8           0       -6.537330   -0.677566   -2.159351
     41          6           0       -7.726574    0.098698   -2.300463
     42          1           0       -7.509975    1.159217   -2.141171
     43          1           0       -8.074516   -0.051144   -3.321063
     44          1           0       -8.497413   -0.229983   -1.600938
     45          6           0       -0.403427    2.376770    1.454318
     46          1           0       -1.196788    2.641436    2.152922
     47          1           0        0.357332    3.157170    1.477182
     48          8           0        3.309964   -2.413820    0.913378
     49          8           0        2.186367   -1.629347   -0.741777
     50          7           0        3.083694   -1.581770    0.065779
 ---------------------------------------------------------------------
 Rotational constants (GHZ):           0.3302548           0.0509012           0.0492693
 Standard basis: 6-311G(d) (5D, 7F)
 There are   630 symmetry adapted cartesian basis functions of A   symmetry.
 There are   600 symmetry adapted basis functions of A   symmetry.
   600 basis functions,  1060 primitive gaussians,   630 cartesian basis functions
   109 alpha electrons      108 beta electrons
       nuclear repulsion energy      2729.1026081342 Hartrees.
 NAtoms=   50 NActive=   50 NUniq=   50 SFac= 1.00D+00 NAtFMM=   60 NAOKFM=F Big=F
 Integral buffers will be    131072 words long.
 Raffenetti 2 integral format.
 Two-electron integral symmetry is turned on.
 Using the following non-standard input for PCM:
 Eps=7
 EpsInf=1.85341
 HbondAcidity=0
 HbondBasicity=0.48
 SurfaceTensionAtInterface=60.62
 CarbonAromaticity=0
 ElectronegativeHalogenicity=0
 --- end of non-standard input.
 ------------------------------------------------------------------------------
 Polarizable Continuum Model (PCM)
 =================================
 Model                : PCM.
 Atomic radii         : SMD-Coulomb.
 Polarization charges : Total charges.
 Charge compensation  : None.
 Solution method      : On-the-fly selection.
 Cavity type          : VdW (van der Waals Surface) (Alpha=1.000).
 Cavity algorithm     : GePol (No added spheres)
                        Default sphere list used, NSphG=   50.
                        Lebedev-Laikov grids with approx.  5.0 points / Ang**2.
                        Smoothing algorithm: York/Karplus (Gamma=1.0000).
                        Polarization charges: spherical gaussians, with
                                              point-specific exponents (IZeta= 3).
                        Self-potential: point-specific (ISelfS= 7).
                        Self-field    : sphere-specific E.n sum rule (ISelfD= 2).
 Solvent              : Generic,
                        Eps                           =   7.000000
                        Eps(infinity)                 =   1.853410
                        RSolv                         =   0.000000 Ang.
                        Molar volume                  =   0.000000 cm**3/mol
                        Thermal expansion coefficient =   0.000000 K**-1
                        Absolute temperature          = 298.150000 K
                        Numeral density               =   0.000000 Ang**-3
                        Hydrogen bond acidity         =   0.000000
                        Hydrogen bond basicity        =   0.480000
                        Surface tension at interface  =  60.620000 (cal/mol)*Ang**-2
                        Carbon aromaticity            =   0.000000
                        Electronegative halogenicity  =   0.000000
 ------------------------------------------------------------------------------
 ------------------------------------------------------------------------------
 Atomic radii for non-electrostatic terms: SMD-CDS.
 ------------------------------------------------------------------------------
 Nuclear repulsion after PCM non-electrostatic terms =     2729.0989172051 Hartrees.
 One-electron integrals computed using PRISM.
 NBasis=   600 RedAO= T EigKep=  1.70D-04  NBF=   600
 NBsUse=   600 1.00D-06 EigRej= -1.00D+00 NBFU=   600
 Initial guess from the checkpoint file:  "CURCUMIN-TS-1-M062X-6-311G-D-298-NBO.chk"
 B after Tr=     0.000000    0.000000   -0.000000
         Rot=    1.000000    0.000000   -0.000000   -0.000000 Ang=   0.00 deg.
 Initial guess <Sx>= 0.0000 <Sy>= 0.0000 <Sz>= 0.5000 <S**2>= 0.7678 S= 0.5088
 Requested convergence on RMS density matrix=1.00D-08 within 128 cycles.
 Requested convergence on MAX density matrix=1.00D-06.
 Requested convergence on             energy=1.00D-06.
 No special actions if energy rises.
 Inv3:  Mode=1 IEnd=    49183203.
 Iteration    1 A*A^-1 deviation from unit magnitude is 3.55D-15 for      8.
 Iteration    1 A*A^-1 deviation from orthogonality  is 1.89D-15 for   3623   1590.
 Iteration    1 A^-1*A deviation from unit magnitude is 3.22D-15 for   2761.
 Iteration    1 A^-1*A deviation from orthogonality  is 2.88D-13 for   3211   3140.
 Error on total polarization charges =  0.03597
 SCF Done:  E(UM062X) =  -1468.33578031     A.U. after    1 cycles
            NFock=  1  Conv=0.74D-08     -V/T= 2.0032
 <Sx>= 0.0000 <Sy>= 0.0000 <Sz>= 0.5000 <S**2>= 0.7678 S= 0.5088
 <L.S>=  0.00000000000    
 SMD-CDS (non-electrostatic) energy       (kcal/mol) =      -2.32
 (included in total energy above)
 Annihilation of the first spin contaminant:
 S**2 before annihilation     0.7678,   after     0.7502

 **********************************************************************

            Population analysis using the SCF density.

 **********************************************************************

 Orbital symmetries:
 Alpha Orbitals:
       Occupied  (A) (A) (A) (A) (A) (A) (A) (A) (A) (A) (A) (A)
                 (A) (A) (A) (A) (A) (A) (A) (A) (A) (A) (A) (A)
                 (A) (A) (A) (A) (A) (A) (A) (A) (A) (A) (A) (A)
                 (A) (A) (A) (A) (A) (A) (A) (A) (A) (A) (A) (A)
                 (A) (A) (A) (A) (A) (A) (A) (A) (A) (A) (A) (A)
                 (A) (A) (A) (A) (A) (A) (A) (A) (A) (A) (A) (A)
                 (A) (A) (A) (A) (A) (A) (A) (A) (A) (A) (A) (A)
                 (A) (A) (A) (A) (A) (A) (A) (A) (A) (A) (A) (A)
                 (A) (A) (A) (A) (A) (A) (A) (A) (A) (A) (A) (A)
                 (A)
       Virtual   (A) (A) (A) (A) (A) (A) (A) (A) (A) (A) (A) (A)
                 (A) (A) (A) (A) (A) (A) (A) (A) (A) (A) (A) (A)
                 (A) (A) (A) (A) (A) (A) (A) (A) (A) (A) (A) (A)
                 (A) (A) (A) (A) (A) (A) (A) (A) (A) (A) (A) (A)
                 (A) (A) (A) (A) (A) (A) (A) (A) (A) (A) (A) (A)
                 (A) (A) (A) (A) (A) (A) (A) (A) (A) (A) (A) (A)
                 (A) (A) (A) (A) (A) (A) (A) (A) (A) (A) (A) (A)
                 (A) (A) (A) (A) (A) (A) (A) (A) (A) (A) (A) (A)
                 (A) (A) (A) (A) (A) (A) (A) (A) (A) (A) (A) (A)
                 (A) (A) (A) (A) (A) (A) (A) (A) (A) (A) (A) (A)
                 (A) (A) (A) (A) (A) (A) (A) (A) (A) (A) (A) (A)
                 (A) (A) (A) (A) (A) (A) (A) (A) (A) (A) (A) (A)
                 (A) (A) (A) (A) (A) (A) (A) (A) (A) (A) (A) (A)
                 (A) (A) (A) (A) (A) (A) (A) (A) (A) (A) (A) (A)
                 (A) (A) (A) (A) (A) (A) (A) (A) (A) (A) (A) (A)
                 (A) (A) (A) (A) (A) (A) (A) (A) (A) (A) (A) (A)
                 (A) (A) (A) (A) (A) (A) (A) (A) (A) (A) (A) (A)
                 (A) (A) (A) (A) (A) (A) (A) (A) (A) (A) (A) (A)
                 (A) (A) (A) (A) (A) (A) (A) (A) (A) (A) (A) (A)
                 (A) (A) (A) (A) (A) (A) (A) (A) (A) (A) (A) (A)
                 (A) (A) (A) (A) (A) (A) (A) (A) (A) (A) (A) (A)
                 (A) (A) (A) (A) (A) (A) (A) (A) (A) (A) (A) (A)
                 (A) (A) (A) (A) (A) (A) (A) (A) (A) (A) (A) (A)
                 (A) (A) (A) (A) (A) (A) (A) (A) (A) (A) (A) (A)
                 (A) (A) (A) (A) (A) (A) (A) (A) (A) (A) (A) (A)
                 (A) (A) (A) (A) (A) (A) (A) (A) (A) (A) (A) (A)
                 (A) (A) (A) (A) (A) (A) (A) (A) (A) (A) (A) (A)
                 (A) (A) (A) (A) (A) (A) (A) (A) (A) (A) (A) (A)
                 (A) (A) (A) (A) (A) (A) (A) (A) (A) (A) (A) (A)
                 (A) (A) (A) (A) (A) (A) (A) (A) (A) (A) (A) (A)
                 (A) (A) (A) (A) (A) (A) (A) (A) (A) (A) (A) (A)
                 (A) (A) (A) (A) (A) (A) (A) (A) (A) (A) (A) (A)
                 (A) (A) (A) (A) (A) (A) (A) (A) (A) (A) (A) (A)
                 (A) (A) (A) (A) (A) (A) (A) (A) (A) (A) (A) (A)
                 (A) (A) (A) (A) (A) (A) (A) (A) (A) (A) (A) (A)
                 (A) (A) (A) (A) (A) (A) (A) (A) (A) (A) (A) (A)
                 (A) (A) (A) (A) (A) (A) (A) (A) (A) (A) (A) (A)
                 (A) (A) (A) (A) (A) (A) (A) (A) (A) (A) (A) (A)
                 (A) (A) (A) (A) (A) (A) (A) (A) (A) (A) (A) (A)
                 (A) (A) (A) (A) (A) (A) (A) (A) (A) (A) (A) (A)
                 (A) (A) (A) (A) (A) (A) (A) (A) (A) (A) (A)
 Beta  Orbitals:
       Occupied  (A) (A) (A) (A) (A) (A) (A) (A) (A) (A) (A) (A)
                 (A) (A) (A) (A) (A) (A) (A) (A) (A) (A) (A) (A)
                 (A) (A) (A) (A) (A) (A) (A) (A) (A) (A) (A) (A)
                 (A) (A) (A) (A) (A) (A) (A) (A) (A) (A) (A) (A)
                 (A) (A) (A) (A) (A) (A) (A) (A) (A) (A) (A) (A)
                 (A) (A) (A) (A) (A) (A) (A) (A) (A) (A) (A) (A)
                 (A) (A) (A) (A) (A) (A) (A) (A) (A) (A) (A) (A)
                 (A) (A) (A) (A) (A) (A) (A) (A) (A) (A) (A) (A)
                 (A) (A) (A) (A) (A) (A) (A) (A) (A) (A) (A) (A)
       Virtual   (A) (A) (A) (A) (A) (A) (A) (A) (A) (A) (A) (A)
                 (A) (A) (A) (A) (A) (A) (A) (A) (A) (A) (A) (A)
                 (A) (A) (A) (A) (A) (A) (A) (A) (A) (A) (A) (A)
                 (A) (A) (A) (A) (A) (A) (A) (A) (A) (A) (A) (A)
                 (A) (A) (A) (A) (A) (A) (A) (A) (A) (A) (A) (A)
                 (A) (A) (A) (A) (A) (A) (A) (A) (A) (A) (A) (A)
                 (A) (A) (A) (A) (A) (A) (A) (A) (A) (A) (A) (A)
                 (A) (A) (A) (A) (A) (A) (A) (A) (A) (A) (A) (A)
                 (A) (A) (A) (A) (A) (A) (A) (A) (A) (A) (A) (A)
                 (A) (A) (A) (A) (A) (A) (A) (A) (A) (A) (A) (A)
                 (A) (A) (A) (A) (A) (A) (A) (A) (A) (A) (A) (A)
                 (A) (A) (A) (A) (A) (A) (A) (A) (A) (A) (A) (A)
                 (A) (A) (A) (A) (A) (A) (A) (A) (A) (A) (A) (A)
                 (A) (A) (A) (A) (A) (A) (A) (A) (A) (A) (A) (A)
                 (A) (A) (A) (A) (A) (A) (A) (A) (A) (A) (A) (A)
                 (A) (A) (A) (A) (A) (A) (A) (A) (A) (A) (A) (A)
                 (A) (A) (A) (A) (A) (A) (A) (A) (A) (A) (A) (A)
                 (A) (A) (A) (A) (A) (A) (A) (A) (A) (A) (A) (A)
                 (A) (A) (A) (A) (A) (A) (A) (A) (A) (A) (A) (A)
                 (A) (A) (A) (A) (A) (A) (A) (A) (A) (A) (A) (A)
                 (A) (A) (A) (A) (A) (A) (A) (A) (A) (A) (A) (A)
                 (A) (A) (A) (A) (A) (A) (A) (A) (A) (A) (A) (A)
                 (A) (A) (A) (A) (A) (A) (A) (A) (A) (A) (A) (A)
                 (A) (A) (A) (A) (A) (A) (A) (A) (A) (A) (A) (A)
                 (A) (A) (A) (A) (A) (A) (A) (A) (A) (A) (A) (A)
                 (A) (A) (A) (A) (A) (A) (A) (A) (A) (A) (A) (A)
                 (A) (A) (A) (A) (A) (A) (A) (A) (A) (A) (A) (A)
                 (A) (A) (A) (A) (A) (A) (A) (A) (A) (A) (A) (A)
                 (A) (A) (A) (A) (A) (A) (A) (A) (A) (A) (A) (A)
                 (A) (A) (A) (A) (A) (A) (A) (A) (A) (A) (A) (A)
                 (A) (A) (A) (A) (A) (A) (A) (A) (A) (A) (A) (A)
                 (A) (A) (A) (A) (A) (A) (A) (A) (A) (A) (A) (A)
                 (A) (A) (A) (A) (A) (A) (A) (A) (A) (A) (A) (A)
                 (A) (A) (A) (A) (A) (A) (A) (A) (A) (A) (A) (A)
                 (A) (A) (A) (A) (A) (A) (A) (A) (A) (A) (A) (A)
                 (A) (A) (A) (A) (A) (A) (A) (A) (A) (A) (A) (A)
                 (A) (A) (A) (A) (A) (A) (A) (A) (A) (A) (A) (A)
                 (A) (A) (A) (A) (A) (A) (A) (A) (A) (A) (A) (A)
                 (A) (A) (A) (A) (A) (A) (A) (A) (A) (A) (A) (A)
                 (A) (A) (A) (A) (A) (A) (A) (A) (A) (A) (A) (A)
                 (A) (A) (A) (A) (A) (A) (A) (A) (A) (A) (A) (A)
 The electronic state is 2-A.
 Alpha  occ. eigenvalues --  -19.66922 -19.66722 -19.66713 -19.65846 -19.65265
 Alpha  occ. eigenvalues --  -19.63409 -19.61656 -19.61159 -15.00840 -10.63890
 Alpha  occ. eigenvalues --  -10.63479 -10.63185 -10.62892 -10.62800 -10.61548
 Alpha  occ. eigenvalues --  -10.59965 -10.58189 -10.58041 -10.57318 -10.57250
 Alpha  occ. eigenvalues --  -10.56834 -10.56556 -10.56413 -10.55503 -10.55369
 Alpha  occ. eigenvalues --  -10.55071 -10.54827 -10.54752 -10.54662 -10.54212
 Alpha  occ. eigenvalues --   -1.38659  -1.21913  -1.20439  -1.19931  -1.19193
 Alpha  occ. eigenvalues --   -1.17640  -1.17350  -1.16953  -1.00601  -0.97298
 Alpha  occ. eigenvalues --   -0.92554  -0.91381  -0.91054  -0.87568  -0.85712
 Alpha  occ. eigenvalues --   -0.85251  -0.82742  -0.81163  -0.78765  -0.77873
 Alpha  occ. eigenvalues --   -0.74910  -0.74417  -0.71285  -0.70667  -0.69685
 Alpha  occ. eigenvalues --   -0.66790  -0.66728  -0.65256  -0.63623  -0.62866
 Alpha  occ. eigenvalues --   -0.61628  -0.60929  -0.60603  -0.59580  -0.58813
 Alpha  occ. eigenvalues --   -0.58659  -0.57931  -0.56542  -0.55813  -0.55545
 Alpha  occ. eigenvalues --   -0.54536  -0.54021  -0.53126  -0.52730  -0.52118
 Alpha  occ. eigenvalues --   -0.51290  -0.50748  -0.50485  -0.50260  -0.49795
 Alpha  occ. eigenvalues --   -0.49284  -0.48514  -0.47997  -0.47472  -0.46696
 Alpha  occ. eigenvalues --   -0.46562  -0.45530  -0.45237  -0.44494  -0.44194
 Alpha  occ. eigenvalues --   -0.43418  -0.43282  -0.42695  -0.42522  -0.40402
 Alpha  occ. eigenvalues --   -0.40170  -0.39647  -0.39109  -0.36905  -0.36317
 Alpha  occ. eigenvalues --   -0.35939  -0.35294  -0.34940  -0.33960  -0.32164
 Alpha  occ. eigenvalues --   -0.30722  -0.29097  -0.26834  -0.26787
 Alpha virt. eigenvalues --   -0.05273  -0.03753  -0.02652   0.01038   0.02297
 Alpha virt. eigenvalues --    0.03548   0.05375   0.06900   0.07478   0.08867
 Alpha virt. eigenvalues --    0.09898   0.10077   0.10485   0.11243   0.11789
 Alpha virt. eigenvalues --    0.11964   0.12134   0.12812   0.14489   0.14591
 Alpha virt. eigenvalues --    0.15592   0.16116   0.16167   0.16346   0.16458
 Alpha virt. eigenvalues --    0.17519   0.18211   0.18402   0.19005   0.20191
 Alpha virt. eigenvalues --    0.20682   0.21457   0.22004   0.22580   0.24589
 Alpha virt. eigenvalues --    0.26134   0.26512   0.26966   0.27272   0.28876
 Alpha virt. eigenvalues --    0.29933   0.30326   0.30768   0.31480   0.31829
 Alpha virt. eigenvalues --    0.32642   0.33412   0.33986   0.34373   0.34585
 Alpha virt. eigenvalues --    0.35393   0.35924   0.36042   0.37191   0.37894
 Alpha virt. eigenvalues --    0.38295   0.38840   0.39479   0.39994   0.40015
 Alpha virt. eigenvalues --    0.40562   0.40929   0.41367   0.41864   0.42379
 Alpha virt. eigenvalues --    0.42969   0.43243   0.43631   0.44082   0.44465
 Alpha virt. eigenvalues --    0.45024   0.45434   0.46141   0.46869   0.47037
 Alpha virt. eigenvalues --    0.47279   0.47989   0.48193   0.48622   0.49256
 Alpha virt. eigenvalues --    0.49417   0.49972   0.50180   0.50527   0.51064
 Alpha virt. eigenvalues --    0.51298   0.51457   0.52608   0.52739   0.53493
 Alpha virt. eigenvalues --    0.53797   0.54504   0.55299   0.56426   0.56921
 Alpha virt. eigenvalues --    0.57446   0.57836   0.57853   0.59034   0.59518
 Alpha virt. eigenvalues --    0.59933   0.60189   0.61173   0.61764   0.62070
 Alpha virt. eigenvalues --    0.62361   0.63171   0.63967   0.64221   0.64775
 Alpha virt. eigenvalues --    0.64909   0.65363   0.65702   0.66250   0.66662
 Alpha virt. eigenvalues --    0.66815   0.66913   0.67678   0.68151   0.68343
 Alpha virt. eigenvalues --    0.68662   0.69228   0.69721   0.69916   0.71101
 Alpha virt. eigenvalues --    0.71815   0.72173   0.73418   0.73558   0.73920
 Alpha virt. eigenvalues --    0.75378   0.75626   0.76776   0.78467   0.79369
 Alpha virt. eigenvalues --    0.79738   0.80074   0.80780   0.81420   0.82301
 Alpha virt. eigenvalues --    0.82512   0.83193   0.83786   0.83902   0.84295
 Alpha virt. eigenvalues --    0.85257   0.85627   0.85830   0.86724   0.87175
 Alpha virt. eigenvalues --    0.87396   0.88852   0.89445   0.89706   0.90025
 Alpha virt. eigenvalues --    0.90737   0.91315   0.91632   0.93383   0.94121
 Alpha virt. eigenvalues --    0.94297   0.94794   0.95793   0.96267   0.97066
 Alpha virt. eigenvalues --    0.97661   0.99369   1.00206   1.00402   1.00926
 Alpha virt. eigenvalues --    1.01238   1.01354   1.03081   1.03446   1.03838
 Alpha virt. eigenvalues --    1.04308   1.06029   1.06900   1.07575   1.08910
 Alpha virt. eigenvalues --    1.10388   1.10679   1.11128   1.12451   1.13292
 Alpha virt. eigenvalues --    1.13684   1.14251   1.15796   1.17180   1.17406
 Alpha virt. eigenvalues --    1.18154   1.19746   1.19890   1.20219   1.21396
 Alpha virt. eigenvalues --    1.22105   1.23331   1.24942   1.25197   1.25680
 Alpha virt. eigenvalues --    1.27558   1.28428   1.28518   1.29328   1.30061
 Alpha virt. eigenvalues --    1.31522   1.32154   1.33455   1.35848   1.36592
 Alpha virt. eigenvalues --    1.38877   1.40928   1.41428   1.42427   1.43607
 Alpha virt. eigenvalues --    1.45818   1.47569   1.48929   1.49459   1.50556
 Alpha virt. eigenvalues --    1.51912   1.52311   1.53523   1.54645   1.55257
 Alpha virt. eigenvalues --    1.55750   1.56533   1.56825   1.57543   1.57566
 Alpha virt. eigenvalues --    1.58015   1.58937   1.59618   1.60633   1.61256
 Alpha virt. eigenvalues --    1.61738   1.62367   1.63107   1.63552   1.65203
 Alpha virt. eigenvalues --    1.65821   1.66466   1.67135   1.68288   1.70501
 Alpha virt. eigenvalues --    1.71139   1.72207   1.72908   1.73775   1.74121
 Alpha virt. eigenvalues --    1.75450   1.75738   1.76209   1.76849   1.77753
 Alpha virt. eigenvalues --    1.79116   1.80155   1.80537   1.80701   1.81842
 Alpha virt. eigenvalues --    1.82584   1.83860   1.84309   1.84856   1.86676
 Alpha virt. eigenvalues --    1.87174   1.87688   1.88762   1.89021   1.91362
 Alpha virt. eigenvalues --    1.92996   1.93599   1.94781   1.95607   1.97852
 Alpha virt. eigenvalues --    1.98717   1.99859   2.02871   2.04454   2.05336
 Alpha virt. eigenvalues --    2.06634   2.07203   2.08953   2.09423   2.12490
 Alpha virt. eigenvalues --    2.13102   2.14633   2.15571   2.17128   2.17801
 Alpha virt. eigenvalues --    2.19069   2.19743   2.21174   2.23887   2.25396
 Alpha virt. eigenvalues --    2.28515   2.28736   2.29885   2.30499   2.31064
 Alpha virt. eigenvalues --    2.32238   2.33672   2.34934   2.35158   2.35561
 Alpha virt. eigenvalues --    2.37187   2.37687   2.37944   2.39762   2.40680
 Alpha virt. eigenvalues --    2.42141   2.44817   2.45066   2.45948   2.46565
 Alpha virt. eigenvalues --    2.49024   2.51019   2.51294   2.53724   2.55102
 Alpha virt. eigenvalues --    2.57804   2.58564   2.58764   2.61072   2.65346
 Alpha virt. eigenvalues --    2.67530   2.68092   2.70813   2.71184   2.72218
 Alpha virt. eigenvalues --    2.73105   2.73683   2.74223   2.75717   2.78957
 Alpha virt. eigenvalues --    2.80509   2.83145   2.84172   2.84885   2.87264
 Alpha virt. eigenvalues --    2.87818   2.89479   2.89889   2.90331   2.90987
 Alpha virt. eigenvalues --    2.92205   2.92721   2.93743   2.95391   2.96107
 Alpha virt. eigenvalues --    2.98729   2.99825   3.00717   3.01237   3.01383
 Alpha virt. eigenvalues --    3.02769   3.03288   3.03720   3.04505   3.05262
 Alpha virt. eigenvalues --    3.05981   3.06670   3.08353   3.08893   3.10424
 Alpha virt. eigenvalues --    3.10713   3.11852   3.15704   3.16528   3.17673
 Alpha virt. eigenvalues --    3.18315   3.19226   3.20844   3.21934   3.22064
 Alpha virt. eigenvalues --    3.22157   3.22703   3.24406   3.24733   3.25825
 Alpha virt. eigenvalues --    3.25884   3.26531   3.31259   3.32947   3.33067
 Alpha virt. eigenvalues --    3.33964   3.35906   3.36234   3.36674   3.37539
 Alpha virt. eigenvalues --    3.37725   3.39523   3.39705   3.40004   3.40148
 Alpha virt. eigenvalues --    3.40701   3.41809   3.45586   3.46432   3.46639
 Alpha virt. eigenvalues --    3.48066   3.49085   3.52434   3.53854   3.54674
 Alpha virt. eigenvalues --    3.55141   3.56320   3.58229   3.59147   3.61187
 Alpha virt. eigenvalues --    3.62692   3.64581   3.66077   3.68602   3.72152
 Alpha virt. eigenvalues --    3.76029   3.77298   3.79003   3.90950   3.92910
 Alpha virt. eigenvalues --    3.93759   3.93891   3.94143   3.95182   3.98255
 Alpha virt. eigenvalues --    3.99953   4.03653   4.12622   4.12800   4.13418
 Alpha virt. eigenvalues --    4.16426   4.45289   4.50215   4.51093   4.62982
 Alpha virt. eigenvalues --    4.78431   4.82193   4.93391   4.94493   4.97565
 Alpha virt. eigenvalues --    4.99031   5.00962   5.01527   5.06021   5.08013
 Alpha virt. eigenvalues --    5.09444   5.12662   5.17675   5.18249   5.24400
 Alpha virt. eigenvalues --    5.24473   5.29702   5.31075   5.57606   5.60652
 Alpha virt. eigenvalues --    5.61627   5.69421   5.70022   5.77554   5.78047
 Alpha virt. eigenvalues --    6.08772  23.32994  23.34302  23.52376  23.52540
 Alpha virt. eigenvalues --   23.63440  23.64744  23.80797  23.86371  23.87479
 Alpha virt. eigenvalues --   23.88470  23.92154  23.94512  23.97590  24.06710
 Alpha virt. eigenvalues --   24.07860  24.08521  24.14207  24.17825  24.20829
 Alpha virt. eigenvalues --   24.24226  24.24829  35.45386  49.95078  49.98268
 Alpha virt. eigenvalues --   49.98682  50.03110  50.04926  50.07778  50.08216
 Alpha virt. eigenvalues --   50.09596
  Beta  occ. eigenvalues --  -19.66948 -19.66710 -19.66706 -19.65846 -19.65234
  Beta  occ. eigenvalues --  -19.63409 -19.61637 -19.61159 -15.00808 -10.63894
  Beta  occ. eigenvalues --  -10.63479 -10.63226 -10.62954 -10.62694 -10.61548
  Beta  occ. eigenvalues --  -10.59965 -10.58099 -10.58026 -10.57335 -10.57250
  Beta  occ. eigenvalues --  -10.56870 -10.56491 -10.56413 -10.55503 -10.55344
  Beta  occ. eigenvalues --  -10.55071 -10.54827 -10.54752 -10.54661 -10.54212
  Beta  occ. eigenvalues --   -1.38625  -1.21917  -1.20439  -1.19910  -1.19122
  Beta  occ. eigenvalues --   -1.17596  -1.17350  -1.16947  -1.00440  -0.97298
  Beta  occ. eigenvalues --   -0.92463  -0.91335  -0.91035  -0.87482  -0.85710
  Beta  occ. eigenvalues --   -0.85202  -0.82707  -0.80998  -0.78623  -0.77873
  Beta  occ. eigenvalues --   -0.74886  -0.74353  -0.71224  -0.70657  -0.69566
  Beta  occ. eigenvalues --   -0.66727  -0.66699  -0.65160  -0.63599  -0.62838
  Beta  occ. eigenvalues --   -0.61563  -0.60858  -0.60447  -0.59527  -0.58788
  Beta  occ. eigenvalues --   -0.58605  -0.57857  -0.56498  -0.55498  -0.55330
  Beta  occ. eigenvalues --   -0.54534  -0.54021  -0.53094  -0.52708  -0.52104
  Beta  occ. eigenvalues --   -0.51244  -0.50747  -0.50461  -0.50186  -0.49737
  Beta  occ. eigenvalues --   -0.49267  -0.48502  -0.47445  -0.47276  -0.46526
  Beta  occ. eigenvalues --   -0.45821  -0.45465  -0.45059  -0.44466  -0.44170
  Beta  occ. eigenvalues --   -0.43410  -0.43220  -0.42586  -0.42445  -0.40392
  Beta  occ. eigenvalues --   -0.39821  -0.39544  -0.39063  -0.36371  -0.35739
  Beta  occ. eigenvalues --   -0.35274  -0.34935  -0.33937  -0.33726  -0.32142
  Beta  occ. eigenvalues --   -0.30722  -0.28297  -0.26793
  Beta virt. eigenvalues --   -0.08440  -0.04832  -0.03671  -0.02434   0.01064
  Beta virt. eigenvalues --    0.02300   0.03730   0.05409   0.06919   0.07478
  Beta virt. eigenvalues --    0.08849   0.09912   0.10136   0.10534   0.11297
  Beta virt. eigenvalues --    0.11757   0.11929   0.12176   0.12723   0.14346
  Beta virt. eigenvalues --    0.14517   0.15491   0.16060   0.16155   0.16297
  Beta virt. eigenvalues --    0.16377   0.17151   0.18088   0.18387   0.18962
  Beta virt. eigenvalues --    0.20190   0.20682   0.21489   0.22002   0.22562
  Beta virt. eigenvalues --    0.24552   0.26133   0.26199   0.26671   0.27118
  Beta virt. eigenvalues --    0.28167   0.29028   0.30178   0.30784   0.31426
  Beta virt. eigenvalues --    0.31724   0.32439   0.33074   0.33715   0.34187
  Beta virt. eigenvalues --    0.34619   0.35416   0.35955   0.36005   0.37243
  Beta virt. eigenvalues --    0.37995   0.38337   0.38924   0.39555   0.40018
  Beta virt. eigenvalues --    0.40139   0.40651   0.40934   0.41381   0.41897
  Beta virt. eigenvalues --    0.42475   0.42818   0.43235   0.43671   0.43848
  Beta virt. eigenvalues --    0.44480   0.45180   0.45429   0.45869   0.46947
  Beta virt. eigenvalues --    0.47022   0.47343   0.47978   0.48284   0.48688
  Beta virt. eigenvalues --    0.49156   0.49482   0.50016   0.50124   0.50482
  Beta virt. eigenvalues --    0.50892   0.51309   0.51536   0.52638   0.52776
  Beta virt. eigenvalues --    0.53521   0.53823   0.54708   0.55353   0.56437
  Beta virt. eigenvalues --    0.57015   0.57456   0.57846   0.57963   0.59083
  Beta virt. eigenvalues --    0.59524   0.59975   0.60299   0.61214   0.61744
  Beta virt. eigenvalues --    0.62080   0.62445   0.63161   0.63859   0.64199
  Beta virt. eigenvalues --    0.64773   0.64921   0.65438   0.65697   0.66286
  Beta virt. eigenvalues --    0.66520   0.66833   0.66911   0.67719   0.68193
  Beta virt. eigenvalues --    0.68403   0.68723   0.69280   0.69801   0.70008
  Beta virt. eigenvalues --    0.71185   0.71833   0.72219   0.73539   0.73565
  Beta virt. eigenvalues --    0.73986   0.75442   0.75580   0.76785   0.78428
  Beta virt. eigenvalues --    0.79465   0.79772   0.80096   0.80898   0.81468
  Beta virt. eigenvalues --    0.82429   0.82500   0.83320   0.83835   0.83945
  Beta virt. eigenvalues --    0.84298   0.85261   0.85634   0.85882   0.86738
  Beta virt. eigenvalues --    0.87188   0.87416   0.88818   0.89478   0.89655
  Beta virt. eigenvalues --    0.90034   0.90714   0.91364   0.91610   0.93358
  Beta virt. eigenvalues --    0.94102   0.94339   0.94792   0.95815   0.96326
  Beta virt. eigenvalues --    0.97028   0.97682   0.99459   1.00264   1.00401
  Beta virt. eigenvalues --    1.00907   1.01272   1.01429   1.03138   1.03469
  Beta virt. eigenvalues --    1.03866   1.04320   1.06038   1.06902   1.07622
  Beta virt. eigenvalues --    1.08921   1.10390   1.10721   1.11214   1.12463
  Beta virt. eigenvalues --    1.13432   1.13711   1.14349   1.15799   1.17298
  Beta virt. eigenvalues --    1.17511   1.18232   1.19858   1.19912   1.20252
  Beta virt. eigenvalues --    1.21443   1.22190   1.23404   1.24950   1.25265
  Beta virt. eigenvalues --    1.25699   1.27563   1.28435   1.28558   1.29338
  Beta virt. eigenvalues --    1.30145   1.31657   1.32167   1.33471   1.35930
  Beta virt. eigenvalues --    1.36648   1.39064   1.40978   1.41429   1.42460
  Beta virt. eigenvalues --    1.43632   1.45930   1.47588   1.48945   1.49524
  Beta virt. eigenvalues --    1.50564   1.51927   1.52385   1.53577   1.54646
  Beta virt. eigenvalues --    1.55261   1.55826   1.56611   1.56834   1.57517
  Beta virt. eigenvalues --    1.57591   1.58032   1.58936   1.59662   1.60670
  Beta virt. eigenvalues --    1.61286   1.61785   1.62424   1.63200   1.63561
  Beta virt. eigenvalues --    1.65293   1.65884   1.66526   1.67144   1.68337
  Beta virt. eigenvalues --    1.70577   1.71136   1.72213   1.72980   1.73822
  Beta virt. eigenvalues --    1.74158   1.75454   1.75852   1.76222   1.76912
[...]
   363. RY*(  11) C  29                  0.00002     2.40206   
   364. RY*(  12) C  29                  0.00000     2.77906   
   365. RY*(  13) C  29                  0.00001    20.08424   
   366. RY*(   1) C  30                  0.00264     1.38124   
   367. RY*(   2) C  30                  0.00099     1.38258   
   368. RY*(   3) C  30                  0.00051     0.81590   
   369. RY*(   4) C  30                  0.00035     1.49225   
   370. RY*(   5) C  30                  0.00027     1.38117   
   371. RY*(   6) C  30                  0.00006     3.46020   
   372. RY*(   7) C  30                  0.00004     3.03261   
   373. RY*(   8) C  30                  0.00002     3.05690   
   374. RY*(   9) C  30                  0.00002     1.74896   
   375. RY*(  10) C  30                  0.00001     4.42003   
   376. RY*(  11) C  30                  0.00001     2.23599   
   377. RY*(  12) C  30                  0.00000     2.78284   
   378. RY*(  13) C  30                  0.00000    18.81329   
   379. RY*(   1) C  31                  0.00237     1.43115   
   380. RY*(   2) C  31                  0.00132     1.31400   
   381. RY*(   3) C  31                  0.00071     1.00297   
   382. RY*(   4) C  31                  0.00039     1.22047   
   383. RY*(   5) C  31                  0.00026     1.55918   
   384. RY*(   6) C  31                  0.00011     3.16251   
   385. RY*(   7) C  31                  0.00006     2.69611   
   386. RY*(   8) C  31                  0.00004     3.85908   
   387. RY*(   9) C  31                  0.00001     2.38314   
   388. RY*(  10) C  31                  0.00002     1.87565   
   389. RY*(  11) C  31                  0.00002     2.23724   
   390. RY*(  12) C  31                  0.00000    21.01538   
   391. RY*(  13) C  31                  0.00000     2.74535   
   392. RY*(   1) C  32                  0.00244     1.43611   
   393. RY*(   2) C  32                  0.00109     1.44919   
   394. RY*(   3) C  32                  0.00045     0.73789   
   395. RY*(   4) C  32                  0.00035     1.14327   
   396. RY*(   5) C  32                  0.00024     1.58630   
   397. RY*(   6) C  32                  0.00010     3.34718   
   398. RY*(   7) C  32                  0.00005     4.80850   
   399. RY*(   8) C  32                  0.00003     3.57489   
   400. RY*(   9) C  32                  0.00002     2.08011   
   401. RY*(  10) C  32                  0.00002     2.26583   
   402. RY*(  11) C  32                  0.00002     2.08760   
   403. RY*(  12) C  32                  0.00000     2.78317   
   404. RY*(  13) C  32                  0.00000    18.61416   
   405. RY*(   1) H  33                  0.00075     0.47826   
   406. RY*(   2) H  33                  0.00012     2.29552   
   407. RY*(   1) C  34                  0.00305     1.52956   
   408. RY*(   2) C  34                  0.00195     1.33799   
   409. RY*(   3) C  34                  0.00172     1.30882   
   410. RY*(   4) C  34                  0.00087     2.61378   
   411. RY*(   5) C  34                  0.00077     1.21242   
   412. RY*(   6) C  34                  0.00029     1.71439   
   413. RY*(   7) C  34                  0.00025     1.71372   
   414. RY*(   8) C  34                  0.00008     2.98918   
   415. RY*(   9) C  34                  0.00005     2.44952   
   416. RY*(  10) C  34                  0.00002     2.68363   
   417. RY*(  11) C  34                  0.00002     2.38314   
   418. RY*(  12) C  34                  0.00001     2.75997   
   419. RY*(  13) C  34                  0.00001    21.81656   
   420. RY*(   1) H  35                  0.00115     0.49468   
   421. RY*(   2) H  35                  0.00015     2.28894   
   422. RY*(   1) C  36                  0.00322     1.34424   
   423. RY*(   2) C  36                  0.00166     1.60896   
   424. RY*(   3) C  36                  0.00136     1.51866   
   425. RY*(   4) C  36                  0.00077     2.33532   
   426. RY*(   5) C  36                  0.00042     2.02441   
   427. RY*(   6) C  36                  0.00035     1.69431   
   428. RY*(   7) C  36                  0.00025     0.63647   
   429. RY*(   8) C  36                  0.00012     3.86136   
   430. RY*(   9) C  36                  0.00003     5.30937   
   431. RY*(  10) C  36                  0.00004     2.24830   
   432. RY*(  11) C  36                  0.00001    17.41744   
   433. RY*(  12) C  36                  0.00001     2.20834   
   434. RY*(  13) C  36                  0.00000     3.45176   
   435. RY*(   1) H  37                  0.00106     0.42367   
   436. RY*(   2) H  37                  0.00010     2.27572   
   437. RY*(   1) O  38                  0.00103     0.98428   
   438. RY*(   2) O  38                  0.00064     1.42805   
   439. RY*(   3) O  38                  0.00011     1.85035   
   440. RY*(   4) O  38                  0.00006     1.38192   
   441. RY*(   5) O  38                  0.00000    49.72208   
   442. RY*(   6) O  38                  0.00000     5.00132   
   443. RY*(   7) O  38                  0.00001     5.10280   
   444. RY*(   8) O  38                  0.00000     5.07400   
   445. RY*(   9) O  38                  0.00001     3.29751   
   446. RY*(  10) O  38                  0.00000     2.82041   
   447. RY*(  11) O  38                  0.00000     2.96005   
   448. RY*(  12) O  38                  0.00000     3.04247   
   449. RY*(  13) O  38                  0.00000     3.11656   
   450. RY*(   1) H  39                  0.00038     1.19236   
   451. RY*(   2) H  39                  0.00019     1.47446   
   452. RY*(   1) O  40                  0.00186     1.13920   
   453. RY*(   2) O  40                  0.00117     1.20041   
   454. RY*(   3) O  40                  0.00021     1.77409   
   455. RY*(   4) O  40                  0.00010     2.20283   
   456. RY*(   5) O  40                  0.00006     3.06415   
   457. RY*(   6) O  40                  0.00003     2.97825   
   458. RY*(   7) O  40                  0.00000     5.23441   
   459. RY*(   8) O  40                  0.00001     5.14686   
   460. RY*(   9) O  40                  0.00000    49.77083   
   461. RY*(  10) O  40                  0.00000     3.19057   
   462. RY*(  11) O  40                  0.00000     3.06163   
   463. RY*(  12) O  40                  0.00000     3.14383   
   464. RY*(  13) O  40                  0.00000     5.06703   
   465. RY*(   1) C  41                  0.00119     1.41182   
   466. RY*(   2) C  41                  0.00111     1.41764   
   467. RY*(   3) C  41                  0.00071     0.94489   
   468. RY*(   4) C  41                  0.00025     1.04309   
   469. RY*(   5) C  41                  0.00012     1.17483   
   470. RY*(   6) C  41                  0.00004     2.22122   
   471. RY*(   7) C  41                  0.00000     1.42625   
   472. RY*(   8) C  41                  0.00001     2.81338   
   473. RY*(   9) C  41                  0.00000     2.06828   
   474. RY*(  10) C  41                  0.00000    23.21808   
   475. RY*(  11) C  41                  0.00000     1.72357   
   476. RY*(  12) C  41                  0.00000     2.70263   
   477. RY*(  13) C  41                  0.00000     1.73663   
   478. RY*(   1) H  42                  0.00083     0.44350   
   479. RY*(   2) H  42                  0.00006     2.13952   
   480. RY*(   1) H  43                  0.00042     0.43233   
   481. RY*(   2) H  43                  0.00005     2.05148   
   482. RY*(   1) H  44                  0.00084     0.52367   
   483. RY*(   2) H  44                  0.00007     2.07606   
   484. RY*(   1) C  45                  0.00262     1.23412   
   485. RY*(   2) C  45                  0.00094     1.38195   
   486. RY*(   3) C  45                  0.00059     0.72308   
   487. RY*(   4) C  45                  0.00037     0.84715   
   488. RY*(   5) C  45                  0.00009     3.00433   
   489. RY*(   6) C  45                  0.00010     2.20377   
   490. RY*(   7) C  45                  0.00005     2.28243   
   491. RY*(   8) C  45                  0.00005     2.21378   
   492. RY*(   9) C  45                  0.00002     2.13029   
   493. RY*(  10) C  45                  0.00003     3.33618   
   494. RY*(  11) C  45                  0.00001     1.65849   
   495. RY*(  12) C  45                  0.00000    22.38681   
   496. RY*(  13) C  45                  0.00000     2.88712   
   497. RY*(   1) H  46                  0.00085     0.86102   
   498. RY*(   2) H  46                  0.00007     1.82826   
   499. RY*(   1) H  47                  0.00086     0.86551   
   500. RY*(   2) H  47                  0.00007     1.82183   
   501. RY*(   1) O  48                  0.00181     0.99483   
   502. RY*(   2) O  48                  0.00150     1.07420   
   503. RY*(   3) O  48                  0.00084     1.79614   
   504. RY*(   4) O  48                  0.00005     1.63169   
   505. RY*(   5) O  48                  0.00000    49.83955   
   506. RY*(   6) O  48                  0.00001     5.01732   
   507. RY*(   7) O  48                  0.00000     4.87252   
   508. RY*(   8) O  48                  0.00001     4.90562   
   509. RY*(   9) O  48                  0.00000     2.95256   
   510. RY*(  10) O  48                  0.00001     3.07499   
   511. RY*(  11) O  48                  0.00001     3.13744   
   512. RY*(  12) O  48                  0.00001     3.05363   
   513. RY*(  13) O  48                  0.00000     3.06156   
   514. RY*(   1) O  49                  0.00181     0.98549   
   515. RY*(   2) O  49                  0.00149     1.06584   
   516. RY*(   3) O  49                  0.00081     1.88073   
   517. RY*(   4) O  49                  0.00003     1.73082   
   518. RY*(   5) O  49                  0.00000    49.81704   
   519. RY*(   6) O  49                  0.00000     4.95299   
   520. RY*(   7) O  49                  0.00001     5.03055   
   521. RY*(   8) O  49                  0.00001     4.96169   
   522. RY*(   9) O  49                  0.00001     3.03555   
   523. RY*(  10) O  49                  0.00001     3.03854   
   524. RY*(  11) O  49                  0.00000     3.00518   
   525. RY*(  12) O  49                  0.00000     2.86022   
   526. RY*(  13) O  49                  0.00000     3.02858   
   527. RY*(   1) N  50                  0.00795     1.01237   
   528. RY*(   2) N  50                  0.00498     1.35479   
   529. RY*(   3) N  50                  0.00354     2.17725   
   530. RY*(   4) N  50                  0.00215     1.30108   
   531. RY*(   5) N  50                  0.00170     2.08780   
   532. RY*(   6) N  50                  0.00128     2.91496   
   533. RY*(   7) N  50                  0.00029     1.52841   
   534. RY*(   8) N  50                  0.00009     2.45466   
   535. RY*(   9) N  50                  0.00003     4.01648   
   536. RY*(  10) N  50                  0.00001     4.01069   
   537. RY*(  11) N  50                  0.00000    33.33815   
   538. RY*(  12) N  50                  0.00001     3.86472   
   539. RY*(  13) N  50                  0.00001     3.96824   
   540. BD*(   1) C   1 - H   2          0.00938     0.51233   
   541. BD*(   1) C   1 - C   3          0.00725     0.70104   
   542. BD*(   2) C   1 - C   3          0.04168     0.08282   
   543. BD*(   1) C   1 - C   7          0.01321     0.53874   
   544. BD*(   1) C   3 - H   4          0.00856     0.50424   
   545. BD*(   1) C   3 - C   5          0.02721     0.51294   
   546. BD*(   1) C   5 - O   6          0.00620     0.67829   
   547. BD*(   2) C   5 - O   6          0.06636     0.06822   
   548. BD*(   1) C   5 - C  45          0.03026     0.43295   
   549. BD*(   1) C   7 - C   8          0.01128     0.61609   
   550. BD*(   2) C   7 - C   8          0.15685     0.05394  558(v),555(v),542(v),181(g)
                                                    168(g),171(g),207(v),94(r)
   551. BD*(   1) C   7 - C   9          0.01666     0.57437   
   552. BD*(   1) C   8 - C  10          0.00689     0.62137   
   553. BD*(   1) C   8 - H  11          0.00640     0.51272   
   554. BD*(   1) C   9 - C  12          0.01781     0.58133   
   555. BD*(   2) C   9 - C  12          0.21894     0.01602  558(v),550(v),94(r),564(v)
                                                    223(g),599(v),600(v),556(g)
                                                    222(g),221(g),194(g),233(r)
                                                    234(r)
   556. BD*(   1) C   9 - N  50          0.05209     0.28757   
   557. BD*(   1) C  10 - C  14          0.01302     0.60243   
   558. BD*(   2) C  10 - C  14          0.16358     0.04507  550(v),555(v),240(g),209(g)
                                                    207(g)
   559. BD*(   1) C  10 - H  15          0.00626     0.50249   
   560. BD*(   1) C  12 - C  14          0.02222     0.57932   
   561. BD*(   1) C  12 - O  18          0.01157     0.43675   
   562. BD*(   1) C  14 - O  16          0.00996     0.42253   
   563. BD*(   1) O  16 - H  17          0.00335     0.45688   
   564. BD*(   1) O  18 - C  19          0.00454     0.34548   
   565. BD*(   1) C  19 - H  20          0.00741     0.46973   
   566. BD*(   1) C  19 - H  21          0.00408     0.48288   
   567. BD*(   1) C  19 - H  22          0.00730     0.47053   
   568. BD*(   1) C  23 - H  24          0.00918     0.51881   
   569. BD*(   1) C  23 - C  25          0.00722     0.71072   
   570. BD*(   2) C  23 - C  25          0.05413     0.08548   
   571. BD*(   1) C  23 - C  29          0.01310     0.55649   
   572. BD*(   1) C  25 - H  26          0.00812     0.51538   
   573. BD*(   1) C  25 - C  27          0.02615     0.52637   
   574. BD*(   1) C  27 - O  28          0.00628     0.67928   
   575. BD*(   2) C  27 - O  28          0.07673     0.06887   
   576. BD*(   1) C  27 - C  45          0.03100     0.43127   
   577. BD*(   1) C  29 - C  30          0.01164     0.63099   
   578. BD*(   2) C  29 - C  30          0.19341     0.06198  583(v),586(v),570(v),368(g)
                                                    355(g),394(v),356(g),299(v)
   579. BD*(   1) C  29 - C  31          0.01323     0.62368   
   580. BD*(   1) C  30 - C  32          0.00709     0.63901   
   581. BD*(   1) C  30 - H  33          0.00670     0.52419   
   582. BD*(   1) C  31 - C  34          0.01273     0.64619   
   583. BD*(   2) C  31 - C  34          0.15855     0.06529  578(v),586(v),383(g),592(v)
                                                    575(r),411(g),412(g)
   584. BD*(   1) C  31 - H  35          0.00641     0.51855   
   585. BD*(   1) C  32 - C  36          0.01307     0.62021   
   586. BD*(   2) C  32 - C  36          0.18565     0.05282  578(v),583(v),428(g),394(g)
                                                    396(g),437(v)
   587. BD*(   1) C  32 - H  37          0.00661     0.50912   
   588. BD*(   1) C  34 - C  36          0.02294     0.59014   
   589. BD*(   1) C  34 - O  40          0.01351     0.44162   
   590. BD*(   1) C  36 - O  38          0.01050     0.43019   
   591. BD*(   1) O  38 - H  39          0.00352     0.46600   
   592. BD*(   1) O  40 - C  41          0.00441     0.36613   
   593. BD*(   1) C  41 - H  42          0.00809     0.46792   
   594. BD*(   1) C  41 - H  43          0.00441     0.48481   
   595. BD*(   1) C  41 - H  44          0.00847     0.47668   
   596. BD*(   1) C  45 - H  46          0.00440     0.47877   
   597. BD*(   1) C  45 - H  47          0.00443     0.47711   
   598. BD (   1) O  48 - O  49          0.44499    -0.27725  534(v)
   599. BD*(   1) O  48 - N  50          0.02899     0.52292   
   600. BD*(   1) O  49 - N  50          0.03518     0.50779   
       -------------------------------
              Total Lewis  104.77208  ( 97.0787%)
        Valence non-Lewis    2.93428  (  2.7188%)
        Rydberg non-Lewis    0.21849  (  0.2024%)
       -------------------------------
            Total unit  1  107.92486  (100.0000%)
           Charge unit  1    0.07514
 
 Molecular unit  2  (H)
    94. LP*(   1) H  13                  0.07451    -0.03298   
   233. RY*(   1) H  13                  0.00058     0.42597   
   234. RY*(   2) H  13                  0.00005     2.17500   
       -------------------------------
              Total Lewis    0.00000  (  0.0000%)
        Valence non-Lewis    0.07451  ( 99.1685%)
        Rydberg non-Lewis    0.00062  (  0.8315%)
       -------------------------------
            Total unit  2    0.07514  (100.0000%)
           Charge unit  2    0.42486
 1\1\GINC-N02\SP\UM062X\6-311G(d)\C21H20N1O8(2)\UNKNOWN\02-Dec-2024\0\\
 # pop=nbo M062X/6-311g(d) scrf=(smd,solvent=generic,read) temperature=
 298.15 Geom=Check Guess=Read\\Reagente 1\\0,2\C,0,2.2253347478,1.30140
 82344,0.0534496474\H,0,1.8743308119,2.1093384308,-0.5823857735\C,0,1.5
 002884446,0.9385008677,1.1216714371\H,0,1.8206302303,0.1636601069,1.81
 29422199\C,0,0.2135254633,1.5602305482,1.4949124875\O,0,-0.37688767,1.
 1824320464,2.4845813681\C,0,3.5169982967,0.7473788537,-0.3394170628\C,
 0,4.3942693977,1.5327711145,-1.0804223736\C,0,4.0219007648,-0.49357167
 44,0.1196251248\C,0,5.6823369876,1.1101586331,-1.3911035981\H,0,4.0624
 475484,2.5095356424,-1.4138882793\C,0,5.2747590977,-0.9852949314,-0.26
 47047034\H,0,4.3670557924,0.066057653,1.8310942909\C,0,6.1315414097,-0
 .1423781363,-0.9838576253\H,0,6.3413304146,1.7513611857,-1.9680161459\
 O,0,7.3526887343,-0.6322514233,-1.271122379\H,0,7.8541622022,0.0073950
 214,-1.793959766\O,0,5.6378374253,-2.2467723189,0.0559786431\C,0,6.472
 7171559,-2.325658005,1.2215384852\H,0,5.9426685683,-1.9276042404,2.089
 5841078\H,0,6.6837163525,-3.3820728627,1.3708464913\H,0,7.4040447684,-
 1.7799848547,1.0605558957\C,0,-2.8779722605,1.1198884001,0.3287544644\
 H,0,-2.5257309647,1.4332388466,1.3085106333\C,0,-2.149593111,1.4286745
 562,-0.7561559037\H,0,-2.4485299816,1.1241855182,-1.7546526182\C,0,-0.
 8869296397,2.1819302126,-0.716124995\O,0,-0.2725551937,2.4107143916,-1
 .7386042741\C,0,-4.1306340705,0.3674382148,0.3474507876\C,0,-4.7353399
 43,0.0973512613,1.5773813474\C,0,-4.7608404365,-0.0941919435,-0.819519
 0096\C,0,-5.9239411703,-0.6178393603,1.649277553\H,0,-4.2653254919,0.4
 440533578,2.4915361298\C,0,-5.9408625157,-0.8079909727,-0.7609386\H,0,
 -4.3345784542,0.085941285,-1.8003427632\C,0,-6.5342757838,-1.077370227
 7,0.4875546154\H,0,-6.3791487549,-0.8295072823,2.6121370739\O,0,-7.682
 6907557,-1.7905226936,0.4846712941\H,0,-7.990657007,-1.9203324219,1.39
 09653107\O,0,-6.5098284331,-1.2803136093,-1.9077787643\C,0,-7.68651187
 27,-0.5733253669,-2.2981428853\H,0,-7.4551766554,0.4808120581,-2.47777
 36801\H,0,-8.0303005948,-1.0320535238,-3.2236257601\H,0,-8.4664750716,
 -0.6561428713,-1.5389605723\C,0,-0.353779077,2.6800921116,0.6280785244
 \H,0,-1.1474413095,3.1605020247,1.1997628001\H,0,0.4183314973,3.418838
 1027,0.4126730836\O,0,3.2913282667,-2.0825572869,1.6586159777\O,0,2.18
 98020164,-1.8443519481,-0.170948389\N,0,3.0827078238,-1.5563247237,0.5
 902131274\\Version=ES64L-G16RevA.03\State=2-A\HF=-1468.3357803\S2=0.76
 7772\S2-1=0.\S2A=0.750153\RMSD=7.447e-09\Dipole=0.9751059,2.1421184,0.
 0748479\Quadrupole=51.5089365,-27.5833582,-23.9255783,13.0631521,-21.1
 355621,-6.0769247\PG=C01 [X(C21H20N1O8)]\\@


 THE BEST WAY TO CONVINCE A FOOL THAT HE IS WRONG 
 IS TO LET HIM HAVE HIS OWN WAY.

                                         JOSH BILLINGS
 Job cpu time:       0 days  0 hours  1 minutes 25.4 seconds.
 Elapsed time:       0 days  0 hours  1 minutes 26.1 seconds.
 File lengths (MBytes):  RWF=    611 Int=      0 D2E=      0 Chk=     49 Scr=      1
 Normal termination of Gaussian 16 at Mon Dec  2 12:30:16 2024.
