 Entering Gaussian System, Link 0=g16
 Initial command:
 /sw/cluster/pub/apps//g16/l1.exe "/data/natrosa/25868/Gau-317479.inp" -scrdir="/data/natrosa/25868/"
 Entering Link 1 = /sw/cluster/pub/apps//g16/l1.exe PID=    317480.
  
 Copyright (c) 1988,1990,1992,1993,1995,1998,2003,2009,2016,
            Gaussian, Inc.  All Rights Reserved.
  
 This is part of the Gaussian(R) 16 program.  It is based on
 the Gaussian(R) 09 system (copyright 2009, Gaussian, Inc.),
 the Gaussian(R) 03 system (copyright 2003, Gaussian, Inc.),
 the Gaussian(R) 98 system (copyright 1998, Gaussian, Inc.),
 the Gaussian(R) 94 system (copyright 1995, Gaussian, Inc.),
 the Gaussian 92(TM) system (copyright 1992, Gaussian, Inc.),
 the Gaussian 90(TM) system (copyright 1990, Gaussian, Inc.),
 the Gaussian 88(TM) system (copyright 1988, Gaussian, Inc.),
 the Gaussian 86(TM) system (copyright 1986, Carnegie Mellon
 University), and the Gaussian 82(TM) system (copyright 1983,
 Carnegie Mellon University). Gaussian is a federally registered
 trademark of Gaussian, Inc.
  
 This software contains proprietary and confidential information,
 including trade secrets, belonging to Gaussian, Inc.
  
 This software is provided under written license and may be
 used, copied, transmitted, or stored only in accord with that
 written license.
  
 The following legend is applicable only to US Government
 contracts under FAR:
  
                    RESTRICTED RIGHTS LEGEND
  
 Use, reproduction and disclosure by the US Government is
 subject to restrictions as set forth in subparagraphs (a)
 and (c) of the Commercial Computer Software - Restricted
 Rights clause in FAR 52.227-19.
  
 Gaussian, Inc.
 340 Quinnipiac St., Bldg. 40, Wallingford CT 06492
  
  
 ---------------------------------------------------------------
 Warning -- This program may not be used in any manner that
 competes with the business of Gaussian, Inc. or will provide
 assistance to any competitor of Gaussian, Inc.  The licensee
 of this program is prohibited from giving any competitor of
 Gaussian, Inc. access to this program.  By using this program,
 the user acknowledges that Gaussian, Inc. is engaged in the
 business of creating and licensing software in the field of
 computational chemistry and represents and warrants to the
 licensee that it is not a competitor of Gaussian, Inc. and that
 it will not use this program in any manner prohibited above.
 ---------------------------------------------------------------
  

 Cite this work as:
 Gaussian 16, Revision A.03,
 M. J. Frisch, G. W. Trucks, H. B. Schlegel, G. E. Scuseria, 
 M. A. Robb, J. R. Cheeseman, G. Scalmani, V. Barone, 
 G. A. Petersson, H. Nakatsuji, X. Li, M. Caricato, A. V. Marenich, 
 J. Bloino, B. G. Janesko, R. Gomperts, B. Mennucci, H. P. Hratchian, 
 J. V. Ortiz, A. F. Izmaylov, J. L. Sonnenberg, D. Williams-Young, 
 F. Ding, F. Lipparini, F. Egidi, J. Goings, B. Peng, A. Petrone, 
 T. Henderson, D. Ranasinghe, V. G. Zakrzewski, J. Gao, N. Rega, 
 G. Zheng, W. Liang, M. Hada, M. Ehara, K. Toyota, R. Fukuda, 
 J. Hasegawa, M. Ishida, T. Nakajima, Y. Honda, O. Kitao, H. Nakai, 
 T. Vreven, K. Throssell, J. A. Montgomery, Jr., J. E. Peralta, 
 F. Ogliaro, M. J. Bearpark, J. J. Heyd, E. N. Brothers, K. N. Kudin, 
 V. N. Staroverov, T. A. Keith, R. Kobayashi, J. Normand, 
 K. Raghavachari, A. P. Rendell, J. C. Burant, S. S. Iyengar, 
 J. Tomasi, M. Cossi, J. M. Millam, M. Klene, C. Adamo, R. Cammi, 
 J. W. Ochterski, R. L. Martin, K. Morokuma, O. Farkas, 
 J. B. Foresman, and D. J. Fox, Gaussian, Inc., Wallingford CT, 2016.
 
 ******************************************
 Gaussian 16:  ES64L-G16RevA.03 25-Dec-2016
                 2-Dec-2024 
 ******************************************
 %oldchk=/home/natrosa/MOSSRI/REACAO-1/M06-2X-6-311G-D/CURCUMIN-OPT-FREQ-Reag-1-M
 06-2X-6-311G-D-298-cont.chk
 %chk=CURCUMIN-Reag-1-M062X-6-311G-D-298-NBO.chk
 Copying data from "/home/natrosa/MOSSRI/REACAO-1/M06-2X-6-311G-D/CURCUMIN-OPT-FREQ-Reag-1-M06-2X-6-311G-D-298-cont.chk" to current chk file "CURCUMIN-Reag-1-M062X-6-311G-D-298-NBO.chk"
 IOpt=  2 FromEx=T IUOpen= 4 IOptOp= 5 NList=   0 IFRang= 0 IUIn= 4 IUOut= 2.
 ----------------------------------------------------------------------
 # pop=nbo M062X/6-311g(d) scrf=(smd,solvent=generic,read) temperature=
 298.15 Geom=Check Guess=Read
 ----------------------------------------------------------------------
 1/29=2,38=1,40=2,112=298150,172=1/1;
 2/12=2,40=1/2;
 3/5=4,6=6,7=1,11=2,14=-4,25=1,30=1,70=32203,72=-2,74=-55,116=-2/1,2,3;
 4/5=1/1;
 5/5=2,38=6/2;
 6/7=2,8=2,9=2,10=2,28=1,40=1/1,7;
 99/5=1,9=1/99;
 ----------
 Reagente 1
 ----------
 Structure from the checkpoint file:  "CURCUMIN-Reag-1-M062X-6-311G-D-298-NBO.chk"
 Charge =  0 Multiplicity = 2
 Redundant internal coordinates found in file.  (old form).
 C,0,2.1101179359,1.1308652174,0.92704883
 H,0,1.7117982516,2.1305732392,0.7748522286
 C,0,1.3817934093,0.2341708894,1.6314161877
 H,0,1.7229377153,-0.7821454584,1.7990417969
 C,0,0.0751370748,0.5306110273,2.2330658671
 O,0,-0.520930232,-0.3233582128,2.8607126384
 C,0,3.398266202,0.9082568769,0.334421402
 C,0,4.0612126146,1.9366356862,-0.3024078883
 C,0,4.0551227286,-0.4360805272,0.3975976825
 C,0,5.361713981,1.7984315607,-0.7908174117
 H,0,3.5712667729,2.9005862652,-0.3883210106
 C,0,5.4669941188,-0.4960151101,-0.0745032592
 H,0,3.9552523334,-0.9179285044,1.3729743085
 C,0,6.0800776147,0.5934218046,-0.6413652167
 H,0,5.8525491297,2.6441011525,-1.2614033407
 O,0,7.3789777599,0.4929679915,-1.029224264
 H,0,7.6695175472,1.3282103983,-1.4165507741
 O,0,5.9796675538,-1.7236416719,0.0909721739
 C,0,6.9134387448,-2.2368458428,-0.869561449
 H,0,7.9141111995,-1.8523674191,-0.6861391392
 H,0,6.895105417,-3.3163904475,-0.7381555736
 H,0,6.5913033259,-1.9798166381,-1.8796587722
 C,0,-3.0056416199,0.7041517536,0.9428006474
 H,0,-2.6737091844,0.4698090602,1.9514228873
 C,0,-2.2708814889,1.5414833,0.1936497232
 H,0,-2.5474543963,1.794812883,-0.8253145309
 C,0,-1.0314712923,2.1901071727,0.6505618286
 O,0,-0.4170290731,2.9302565469,-0.0917432105
 C,0,-4.240265405,0.033292954,0.5391464337
 C,0,-4.8579487387,-0.8379957726,1.4396875528
 C,0,-4.8427936523,0.2307286214,-0.7139786998
 C,0,-6.0314142926,-1.5016365543,1.104758728
 H,0,-4.4100028432,-1.0055368537,2.4133614585
 C,0,-6.0070973692,-0.4251904646,-1.0595748424
 H,0,-4.4083475928,0.8956113747,-1.4523927569
 C,0,-6.6128579765,-1.3059353,-0.1429391855
 H,0,-6.4970660496,-2.1833391175,1.810250631
 O,0,-7.7436499166,-1.9305125068,-0.5416436636
 H,0,-8.0633951111,-2.5103255046,0.1616606288
 O,0,-6.548915149,-0.2453283219,-2.299113379
 C,0,-7.7337600852,0.5500544061,-2.2966552049
 H,0,-7.5196652893,1.5505460527,-1.9091801799
 H,0,-8.0588719082,0.624139182,-3.3329654058
 H,0,-8.5206925001,0.0838680688,-1.700806028
 C,0,-0.5259271076,1.9262969137,2.0681376083
 H,0,-1.3412742145,2.0119106641,2.7859153884
 H,0,0.2186604429,2.6902184366,2.2923957494
 O,0,2.5746505159,-2.2500003798,-0.012422687
 O,0,3.4059781329,-1.2600650812,-1.7280267825
 N,0,3.2683669661,-1.4136988102,-0.5384877251
 Recover connectivity data from disk.
                           ----------------------------
                           !    Current Parameters    !
                           ! (Angstroms and Degrees)  !
 --------------------------                            --------------------------
 ! Name  Definition              Value                                          !
 --------------------------------------------------------------------------------
 ! R1    R(1,2)                  1.0868                                         !
 ! R2    R(1,3)                  1.353                                          !
 ! R3    R(1,7)                  1.4353                                         !
 ! R4    R(3,4)                  1.0851                                         !
 ! R5    R(3,5)                  1.4687                                         !
 ! R6    R(5,6)                  1.2159                                         !
 ! R7    R(5,45)                 1.5285                                         !
 ! R8    R(7,8)                  1.3794                                         !
 ! R9    R(7,9)                  1.4976                                         !
 ! R10   R(8,10)                 1.396                                          !
 ! R11   R(8,11)                 1.0847                                         !
 ! R12   R(9,12)                 1.4899                                         !
 ! R13   R(9,13)                 1.0925                                         !
 ! R14   R(9,50)                 1.5656                                         !
 ! R15   R(10,14)                1.4108                                         !
 ! R16   R(10,15)                1.0851                                         !
 ! R17   R(12,14)                1.3726                                         !
 ! R18   R(12,18)                1.3406                                         !
 ! R19   R(14,16)                1.3593                                         !
 ! R20   R(16,17)                0.9654                                         !
 ! R21   R(18,19)                1.4345                                         !
 ! R22   R(19,20)                1.0876                                         !
 ! R23   R(19,21)                1.0877                                         !
 ! R24   R(19,22)                1.0909                                         !
 ! R25   R(23,24)                1.0874                                         !
 ! R26   R(23,25)                1.3425                                         !
 ! R27   R(23,29)                1.4619                                         !
 ! R28   R(25,26)                1.0858                                         !
 ! R29   R(25,27)                1.4716                                         !
 ! R30   R(27,28)                1.2151                                         !
 ! R31   R(27,45)                1.528                                          !
 ! R32   R(29,30)                1.397                                          !
 ! R33   R(29,31)                1.4044                                         !
 ! R34   R(30,32)                1.3891                                         !
 ! R35   R(30,33)                1.0848                                         !
 ! R36   R(31,34)                1.3803                                         !
 ! R37   R(31,35)                1.0845                                         !
 ! R38   R(32,36)                1.3904                                         !
 ! R39   R(32,37)                1.0859                                         !
 ! R40   R(34,36)                1.4081                                         !
 ! R41   R(34,40)                1.3647                                         !
 ! R42   R(36,38)                1.3519                                         !
 ! R43   R(38,39)                0.9659                                         !
 ! R44   R(40,41)                1.4271                                         !
 ! R45   R(41,42)                1.0941                                         !
 ! R46   R(41,43)                1.0886                                         !
 ! R47   R(41,44)                1.0916                                         !
 ! R48   R(45,46)                1.0896                                         !
 ! R49   R(45,47)                1.0901                                         !
 ! R50   R(48,50)                1.2072                                         !
 ! R51   R(49,50)                1.2073                                         !
 ! A1    A(2,1,3)              119.027                                          !
 ! A2    A(2,1,7)              114.4411                                         !
 ! A3    A(3,1,7)              126.5319                                         !
 ! A4    A(1,3,4)              122.1358                                         !
 ! A5    A(1,3,5)              123.944                                          !
 ! A6    A(4,3,5)              113.9202                                         !
 ! A7    A(3,5,6)              120.3852                                         !
 ! A8    A(3,5,45)             119.3356                                         !
 ! A9    A(6,5,45)             120.2786                                         !
 ! A10   A(1,7,8)              120.4205                                         !
 ! A11   A(1,7,9)              121.028                                          !
 ! A12   A(8,7,9)              118.5508                                         !
 ! A13   A(7,8,10)             122.3739                                         !
 ! A14   A(7,8,11)             118.8176                                         !
 ! A15   A(10,8,11)            118.7527                                         !
 ! A16   A(7,9,12)             116.0009                                         !
 ! A17   A(7,9,13)             113.1724                                         !
 ! A18   A(7,9,50)             108.3557                                         !
 ! A19   A(12,9,13)            110.5965                                         !
 ! A20   A(12,9,50)            105.1671                                         !
 ! A21   A(13,9,50)            102.2672                                         !
 ! A22   A(8,10,14)            121.4548                                         !
 ! A23   A(8,10,15)            119.7315                                         !
 ! A24   A(14,10,15)           118.7673                                         !
 ! A25   A(9,12,14)            121.479                                          !
 ! A26   A(9,12,18)            111.1067                                         !
 ! A27   A(14,12,18)           127.3701                                         !
 ! A28   A(10,14,12)           119.6188                                         !
 ! A29   A(10,14,16)           121.2955                                         !
 ! A30   A(12,14,16)           119.0776                                         !
 ! A31   A(14,16,17)           109.7619                                         !
 ! A32   A(12,18,19)           119.5949                                         !
 ! A33   A(18,19,20)           111.0702                                         !
 ! A34   A(18,19,21)           105.2605                                         !
 ! A35   A(18,19,22)           110.0882                                         !
 ! A36   A(20,19,21)           110.2436                                         !
 ! A37   A(20,19,22)           110.1547                                         !
 ! A38   A(21,19,22)           109.9214                                         !
 ! A39   A(24,23,25)           119.01                                           !
 ! A40   A(24,23,29)           114.5197                                         !
 ! A41   A(25,23,29)           126.4665                                         !
 ! A42   A(23,25,26)           121.992                                          !
 ! A43   A(23,25,27)           124.2366                                         !
 ! A44   A(26,25,27)           113.7701                                         !
 ! A45   A(25,27,28)           120.3117                                         !
 ! A46   A(25,27,45)           119.3807                                         !
 ! A47   A(28,27,45)           120.3075                                         !
 ! A48   A(23,29,30)           118.7903                                         !
 ! A49   A(23,29,31)           122.9682                                         !
 ! A50   A(30,29,31)           118.2402                                         !
 ! A51   A(29,30,32)           121.0672                                         !
 ! A52   A(29,30,33)           119.4944                                         !
 ! A53   A(32,30,33)           119.4365                                         !
 ! A54   A(29,31,34)           121.2309                                         !
 ! A55   A(29,31,35)           121.4582                                         !
 ! A56   A(34,31,35)           117.3081                                         !
 ! A57   A(30,32,36)           120.1588                                         !
 ! A58   A(30,32,37)           120.3646                                         !
 ! A59   A(36,32,37)           119.4743                                         !
 ! A60   A(31,34,36)           119.8081                                         !
 ! A61   A(31,34,40)           119.9788                                         !
 ! A62   A(36,34,40)           120.1918                                         !
 ! A63   A(32,36,34)           119.4914                                         !
 ! A64   A(32,36,38)           123.3265                                         !
 ! A65   A(34,36,38)           117.1804                                         !
 ! A66   A(36,38,39)           109.8435                                         !
 ! A67   A(34,40,41)           113.6741                                         !
 ! A68   A(40,41,42)           110.3545                                         !
 ! A69   A(40,41,43)           106.5136                                         !
 ! A70   A(40,41,44)           111.189                                          !
 ! A71   A(42,41,43)           109.4722                                         !
 ! A72   A(42,41,44)           109.7728                                         !
 ! A73   A(43,41,44)           109.4741                                         !
 ! A74   A(5,45,27)            112.8212                                         !
 ! A75   A(5,45,46)            107.1519                                         !
 ! A76   A(5,45,47)            110.4316                                         !
 ! A77   A(27,45,46)           110.4871                                         !
 ! A78   A(27,45,47)           107.2093                                         !
 ! A79   A(46,45,47)           108.6951                                         !
 ! A80   A(9,50,48)            117.4396                                         !
 ! A81   A(9,50,49)            116.897                                          !
 ! A82   A(48,50,49)           125.6628                                         !
 ! D1    D(2,1,3,4)            178.9226                                         !
 ! D2    D(2,1,3,5)             -0.9954                                         !
 ! D3    D(7,1,3,4)             -1.1147                                         !
 ! D4    D(7,1,3,5)            178.9672                                         !
 ! D5    D(2,1,7,8)              3.257                                          !
 ! D6    D(2,1,7,9)           -177.0519                                         !
 ! D7    D(3,1,7,8)           -176.7072                                         !
 ! D8    D(3,1,7,9)              2.9839                                         !
 ! D9    D(1,3,5,6)           -179.5655                                         !
 ! D10   D(1,3,5,45)             0.1478                                         !
 ! D11   D(4,3,5,6)              0.5104                                         !
 ! D12   D(4,3,5,45)          -179.7763                                         !
 ! D13   D(3,5,45,27)           72.5567                                         !
 ! D14   D(3,5,45,46)         -165.6224                                         !
 ! D15   D(3,5,45,47)          -47.3968                                         !
 ! D16   D(6,5,45,27)         -107.7296                                         !
 ! D17   D(6,5,45,46)           14.0913                                         !
 ! D18   D(6,5,45,47)          132.3168                                         !
 ! D19   D(1,7,8,10)           174.3323                                         !
 ! D20   D(1,7,8,11)            -2.9145                                         !
 ! D21   D(9,7,8,10)            -5.3664                                         !
 ! D22   D(9,7,8,11)           177.3869                                         !
 ! D23   D(1,7,9,12)          -171.4204                                         !
 ! D24   D(1,7,9,13)           -42.0361                                         !
 ! D25   D(1,7,9,50)            70.6402                                         !
 ! D26   D(8,7,9,12)             8.2763                                         !
 ! D27   D(8,7,9,13)           137.6606                                         !
 ! D28   D(8,7,9,50)          -109.663                                          !
 ! D29   D(7,8,10,14)           -0.8721                                         !
 ! D30   D(7,8,10,15)         -178.3617                                         !
 ! D31   D(11,8,10,14)         176.3763                                         !
 ! D32   D(11,8,10,15)          -1.1133                                         !
 ! D33   D(7,9,12,14)           -5.5532                                         !
 ! D34   D(7,9,12,18)          176.6929                                         !
 ! D35   D(13,9,12,14)        -136.1706                                         !
 ! D36   D(13,9,12,18)          46.0754                                         !
 ! D37   D(50,9,12,14)         114.1325                                         !
 ! D38   D(50,9,12,18)         -63.6215                                         !
 ! D39   D(7,9,50,48)         -106.7734                                         !
 ! D40   D(7,9,50,49)           72.9439                                         !
 ! D41   D(12,9,50,48)         128.5811                                         !
 ! D42   D(12,9,50,49)         -51.7016                                         !
 ! D43   D(13,9,50,48)          12.9904                                         !
 ! D44   D(13,9,50,49)        -167.2923                                         !
 ! D45   D(8,10,14,12)           3.8727                                         !
 ! D46   D(8,10,14,16)        -175.0851                                         !
 ! D47   D(15,10,14,12)       -178.6142                                         !
 ! D48   D(15,10,14,16)          2.4281                                         !
 ! D49   D(9,12,14,10)          -0.3646                                         !
 ! D50   D(9,12,14,16)         178.6164                                         !
 ! D51   D(18,12,14,10)        176.9986                                         !
 ! D52   D(18,12,14,16)         -4.0204                                         !
 ! D53   D(9,12,18,19)         145.1272                                         !
 ! D54   D(14,12,18,19)        -32.4624                                         !
 ! D55   D(10,14,16,17)         -1.6656                                         !
 ! D56   D(12,14,16,17)        179.3711                                         !
 ! D57   D(12,18,19,20)         80.8809                                         !
 ! D58   D(12,18,19,21)       -159.8133                                         !
 ! D59   D(12,18,19,22)        -41.3993                                         !
 ! D60   D(24,23,25,26)        178.884                                          !
 ! D61   D(24,23,25,27)         -0.6822                                         !
 ! D62   D(29,23,25,26)         -0.3628                                         !
 ! D63   D(29,23,25,27)       -179.929                                          !
 ! D64   D(24,23,29,30)         -0.9962                                         !
 ! D65   D(24,23,29,31)        178.5712                                         !
 ! D66   D(25,23,29,30)        178.2798                                         !
 ! D67   D(25,23,29,31)         -2.1528                                         !
 ! D68   D(23,25,27,28)        179.5143                                         !
 ! D69   D(23,25,27,45)         -0.6055                                         !
 ! D70   D(26,25,27,28)         -0.0837                                         !
 ! D71   D(26,25,27,45)        179.7965                                         !
 ! D72   D(25,27,45,5)          73.5044                                         !
 ! D73   D(25,27,45,46)        -46.4147                                         !
 ! D74   D(25,27,45,47)       -164.7047                                         !
 ! D75   D(28,27,45,5)        -106.6155                                         !
 ! D76   D(28,27,45,46)        133.4655                                         !
 ! D77   D(28,27,45,47)         15.1755                                         !
 ! D78   D(23,29,30,32)       -179.9144                                         !
 ! D79   D(23,29,30,33)         -0.4166                                         !
 ! D80   D(31,29,30,32)          0.4976                                         !
 ! D81   D(31,29,30,33)        179.9954                                         !
 ! D82   D(23,29,31,34)        179.7853                                         !
 ! D83   D(23,29,31,35)          0.4086                                         !
 ! D84   D(30,29,31,34)         -0.6451                                         !
 ! D85   D(30,29,31,35)        179.9782                                         !
 ! D86   D(29,30,32,36)         -0.0068                                         !
 ! D87   D(29,30,32,37)        179.4435                                         !
 ! D88   D(33,30,32,36)       -179.505                                          !
 ! D89   D(33,30,32,37)         -0.0546                                         !
 ! D90   D(29,31,34,36)          0.2995                                         !
 ! D91   D(29,31,34,40)       -178.0249                                         !
 ! D92   D(35,31,34,36)        179.7012                                         !
 ! D93   D(35,31,34,40)          1.3767                                         !
 ! D94   D(30,32,36,34)         -0.3502                                         !
 ! D95   D(30,32,36,38)        179.1556                                         !
 ! D96   D(37,32,36,34)       -179.8055                                         !
 ! D97   D(37,32,36,38)         -0.2997                                         !
 ! D98   D(31,34,36,32)          0.2053                                         !
 ! D99   D(31,34,36,38)       -179.3306                                         !
 ! D100  D(40,34,36,32)        178.5261                                         !
 ! D101  D(40,34,36,38)         -1.0097                                         !
 ! D102  D(31,34,40,41)       -107.1868                                         !
 ! D103  D(36,34,40,41)         74.4952                                         !
 ! D104  D(32,36,38,39)          0.0616                                         !
 ! D105  D(34,36,38,39)        179.5781                                         !
 ! D106  D(34,40,41,42)         60.8296                                         !
 ! D107  D(34,40,41,43)        179.5696                                         !
 ! D108  D(34,40,41,44)        -61.23                                           !
 --------------------------------------------------------------------------------
                          Input orientation:                          
 ---------------------------------------------------------------------
 Center     Atomic      Atomic             Coordinates (Angstroms)
 Number     Number       Type             X           Y           Z
 ---------------------------------------------------------------------
      1          6           0        2.110118    1.130865    0.927049
      2          1           0        1.711798    2.130573    0.774852
      3          6           0        1.381793    0.234171    1.631416
      4          1           0        1.722938   -0.782145    1.799042
      5          6           0        0.075137    0.530611    2.233066
      6          8           0       -0.520930   -0.323358    2.860713
      7          6           0        3.398266    0.908257    0.334421
      8          6           0        4.061213    1.936636   -0.302408
      9          6           0        4.055123   -0.436081    0.397598
     10          6           0        5.361714    1.798432   -0.790817
     11          1           0        3.571267    2.900586   -0.388321
     12          6           0        5.466994   -0.496015   -0.074503
     13          1           0        3.955252   -0.917929    1.372974
     14          6           0        6.080078    0.593422   -0.641365
     15          1           0        5.852549    2.644101   -1.261403
     16          8           0        7.378978    0.492968   -1.029224
     17          1           0        7.669518    1.328210   -1.416551
     18          8           0        5.979668   -1.723642    0.090972
     19          6           0        6.913439   -2.236846   -0.869561
     20          1           0        7.914111   -1.852367   -0.686139
     21          1           0        6.895105   -3.316390   -0.738156
     22          1           0        6.591303   -1.979817   -1.879659
     23          6           0       -3.005642    0.704152    0.942801
     24          1           0       -2.673709    0.469809    1.951423
     25          6           0       -2.270881    1.541483    0.193650
     26          1           0       -2.547454    1.794813   -0.825315
     27          6           0       -1.031471    2.190107    0.650562
     28          8           0       -0.417029    2.930257   -0.091743
     29          6           0       -4.240265    0.033293    0.539146
     30          6           0       -4.857949   -0.837996    1.439688
     31          6           0       -4.842794    0.230729   -0.713979
     32          6           0       -6.031414   -1.501637    1.104759
     33          1           0       -4.410003   -1.005537    2.413361
     34          6           0       -6.007097   -0.425190   -1.059575
     35          1           0       -4.408348    0.895611   -1.452393
     36          6           0       -6.612858   -1.305935   -0.142939
     37          1           0       -6.497066   -2.183339    1.810251
     38          8           0       -7.743650   -1.930513   -0.541644
     39          1           0       -8.063395   -2.510326    0.161661
     40          8           0       -6.548915   -0.245328   -2.299113
     41          6           0       -7.733760    0.550054   -2.296655
     42          1           0       -7.519665    1.550546   -1.909180
     43          1           0       -8.058872    0.624139   -3.332965
     44          1           0       -8.520693    0.083868   -1.700806
     45          6           0       -0.525927    1.926297    2.068138
     46          1           0       -1.341274    2.011911    2.785915
     47          1           0        0.218660    2.690218    2.292396
     48          8           0        2.574651   -2.250000   -0.012423
     49          8           0        3.405978   -1.260065   -1.728027
     50          7           0        3.268367   -1.413699   -0.538488
 ---------------------------------------------------------------------
                    Distance matrix (angstroms):
                    1          2          3          4          5
     1  C    0.000000
     2  H    1.086848   0.000000
     3  C    1.353015   2.106881   0.000000
     4  H    2.137730   3.087559   1.085070   0.000000
     5  C    2.491412   2.713840   1.468744   2.151035   0.000000
     6  O    3.574386   3.918886   2.332888   2.524396   1.215936
     7  C    1.435301   2.128899   2.490532   2.794512   3.845862
     8  C    2.442867   2.591881   3.717170   4.156368   4.928928
     9  C    2.553171   3.495884   3.019641   2.742789   4.488176
    10  C    3.737591   3.985414   4.914661   5.158240   6.220863
    11  H    2.645197   2.324546   3.997862   4.665125   4.971054
    12  C    3.862443   4.660672   4.486892   4.196427   5.954071
    13  H    2.793014   3.831997   2.831398   2.276664   4.230049
    14  C    4.302249   4.842558   5.231488   5.180004   6.657748
    15  H    4.591840   4.642829   5.844983   6.177312   7.075072
    16  O    5.656395   6.168741   6.565988   6.451030   7.999378
    17  H    6.036417   6.398473   7.072659   7.082051   8.463479
    18  O    4.880640   5.791146   5.229383   4.682271   6.673358
    19  C    6.135241   6.988241   6.554381   6.014890   8.002967
    20  H    6.722231   7.514453   7.238500   6.756636   8.697693
    21  H    6.741446   7.669764   6.972658   6.293734   8.374936
    22  H    6.134735   6.910232   6.660960   6.218379   8.104145
    23  C    5.133549   4.931240   4.465944   5.030079   3.344562
    24  H    4.936734   4.834784   4.074927   4.573960   2.763906
    25  C    4.460901   4.067746   4.137423   4.891536   3.268774
    26  H    5.020417   4.562291   4.889797   5.635975   4.222545
    27  C    3.326864   2.746729   3.257546   4.211895   2.546140
    28  O    3.265305   2.433595   3.670684   4.683637   3.377168
    29  C    6.456199   6.315157   5.730702   6.149152   4.662552
    30  C    7.259006   7.239888   6.334089   6.590927   5.180528
    31  C    7.200430   6.984891   6.651795   7.102817   5.741171
    32  C    8.558399   8.559155   7.631910   7.818547   6.533994
    33  H    7.020350   7.070810   5.974380   6.167678   4.744337
    34  C    8.500422   8.335370   7.891254   8.249397   6.982021
    35  H    6.943161   6.628871   6.593414   7.139983   5.815279
    36  C    9.119933   9.052725   8.332750   8.575030   7.331274
    37  H    9.265399   9.330988   8.243347   8.338581   7.123072
    38  O   10.422372  10.374540   9.627137   9.819055   8.653876
    39  H   10.832565  10.838282   9.945050  10.071739   8.931614
    40  O    9.342424   9.128722   8.864261   9.246978   8.063548
    41  C   10.374562  10.057374   9.930903  10.391276   9.027604
    42  H   10.047540   9.631219   9.669779  10.228298   8.710884
    43  H   11.036886  10.705583  10.673487  11.135481   9.856549
    44  H   11.000725  10.724819  10.449188  10.859598   9.463784
    45  C    2.980525   2.592630   2.587163   3.530647   1.528535
    46  H    4.017927   3.657828   3.450844   4.262636   2.122761
    47  H    2.805952   2.201273   2.796773   3.816223   2.165184
    48  O    3.539583   4.533623   3.208773   2.482220   4.361374
    49  O    3.800688   4.542145   4.197133   3.937162   5.476429
    50  N    3.156603   4.087742   3.314079   2.872500   4.653877
                    6          7          8          9         10
     6  O    0.000000
     7  C    4.822771   0.000000
     8  C    6.009071   1.379352   0.000000
     9  C    5.198067   1.497563   2.473828   0.000000
    10  C    7.241627   2.431810   1.396047   2.848255   0.000000
    11  H    6.139716   2.126420   1.084725   3.461955   2.140666
    12  C    6.670873   2.533542   2.818857   1.489917   2.405967
    13  H    4.754271   2.173426   3.311596   1.092479   3.746831
    14  C    7.528502   2.871131   2.448455   2.497951   1.410826
    15  H    8.149779   3.403427   2.151526   3.933261   1.085139
    16  O    8.843446   4.228245   3.690529   3.734563   2.414628
    17  H    9.386485   4.635283   3.825096   4.412222   2.436926
    18  O    7.203473   3.694562   4.151247   2.335745   3.682991
    19  C    8.535000   4.868027   5.086728   3.608105   4.324062
    20  H    9.277281   5.390310   5.417437   4.251135   4.455785
    21  H    8.769702   5.588019   5.984573   4.201383   5.339988
    22  H    8.706253   4.841343   4.922162   3.741822   4.119785
    23  C    3.302719   6.435979   7.280796   7.172989   8.614843
    24  H    2.467869   6.298874   7.251931   6.965069   8.593785
    25  C    3.695022   5.706139   6.363775   6.631039   7.700111
    26  H    4.709591   6.122300   6.630839   7.075763   7.909244
    27  C    3.385694   4.622300   5.187276   5.730121   6.565349
    28  O    4.394747   4.338960   4.591983   5.618881   5.929891
    29  C    4.398900   7.691205   8.558356   8.309862   9.853047
    30  C    4.592809   8.510940   9.501837   8.982780  10.787373
    31  C    5.635950   8.335062   9.075287   8.991838  10.324513
    32  C    5.902300   9.763190  10.754671  10.167287  12.011954
    33  H    3.973711   8.303834   9.369806   8.720432  10.659055
    34  C    6.743668   9.601155  10.369300  10.167190  11.587346
    35  H    5.933024   8.008501   8.610438   8.765055   9.833965
    36  C    6.862869  10.264167  11.156858  10.717026  12.387381
    37  H    6.346432  10.471563  11.528867  10.788753  12.776960
    38  O    8.144118  11.531192  12.424446  11.930069  13.627827
    39  H    8.304004  11.961866  12.922729  12.297017  14.131743
    40  O    7.935143  10.354356  11.014654  10.943229  12.178464
    41  C    8.909894  11.444338  12.042467  12.132981  13.240749
    42  H    8.674427  11.164565  11.698184  11.968443  12.932212
    43  H    9.802039  12.033140  12.561981  12.719671  13.709617
    44  H    9.217889  12.119544  12.794241  12.760281  14.017454
    45  C    2.385194   4.409248   5.163472   5.418261   6.546319
    46  H    2.476296   5.448956   6.223365   6.388883   7.600569
    47  H    3.154619   4.137504   4.697457   5.299287   6.062383
    48  O    4.642141   3.282260   4.452177   2.377019   4.976286
    49  O    6.111838   2.992553   3.560985   2.370363   3.749355
    50  N    5.205975   2.484013   3.450953   1.565560   3.842337
                   11         12         13         14         15
    11  H    0.000000
    12  C    3.902456   0.000000
    13  H    4.222637   2.135080   0.000000
    14  C    3.417773   1.372617   3.294939   0.000000
    15  H    2.456075   3.379011   4.819516   2.154415   0.000000
    16  O    4.550390   2.354838   4.413965   1.359289   2.647879
    17  H    4.508357   3.159114   5.159686   1.914979   2.248780
    18  O    5.235800   1.340628   2.528035   2.432115   4.574085
    19  C    6.147757   2.398919   3.939464   2.959219   5.010257
    20  H    6.445119   2.863943   4.559132   3.057379   4.979879
    21  H    7.058405   3.230240   4.341915   3.995031   6.073563
    22  H    5.929843   2.593130   4.319258   2.901082   4.723199
    23  C    7.060590   8.617474   7.160324   9.223456   9.332174
    24  H    7.098085   8.444421   6.797319   9.130532   9.367330
    25  C    6.026321   8.006124   6.797371   8.445981   8.326048
    26  H    6.233173   8.369169   7.380829   8.712720   8.454083
    27  C    4.771714   7.069019   5.920235   7.402203   7.159012
    28  O    3.999418   6.808918   6.005895   6.926419   6.384168
    29  C    8.372670   9.741028   8.292563  10.402732  10.579376
    30  C    9.400547  10.440985   8.813816  11.225870  11.581695
    31  C    8.833493  10.355134   9.114845  10.929132  10.977905
    32  C   10.668661  11.602385  10.007306  12.414768  12.806813
    33  H    9.317075  10.198243   8.430159  11.042183  11.495379
    34  C   10.161517  11.516517  10.266864  12.137227  12.252041
    35  H    8.296169  10.067650   9.012293  10.524075  10.410557
    36  C   11.021408  12.107167  10.683328  12.843932  13.124029
    37  H   11.491359  12.228577  10.537715  13.111269  13.610740
    38  O   12.304079  13.296508  11.897706  14.052602  14.363209
    39  H   12.843123  13.681544  12.184043  14.502273  14.907942
    40  O   10.768751  12.222676  11.147832  12.764916  12.775835
    41  C   11.703434  13.427291  12.339131  13.912727  13.785666
    42  H   11.275832  13.274328  12.187684  13.692204  13.432483
    43  H   12.211194  13.957843  12.994731  14.392899  14.209126
    44  H   12.484871  14.093846  12.888015  14.648022  14.606093
    45  C    4.875492   6.809817   5.352928   7.263419   7.230909
    46  H    5.915960   7.798987   6.215590   8.296676   8.278378
    47  H    4.297728   6.580220   5.275053   6.881840   6.661255
    48  O    5.259571   3.383189   2.366390   4.557262   6.021362
    49  O    4.374146   2.750582   3.167802   3.430314   4.630978
    50  N    4.327511   2.427218   2.090762   3.456130   4.864807
                   16         17         18         19         20
    16  O    0.000000
    17  H    0.965435   0.000000
    18  O    2.850661   3.800266   0.000000
    19  C    2.773825   3.685170   1.434549   0.000000
    20  H    2.429953   3.272522   2.088671   1.087572   0.000000
    21  H    3.850982   4.757337   2.015522   1.087667   1.784500
    22  H    2.730995   3.509994   2.079209   1.090932   1.786212
    23  C   10.572313  10.950571   9.346420  10.503441  11.332707
    24  H   10.485290  10.911574   9.118850  10.353615  11.155769
    25  C    9.783383  10.072227   8.873733   9.987889  10.771552
    26  H   10.013513  10.244696   9.269893  10.284198  11.079966
    27  C    8.742861   8.984599   8.049015   9.221187   9.907160
    28  O    8.221738   8.349485   7.912641   9.002206   9.624692
    29  C   11.733623  12.138554  10.379533  11.469224  12.360660
    30  C   12.554257  13.030271  10.957068  12.077043  12.987440
    31  C   12.228649  12.579984  11.026930  12.013415  12.925892
    32  C   13.724830  14.215505  12.055834  13.115170  14.064424
    33  H   12.372428  12.885240  10.670259  11.853862  12.736083
    34  C   13.417561  13.793174  12.111658  13.048312  13.999155
    35  H   11.801789  12.085663  10.823739  11.761583  12.648380
    36  C   14.134816  14.578994  12.601623  13.577749  14.547388
    37  H   14.414223  14.947753  12.603020  13.675741  14.629543
    38  O   15.323344  15.778164  13.739448  14.663956  15.658623
    39  H   15.776719  16.271129  14.065258  15.014785  16.013506
    40  O   14.005138  14.332438  12.839911  13.683740  14.641154
    41  C   15.165899  15.448012  14.104203  14.978112  15.912928
    42  H   14.962031  15.198796  14.033991  14.957929  15.851722
    43  H   15.609344  15.860347  14.639536  15.440974  16.379101
    44  H   15.919105  16.240446  14.722024  15.629750  16.579546
    45  C    8.610203   8.925585   7.717124   9.016984   9.648761
    46  H    9.638738   9.966069   8.649466   9.977712  10.613669
    47  H    8.193364   8.433660   7.584038   8.893480   9.419486
    48  O    5.624884   6.382228   3.447011   4.422662   5.396466
    49  O    4.398429   4.997395   3.185520   3.740768   4.664720
    50  N    4.557776   5.259200   2.800613   3.751497   4.668744
                   21         22         23         24         25
    21  H    0.000000
    22  H    1.783747   0.000000
    23  C   10.817355  10.357187   0.000000
    24  H   10.636322  10.320771   1.087389   0.000000
    25  C   10.415494   9.758918   1.342469   2.097742   0.000000
    26  H   10.737501   9.943659   2.127371   3.079261   1.085798
    27  C    9.750932   9.049695   2.488135   2.710832   1.471604
    28  O    9.638763   8.741978   3.567455   3.914197   2.333861
    29  C   11.698220  11.279455   1.461945   2.153873   2.504492
    30  C   12.207363  11.975274   2.460926   2.596754   3.729269
    31  C   12.262174  11.704012   2.518765   3.444772   3.025987
    32  C   13.182738  12.979538   3.747937   3.984673   4.922632
    33  H   11.961504  11.849387   2.656655   2.324811   3.998784
    34  C   13.226080  12.720421   3.780695   4.580241   4.404280
    35  H   12.083838  11.377300   2.782300   3.843987   2.774053
    36  C   13.669722  13.334924   4.269812   4.801720   5.203253
    37  H   13.679490  13.600083   4.613038   4.655876   5.860745
    38  O   14.705524  14.397347   5.620832   6.138503   6.522776
    39  H   15.007203  14.805695   6.043502   6.413514   7.069045
    40  O   13.878390  13.260835   4.895539   5.796180   5.263852
    41  C   15.211247  14.552717   5.733491   6.607323   6.085030
    42  H   15.259226  14.545919   5.406162   6.289319   5.654353
    43  H   15.680633  14.950596   6.619948   7.546427   6.839544
    44  H   15.815666  15.253301   6.147292   6.904704   6.691318
    45  C    9.509615   9.027613   2.984796   2.597681   2.589720
    46  H   10.423426  10.031314   2.806675   2.202235   2.793799
    47  H    9.478318   8.934531   4.020198   3.662278   3.452846
    48  O    4.508903   4.437687   6.385854   6.228911   6.156054
    49  O    4.169212   3.269148   7.218056   7.313919   6.615758
    50  N    4.100407   3.627828   6.785476   6.712341   6.320791
                   26         27         28         29         30
    26  H    0.000000
    27  C    2.152365   0.000000
    28  O    2.523107   1.215063   0.000000
    29  C    2.798270   3.867896   4.838136   0.000000
    30  C    4.171367   4.943082   6.022190   1.397015   0.000000
    31  C    2.779809   4.497479   5.221304   1.404402   2.404304
    32  C    5.170081   6.231749   7.252214   2.425725   1.389107
    33  H    4.669054   4.973337   6.140835   2.149572   1.084789
    34  C    4.117332   5.875475   6.591251   2.426481   2.781594
    35  H    2.159795   4.183471   4.682069   2.176712   3.401715
    36  C    5.158273   6.633539   7.505747   2.808553   2.409021
    37  H    6.194460   7.095395   8.169045   3.409151   2.152666
    38  O    6.399919   7.965815   8.803912   4.159128   3.666952
    39  H    7.066395   8.472369   9.387814   4.607473   3.834700
    40  O    4.727150   6.713726   7.249610   3.669225   4.145993
    41  C    5.532814   7.503102   8.003846   4.529163   4.915001
    42  H    5.094832   7.004140   7.460169   4.364725   4.899468
    43  H    6.167213   8.228311   8.615188   5.470293   5.929752
    44  H    6.274822   8.127337   8.738442   4.831356   4.912049
    45  C    3.532128   1.527970   2.384298   4.440449   5.177130
    46  H    3.813526   2.165056   3.158878   4.167379   4.722425
    47  H    4.263011   2.123337   2.479080   5.478609   6.240783
    48  O    6.577026   5.758317   5.982600   7.208380   7.703630
    49  O    6.752076   6.103469   5.903525   8.079473   8.860307
    50  N    6.648353   5.734969   5.714164   7.722347   8.383413
                   31         32         33         34         35
    31  C    0.000000
    32  C    2.778797   0.000000
    33  H    3.390563   2.141852   0.000000
    34  C    1.380315   2.417368   3.866368   0.000000
    35  H    1.084467   3.862663   4.307949   2.110645   0.000000
    36  C    2.412582   1.390369   3.387843   1.408147   3.379548
    37  H    3.864722   1.085941   2.471193   3.401037   4.948487
    38  O    3.621551   2.413778   4.549817   2.355814   4.465499
    39  H    4.318842   2.456793   4.547727   3.172943   5.250233
    40  O    2.377001   3.665032   5.230706   1.364688   2.569184
    41  C    3.311272   4.321693   5.970886   2.337271   3.448269
    42  H    3.214975   4.540323   5.906600   2.629301   3.212148
    43  H    4.166176   5.321927   6.999312   3.237156   4.115407
    44  H    3.810818   4.072042   5.917005   2.643573   4.199050
    45  C    5.408369   6.556616   4.878614   6.734635   5.341314
    46  H    5.261417   6.096615   4.319824   6.518985   5.349422
    47  H    6.380101   7.618764   5.924337   7.726677   6.217175
    48  O    7.852686   8.710482   7.497900   8.835885   7.792987
    49  O    8.443518   9.856338   8.849036   9.473639   8.110894
    50  N    8.278035   9.444253   8.236345   9.342533   8.068462
                   36         37         38         39         40
    36  C    0.000000
    37  H    2.144340   0.000000
    38  O    1.351944   2.673817   0.000000
    39  H    1.909815   2.297424   0.965949   0.000000
    40  O    2.403760   4.543726   2.712183   3.671413   0.000000
    41  C    3.056078   5.086013   3.038647   3.939277   1.427059
    42  H    3.478706   5.368591   3.746744   4.590719   2.078357
    43  H    3.999051   6.064144   3.796984   4.694390   2.026029
    44  H    2.828133   4.643577   2.450547   3.226103   2.086683
    45  C    7.237880   7.253283   8.589613   8.951631   7.750176
    46  H    6.883014   6.718202   8.222272   8.516117   7.620510
    47  H    8.280685   8.311739   9.632306  10.008903   8.689043
    48  O    9.236807   9.253249  10.336802  10.642654   9.617022
    49  O   10.143554  10.556615  11.232596  11.691048  10.022761
    50  N    9.889726  10.073361  11.024138  11.406210  10.042107
                   41         42         43         44         45
    41  C    0.000000
    42  H    1.094055   0.000000
    43  H    1.088635   1.782172   0.000000
    44  H    1.091617   1.787909   1.780201   0.000000
    45  C    8.538051   8.054354   9.360170   9.028608   0.000000
    46  H    8.296591   7.773628   9.191993   8.682860   1.089645
    47  H    9.427655   8.878839  10.219144   9.955652   1.090082
    48  O   10.923431  10.951578  11.504716  11.463168   5.602122
    49  O   11.300161  11.282820  11.728974  12.002182   6.326424
    50  N   11.313456  11.271521  11.843489  11.940503   5.687419
                   46         47         48         49         50
    46  H    0.000000
    47  H    1.771175   0.000000
    48  O    6.428767   5.938741   0.000000
    49  O    7.322425   6.475147   2.148110   0.000000
    50  N    6.635906   5.844377   1.207223   1.207288   0.000000
 Stoichiometry    C21H20NO8(2)
 Framework group  C1[X(C21H20NO8)]
 Deg. of freedom   144
 Full point group                 C1      NOp   1
 Largest Abelian subgroup         C1      NOp   1
 Largest concise Abelian subgroup C1      NOp   1
                         Standard orientation:                         
 ---------------------------------------------------------------------
 Center     Atomic      Atomic             Coordinates (Angstroms)
 Number     Number       Type             X           Y           Z
 ---------------------------------------------------------------------
      1          6           0        2.134380    1.358702    0.365389
      2          1           0        1.746860    2.216029   -0.178722
      3          6           0        1.398804    0.832674    1.371806
      4          1           0        1.729028   -0.032902    1.936700
      5          6           0        0.098120    1.363041    1.800923
      6          8           0       -0.505039    0.843429    2.720000
      7          6           0        3.417437    0.899720   -0.085375
      8          6           0        4.089422    1.574280   -1.083382
      9          6           0        4.059176   -0.311881    0.517026
     10          6           0        5.386226    1.234503   -1.472996
     11          1           0        3.610149    2.426846   -1.552485
     12          6           0        5.468302   -0.574840    0.110739
     13          1           0        3.957863   -0.356517    1.603881
     14          6           0        6.091414    0.184470   -0.848040
     15          1           0        5.884718    1.811363   -2.245179
     16          8           0        7.387465   -0.080077   -1.160987
     17          1           0        7.685902    0.523370   -1.852979
     18          8           0        5.967624   -1.636578    0.759332
     19          6           0        6.891490   -2.505874    0.089460
     20          1           0        7.897234   -2.092203    0.102404
     21          1           0        6.861392   -3.439571    0.646529
     22          1           0        6.568121   -2.675748   -0.938502
     23          6           0       -2.985804    1.036841    0.548283
     24          1           0       -2.652385    1.226743    1.565723
     25          6           0       -2.244655    1.490387   -0.475054
     26          1           0       -2.522544    1.312990   -1.509590
     27          6           0       -0.996044    2.253376   -0.318731
     28          8           0       -0.376285    2.622289   -1.296575
     29          6           0       -4.229661    0.275016    0.449665
     30          6           0       -4.853501   -0.149728    1.625279
     31          6           0       -4.835090   -0.044308   -0.776643
     32          6           0       -6.035837   -0.877879    1.586634
     33          1           0       -4.403461    0.085707    2.583819
     34          6           0       -6.008222   -0.769828   -0.828160
     35          1           0       -4.396156    0.259537   -1.720615
     36          6           0       -6.620181   -1.196849    0.366008
     37          1           0       -6.506303   -1.210051    2.507282
     38          8           0       -7.759666   -1.915609    0.253270
     39          1           0       -8.083083   -2.157268    1.130801
     40          8           0       -6.553089   -1.100457   -2.034881
     41          6           0       -7.728766   -0.357846   -2.355522
     42          1           0       -7.501670    0.711192   -2.405950
     43          1           0       -8.057306   -0.705571   -3.333414
     44          1           0       -8.518486   -0.533440   -1.622625
     45          6           0       -0.487667    2.579739    1.084740
     46          1           0       -1.299001    2.958382    1.705781
     47          1           0        0.266508    3.359987    0.981244
     48          8           0        2.556426   -2.118483    0.875011
     49          8           0        3.391867   -1.917700   -1.093770
     50          7           0        3.257447   -1.575097    0.056055
 ---------------------------------------------------------------------
 Rotational constants (GHZ):           0.3349215           0.0494825           0.0482496
 Standard basis: 6-311G(d) (5D, 7F)
 There are   630 symmetry adapted cartesian basis functions of A   symmetry.
 There are   600 symmetry adapted basis functions of A   symmetry.
   600 basis functions,  1060 primitive gaussians,   630 cartesian basis functions
   109 alpha electrons      108 beta electrons
       nuclear repulsion energy      2716.1052107944 Hartrees.
 NAtoms=   50 NActive=   50 NUniq=   50 SFac= 1.00D+00 NAtFMM=   60 NAOKFM=F Big=F
 Integral buffers will be    131072 words long.
 Raffenetti 2 integral format.
 Two-electron integral symmetry is turned on.
 Using the following non-standard input for PCM:
 Eps=7
 EpsInf=1.85341
 HbondAcidity=0
 HbondBasicity=0.48
 SurfaceTensionAtInterface=60.62
 CarbonAromaticity=0
 ElectronegativeHalogenicity=0
 --- end of non-standard input.
 ------------------------------------------------------------------------------
 Polarizable Continuum Model (PCM)
 =================================
 Model                : PCM.
 Atomic radii         : SMD-Coulomb.
 Polarization charges : Total charges.
 Charge compensation  : None.
 Solution method      : On-the-fly selection.
 Cavity type          : VdW (van der Waals Surface) (Alpha=1.000).
 Cavity algorithm     : GePol (No added spheres)
                        Default sphere list used, NSphG=   50.
                        Lebedev-Laikov grids with approx.  5.0 points / Ang**2.
                        Smoothing algorithm: York/Karplus (Gamma=1.0000).
                        Polarization charges: spherical gaussians, with
                                              point-specific exponents (IZeta= 3).
                        Self-potential: point-specific (ISelfS= 7).
                        Self-field    : sphere-specific E.n sum rule (ISelfD= 2).
 Solvent              : Generic,
                        Eps                           =   7.000000
                        Eps(infinity)                 =   1.853410
                        RSolv                         =   0.000000 Ang.
                        Molar volume                  =   0.000000 cm**3/mol
                        Thermal expansion coefficient =   0.000000 K**-1
                        Absolute temperature          = 298.150000 K
                        Numeral density               =   0.000000 Ang**-3
                        Hydrogen bond acidity         =   0.000000
                        Hydrogen bond basicity        =   0.480000
                        Surface tension at interface  =  60.620000 (cal/mol)*Ang**-2
                        Carbon aromaticity            =   0.000000
                        Electronegative halogenicity  =   0.000000
 ------------------------------------------------------------------------------
 ------------------------------------------------------------------------------
 Atomic radii for non-electrostatic terms: SMD-CDS.
 ------------------------------------------------------------------------------
 Nuclear repulsion after PCM non-electrostatic terms =     2716.1011242683 Hartrees.
 One-electron integrals computed using PRISM.
 NBasis=   600 RedAO= T EigKep=  1.71D-04  NBF=   600
 NBsUse=   600 1.00D-06 EigRej= -1.00D+00 NBFU=   600
 Initial guess from the checkpoint file:  "CURCUMIN-Reag-1-M062X-6-311G-D-298-NBO.chk"
 B after Tr=     0.000000   -0.000000   -0.000000
         Rot=    1.000000   -0.000000    0.000000    0.000000 Ang=   0.00 deg.
 Initial guess <Sx>= 0.0000 <Sy>= 0.0000 <Sz>= 0.5000 <S**2>= 0.7944 S= 0.5220
 Requested convergence on RMS density matrix=1.00D-08 within 128 cycles.
 Requested convergence on MAX density matrix=1.00D-06.
 Requested convergence on             energy=1.00D-06.
 No special actions if energy rises.
 Inv3:  Mode=1 IEnd=    49402092.
 Iteration    1 A*A^-1 deviation from unit magnitude is 3.77D-15 for   3201.
 Iteration    1 A*A^-1 deviation from orthogonality  is 2.11D-15 for   3514   1690.
 Iteration    1 A^-1*A deviation from unit magnitude is 3.77D-15 for   3201.
 Iteration    1 A^-1*A deviation from orthogonality  is 1.75D-15 for   1276    326.
 Error on total polarization charges =  0.03299
 SCF Done:  E(UM062X) =  -1468.40902711     A.U. after    1 cycles
            NFock=  1  Conv=0.32D-08     -V/T= 2.0031
 <Sx>= 0.0000 <Sy>= 0.0000 <Sz>= 0.5000 <S**2>= 0.7944 S= 0.5220
 <L.S>=  0.00000000000    
 SMD-CDS (non-electrostatic) energy       (kcal/mol) =      -2.56
 (included in total energy above)
 Annihilation of the first spin contaminant:
 S**2 before annihilation     0.7944,   after     0.7511

 **********************************************************************

            Population analysis using the SCF density.

 **********************************************************************

 Orbital symmetries:
 Alpha Orbitals:
       Occupied  (A) (A) (A) (A) (A) (A) (A) (A) (A) (A) (A) (A)
                 (A) (A) (A) (A) (A) (A) (A) (A) (A) (A) (A) (A)
                 (A) (A) (A) (A) (A) (A) (A) (A) (A) (A) (A) (A)
                 (A) (A) (A) (A) (A) (A) (A) (A) (A) (A) (A) (A)
                 (A) (A) (A) (A) (A) (A) (A) (A) (A) (A) (A) (A)
                 (A) (A) (A) (A) (A) (A) (A) (A) (A) (A) (A) (A)
                 (A) (A) (A) (A) (A) (A) (A) (A) (A) (A) (A) (A)
                 (A) (A) (A) (A) (A) (A) (A) (A) (A) (A) (A) (A)
                 (A) (A) (A) (A) (A) (A) (A) (A) (A) (A) (A) (A)
                 (A)
       Virtual   (A) (A) (A) (A) (A) (A) (A) (A) (A) (A) (A) (A)
                 (A) (A) (A) (A) (A) (A) (A) (A) (A) (A) (A) (A)
                 (A) (A) (A) (A) (A) (A) (A) (A) (A) (A) (A) (A)
                 (A) (A) (A) (A) (A) (A) (A) (A) (A) (A) (A) (A)
                 (A) (A) (A) (A) (A) (A) (A) (A) (A) (A) (A) (A)
                 (A) (A) (A) (A) (A) (A) (A) (A) (A) (A) (A) (A)
                 (A) (A) (A) (A) (A) (A) (A) (A) (A) (A) (A) (A)
                 (A) (A) (A) (A) (A) (A) (A) (A) (A) (A) (A) (A)
                 (A) (A) (A) (A) (A) (A) (A) (A) (A) (A) (A) (A)
                 (A) (A) (A) (A) (A) (A) (A) (A) (A) (A) (A) (A)
                 (A) (A) (A) (A) (A) (A) (A) (A) (A) (A) (A) (A)
                 (A) (A) (A) (A) (A) (A) (A) (A) (A) (A) (A) (A)
                 (A) (A) (A) (A) (A) (A) (A) (A) (A) (A) (A) (A)
                 (A) (A) (A) (A) (A) (A) (A) (A) (A) (A) (A) (A)
                 (A) (A) (A) (A) (A) (A) (A) (A) (A) (A) (A) (A)
                 (A) (A) (A) (A) (A) (A) (A) (A) (A) (A) (A) (A)
                 (A) (A) (A) (A) (A) (A) (A) (A) (A) (A) (A) (A)
                 (A) (A) (A) (A) (A) (A) (A) (A) (A) (A) (A) (A)
                 (A) (A) (A) (A) (A) (A) (A) (A) (A) (A) (A) (A)
                 (A) (A) (A) (A) (A) (A) (A) (A) (A) (A) (A) (A)
                 (A) (A) (A) (A) (A) (A) (A) (A) (A) (A) (A) (A)
                 (A) (A) (A) (A) (A) (A) (A) (A) (A) (A) (A) (A)
                 (A) (A) (A) (A) (A) (A) (A) (A) (A) (A) (A) (A)
                 (A) (A) (A) (A) (A) (A) (A) (A) (A) (A) (A) (A)
                 (A) (A) (A) (A) (A) (A) (A) (A) (A) (A) (A) (A)
                 (A) (A) (A) (A) (A) (A) (A) (A) (A) (A) (A) (A)
                 (A) (A) (A) (A) (A) (A) (A) (A) (A) (A) (A) (A)
                 (A) (A) (A) (A) (A) (A) (A) (A) (A) (A) (A) (A)
                 (A) (A) (A) (A) (A) (A) (A) (A) (A) (A) (A) (A)
                 (A) (A) (A) (A) (A) (A) (A) (A) (A) (A) (A) (A)
                 (A) (A) (A) (A) (A) (A) (A) (A) (A) (A) (A) (A)
                 (A) (A) (A) (A) (A) (A) (A) (A) (A) (A) (A) (A)
                 (A) (A) (A) (A) (A) (A) (A) (A) (A) (A) (A) (A)
                 (A) (A) (A) (A) (A) (A) (A) (A) (A) (A) (A) (A)
                 (A) (A) (A) (A) (A) (A) (A) (A) (A) (A) (A) (A)
                 (A) (A) (A) (A) (A) (A) (A) (A) (A) (A) (A) (A)
                 (A) (A) (A) (A) (A) (A) (A) (A) (A) (A) (A) (A)
                 (A) (A) (A) (A) (A) (A) (A) (A) (A) (A) (A) (A)
                 (A) (A) (A) (A) (A) (A) (A) (A) (A) (A) (A) (A)
                 (A) (A) (A) (A) (A) (A) (A) (A) (A) (A) (A) (A)
                 (A) (A) (A) (A) (A) (A) (A) (A) (A) (A) (A)
 Beta  Orbitals:
       Occupied  (A) (A) (A) (A) (A) (A) (A) (A) (A) (A) (A) (A)
                 (A) (A) (A) (A) (A) (A) (A) (A) (A) (A) (A) (A)
                 (A) (A) (A) (A) (A) (A) (A) (A) (A) (A) (A) (A)
                 (A) (A) (A) (A) (A) (A) (A) (A) (A) (A) (A) (A)
                 (A) (A) (A) (A) (A) (A) (A) (A) (A) (A) (A) (A)
                 (A) (A) (A) (A) (A) (A) (A) (A) (A) (A) (A) (A)
                 (A) (A) (A) (A) (A) (A) (A) (A) (A) (A) (A) (A)
                 (A) (A) (A) (A) (A) (A) (A) (A) (A) (A) (A) (A)
                 (A) (A) (A) (A) (A) (A) (A) (A) (A) (A) (A) (A)
       Virtual   (A) (A) (A) (A) (A) (A) (A) (A) (A) (A) (A) (A)
                 (A) (A) (A) (A) (A) (A) (A) (A) (A) (A) (A) (A)
                 (A) (A) (A) (A) (A) (A) (A) (A) (A) (A) (A) (A)
                 (A) (A) (A) (A) (A) (A) (A) (A) (A) (A) (A) (A)
                 (A) (A) (A) (A) (A) (A) (A) (A) (A) (A) (A) (A)
                 (A) (A) (A) (A) (A) (A) (A) (A) (A) (A) (A) (A)
                 (A) (A) (A) (A) (A) (A) (A) (A) (A) (A) (A) (A)
                 (A) (A) (A) (A) (A) (A) (A) (A) (A) (A) (A) (A)
                 (A) (A) (A) (A) (A) (A) (A) (A) (A) (A) (A) (A)
                 (A) (A) (A) (A) (A) (A) (A) (A) (A) (A) (A) (A)
                 (A) (A) (A) (A) (A) (A) (A) (A) (A) (A) (A) (A)
                 (A) (A) (A) (A) (A) (A) (A) (A) (A) (A) (A) (A)
                 (A) (A) (A) (A) (A) (A) (A) (A) (A) (A) (A) (A)
                 (A) (A) (A) (A) (A) (A) (A) (A) (A) (A) (A) (A)
                 (A) (A) (A) (A) (A) (A) (A) (A) (A) (A) (A) (A)
                 (A) (A) (A) (A) (A) (A) (A) (A) (A) (A) (A) (A)
                 (A) (A) (A) (A) (A) (A) (A) (A) (A) (A) (A) (A)
                 (A) (A) (A) (A) (A) (A) (A) (A) (A) (A) (A) (A)
                 (A) (A) (A) (A) (A) (A) (A) (A) (A) (A) (A) (A)
                 (A) (A) (A) (A) (A) (A) (A) (A) (A) (A) (A) (A)
                 (A) (A) (A) (A) (A) (A) (A) (A) (A) (A) (A) (A)
                 (A) (A) (A) (A) (A) (A) (A) (A) (A) (A) (A) (A)
                 (A) (A) (A) (A) (A) (A) (A) (A) (A) (A) (A) (A)
                 (A) (A) (A) (A) (A) (A) (A) (A) (A) (A) (A) (A)
                 (A) (A) (A) (A) (A) (A) (A) (A) (A) (A) (A) (A)
                 (A) (A) (A) (A) (A) (A) (A) (A) (A) (A) (A) (A)
                 (A) (A) (A) (A) (A) (A) (A) (A) (A) (A) (A) (A)
                 (A) (A) (A) (A) (A) (A) (A) (A) (A) (A) (A) (A)
                 (A) (A) (A) (A) (A) (A) (A) (A) (A) (A) (A) (A)
                 (A) (A) (A) (A) (A) (A) (A) (A) (A) (A) (A) (A)
                 (A) (A) (A) (A) (A) (A) (A) (A) (A) (A) (A) (A)
                 (A) (A) (A) (A) (A) (A) (A) (A) (A) (A) (A) (A)
                 (A) (A) (A) (A) (A) (A) (A) (A) (A) (A) (A) (A)
                 (A) (A) (A) (A) (A) (A) (A) (A) (A) (A) (A) (A)
                 (A) (A) (A) (A) (A) (A) (A) (A) (A) (A) (A) (A)
                 (A) (A) (A) (A) (A) (A) (A) (A) (A) (A) (A) (A)
                 (A) (A) (A) (A) (A) (A) (A) (A) (A) (A) (A) (A)
                 (A) (A) (A) (A) (A) (A) (A) (A) (A) (A) (A) (A)
                 (A) (A) (A) (A) (A) (A) (A) (A) (A) (A) (A) (A)
                 (A) (A) (A) (A) (A) (A) (A) (A) (A) (A) (A) (A)
                 (A) (A) (A) (A) (A) (A) (A) (A) (A) (A) (A) (A)
 The electronic state is 2-A.
 Alpha  occ. eigenvalues --  -19.66831 -19.66354 -19.66082 -19.65924 -19.65823
 Alpha  occ. eigenvalues --  -19.63396 -19.61009 -19.60978 -14.99436 -10.63308
 Alpha  occ. eigenvalues --  -10.63229 -10.62528 -10.61985 -10.61743 -10.61513
 Alpha  occ. eigenvalues --  -10.59936 -10.58235 -10.57317 -10.57247 -10.56535
 Alpha  occ. eigenvalues --  -10.56534 -10.56311 -10.56234 -10.55476 -10.55037
 Alpha  occ. eigenvalues --  -10.54799 -10.54731 -10.54571 -10.54358 -10.54122
 Alpha  occ. eigenvalues --   -1.37830  -1.21823  -1.20416  -1.19366  -1.19233
 Alpha  occ. eigenvalues --   -1.17337  -1.17091  -1.16660  -0.99421  -0.97257
 Alpha  occ. eigenvalues --   -0.92004  -0.90958  -0.90502  -0.87318  -0.85681
 Alpha  occ. eigenvalues --   -0.85009  -0.82544  -0.81004  -0.78668  -0.77858
 Alpha  occ. eigenvalues --   -0.74697  -0.73242  -0.71490  -0.70594  -0.67999
 Alpha  occ. eigenvalues --   -0.66675  -0.66020  -0.64283  -0.63359  -0.63232
 Alpha  occ. eigenvalues --   -0.62557  -0.60905  -0.60637  -0.59639  -0.58852
 Alpha  occ. eigenvalues --   -0.58664  -0.57348  -0.56536  -0.56052  -0.55453
 Alpha  occ. eigenvalues --   -0.54451  -0.54011  -0.53005  -0.52786  -0.52086
 Alpha  occ. eigenvalues --   -0.51948  -0.50736  -0.50537  -0.50077  -0.49773
 Alpha  occ. eigenvalues --   -0.49189  -0.48784  -0.48406  -0.46935  -0.46581
 Alpha  occ. eigenvalues --   -0.46061  -0.44890  -0.44561  -0.44219  -0.43772
 Alpha  occ. eigenvalues --   -0.43371  -0.43211  -0.43003  -0.42525  -0.41779
 Alpha  occ. eigenvalues --   -0.40369  -0.39499  -0.38697  -0.38548  -0.38341
 Alpha  occ. eigenvalues --   -0.35934  -0.35242  -0.34901  -0.33675  -0.31889
 Alpha  occ. eigenvalues --   -0.30700  -0.28737  -0.26756  -0.23465
 Alpha virt. eigenvalues --   -0.04283  -0.02855  -0.01361   0.02334   0.04401
 Alpha virt. eigenvalues --    0.05617   0.07050   0.07487   0.09345   0.09790
 Alpha virt. eigenvalues --    0.10009   0.10208   0.10430   0.11258   0.11586
 Alpha virt. eigenvalues --    0.11873   0.12230   0.12508   0.13607   0.14673
 Alpha virt. eigenvalues --    0.15358   0.15436   0.15942   0.16160   0.16392
 Alpha virt. eigenvalues --    0.17377   0.18115   0.18377   0.19573   0.20237
 Alpha virt. eigenvalues --    0.20807   0.22032   0.22366   0.23002   0.24056
 Alpha virt. eigenvalues --    0.25313   0.26561   0.26812   0.27211   0.27667
 Alpha virt. eigenvalues --    0.28856   0.29896   0.30728   0.31409   0.31692
 Alpha virt. eigenvalues --    0.32739   0.33065   0.34145   0.34725   0.35423
 Alpha virt. eigenvalues --    0.35991   0.36653   0.37076   0.37694   0.38443
 Alpha virt. eigenvalues --    0.39072   0.39575   0.40069   0.40189   0.40539
 Alpha virt. eigenvalues --    0.40997   0.41240   0.41784   0.41949   0.42363
 Alpha virt. eigenvalues --    0.42723   0.43215   0.43883   0.44026   0.44593
 Alpha virt. eigenvalues --    0.45066   0.45272   0.45901   0.46808   0.47133
 Alpha virt. eigenvalues --    0.47982   0.48241   0.48428   0.48683   0.49129
 Alpha virt. eigenvalues --    0.49498   0.50233   0.50380   0.50817   0.51179
 Alpha virt. eigenvalues --    0.51650   0.52102   0.52909   0.53375   0.53676
 Alpha virt. eigenvalues --    0.54130   0.55468   0.56254   0.56816   0.56993
 Alpha virt. eigenvalues --    0.57516   0.58138   0.58934   0.59435   0.59606
 Alpha virt. eigenvalues --    0.60441   0.60787   0.61509   0.61916   0.62308
 Alpha virt. eigenvalues --    0.62887   0.63193   0.63487   0.64099   0.64738
 Alpha virt. eigenvalues --    0.65029   0.65468   0.65724   0.65919   0.66019
 Alpha virt. eigenvalues --    0.66871   0.67253   0.67476   0.68024   0.68315
 Alpha virt. eigenvalues --    0.68666   0.69010   0.69678   0.70409   0.71001
 Alpha virt. eigenvalues --    0.71569   0.72243   0.72387   0.73781   0.73941
 Alpha virt. eigenvalues --    0.74271   0.75043   0.76545   0.76926   0.77485
 Alpha virt. eigenvalues --    0.79615   0.79782   0.81125   0.81316   0.82355
 Alpha virt. eigenvalues --    0.82759   0.83236   0.83700   0.84081   0.84636
 Alpha virt. eigenvalues --    0.85331   0.85654   0.86247   0.86552   0.86795
 Alpha virt. eigenvalues --    0.87946   0.88339   0.89117   0.89953   0.90743
 Alpha virt. eigenvalues --    0.91063   0.91546   0.92360   0.93821   0.94550
 Alpha virt. eigenvalues --    0.94810   0.94950   0.96514   0.97208   0.98137
 Alpha virt. eigenvalues --    0.98409   0.99149   0.99897   1.00271   1.00758
 Alpha virt. eigenvalues --    1.01375   1.01513   1.02975   1.03235   1.03699
 Alpha virt. eigenvalues --    1.04681   1.05514   1.06707   1.06876   1.08326
 Alpha virt. eigenvalues --    1.09227   1.09645   1.10612   1.11395   1.13142
 Alpha virt. eigenvalues --    1.13209   1.14892   1.15912   1.16717   1.17303
 Alpha virt. eigenvalues --    1.18082   1.19959   1.20243   1.21186   1.22256
 Alpha virt. eigenvalues --    1.23163   1.23642   1.24997   1.25745   1.26336
 Alpha virt. eigenvalues --    1.27642   1.28472   1.28859   1.29283   1.30752
 Alpha virt. eigenvalues --    1.32134   1.32585   1.33684   1.35253   1.37938
 Alpha virt. eigenvalues --    1.41177   1.41373   1.41887   1.43426   1.44826
 Alpha virt. eigenvalues --    1.46652   1.48401   1.49061   1.50533   1.51137
 Alpha virt. eigenvalues --    1.51854   1.52664   1.54119   1.54898   1.55245
 Alpha virt. eigenvalues --    1.56011   1.56804   1.56937   1.57402   1.58685
 Alpha virt. eigenvalues --    1.58751   1.59344   1.59750   1.60803   1.61428
 Alpha virt. eigenvalues --    1.61574   1.62919   1.63551   1.64104   1.65411
 Alpha virt. eigenvalues --    1.66981   1.67223   1.69181   1.69307   1.70060
 Alpha virt. eigenvalues --    1.71280   1.72133   1.72629   1.73183   1.73615
 Alpha virt. eigenvalues --    1.74326   1.75476   1.75874   1.76601   1.77389
 Alpha virt. eigenvalues --    1.78009   1.79809   1.80562   1.81119   1.81671
 Alpha virt. eigenvalues --    1.82146   1.83572   1.84134   1.84353   1.84830
 Alpha virt. eigenvalues --    1.86711   1.87026   1.87628   1.88895   1.89222
 Alpha virt. eigenvalues --    1.92159   1.92971   1.94814   1.95605   1.97536
 Alpha virt. eigenvalues --    1.99641   2.00112   2.01630   2.03636   2.04763
 Alpha virt. eigenvalues --    2.06450   2.06897   2.08301   2.09852   2.12535
 Alpha virt. eigenvalues --    2.12783   2.14021   2.14604   2.15664   2.16260
 Alpha virt. eigenvalues --    2.17717   2.19161   2.21103   2.22797   2.23253
 Alpha virt. eigenvalues --    2.25896   2.28616   2.29271   2.31023   2.31154
 Alpha virt. eigenvalues --    2.32539   2.33730   2.34956   2.35318   2.35793
 Alpha virt. eigenvalues --    2.37661   2.38118   2.38509   2.39352   2.39878
 Alpha virt. eigenvalues --    2.42465   2.43704   2.45050   2.45194   2.45954
 Alpha virt. eigenvalues --    2.48527   2.49251   2.51475   2.54519   2.56097
 Alpha virt. eigenvalues --    2.57565   2.58364   2.58805   2.61363   2.65441
 Alpha virt. eigenvalues --    2.65959   2.67181   2.68125   2.70727   2.72218
 Alpha virt. eigenvalues --    2.73182   2.73790   2.75051   2.76743   2.79054
 Alpha virt. eigenvalues --    2.81198   2.84015   2.84702   2.85469   2.87344
 Alpha virt. eigenvalues --    2.89210   2.89654   2.90406   2.90836   2.92061
 Alpha virt. eigenvalues --    2.92994   2.93217   2.94314   2.95903   2.97737
 Alpha virt. eigenvalues --    2.98836   3.00357   3.00719   3.00917   3.01488
 Alpha virt. eigenvalues --    3.01871   3.02804   3.03747   3.04434   3.05114
 Alpha virt. eigenvalues --    3.06360   3.07215   3.08605   3.09061   3.10500
 Alpha virt. eigenvalues --    3.11434   3.13201   3.13991   3.16564   3.18161
 Alpha virt. eigenvalues --    3.19325   3.19588   3.20306   3.21708   3.22072
 Alpha virt. eigenvalues --    3.22436   3.22880   3.24031   3.25080   3.25901
 Alpha virt. eigenvalues --    3.26219   3.26603   3.27160   3.31430   3.32974
 Alpha virt. eigenvalues --    3.34059   3.35898   3.36272   3.36671   3.37255
 Alpha virt. eigenvalues --    3.37671   3.38253   3.39423   3.39848   3.39999
 Alpha virt. eigenvalues --    3.40166   3.41834   3.43142   3.46467   3.46701
 Alpha virt. eigenvalues --    3.48446   3.51517   3.52174   3.52638   3.54638
 Alpha virt. eigenvalues --    3.54903   3.55967   3.57180   3.58929   3.60434
 Alpha virt. eigenvalues --    3.62687   3.63714   3.67031   3.69110   3.72561
 Alpha virt. eigenvalues --    3.76626   3.77310   3.80886   3.84265   3.93931
 Alpha virt. eigenvalues --    3.94564   3.95239   3.97167   3.98504   3.99318
 Alpha virt. eigenvalues --    4.00466   4.04594   4.11931   4.13360   4.14086
 Alpha virt. eigenvalues --    4.17226   4.46830   4.50304   4.51661   4.52683
 Alpha virt. eigenvalues --    4.72111   4.82222   4.94519   4.94588   4.96622
 Alpha virt. eigenvalues --    4.99138   5.00860   5.01680   5.06181   5.07974
 Alpha virt. eigenvalues --    5.09442   5.09700   5.18158   5.18535   5.24407
 Alpha virt. eigenvalues --    5.25871   5.29747   5.32095   5.57963   5.60146
 Alpha virt. eigenvalues --    5.60662   5.69745   5.70191   5.78045   5.79181
 Alpha virt. eigenvalues --    6.09276  23.33218  23.35943  23.52182  23.52556
 Alpha virt. eigenvalues --   23.64533  23.65246  23.80838  23.82292  23.84993
 Alpha virt. eigenvalues --   23.87642  23.88518  23.94557  23.98357  24.02059
 Alpha virt. eigenvalues --   24.08542  24.11743  24.14240  24.18341  24.20850
 Alpha virt. eigenvalues --   24.21404  24.24998  35.43104  49.93808  49.98703
 Alpha virt. eigenvalues --   49.98779  50.03050  50.04941  50.06730  50.08581
 Alpha virt. eigenvalues --   50.09926
  Beta  occ. eigenvalues --  -19.66625 -19.66329 -19.66068 -19.65978 -19.65823
  Beta  occ. eigenvalues --  -19.63396 -19.61008 -19.60864 -14.99267 -10.63308
  Beta  occ. eigenvalues --  -10.63250 -10.62278 -10.62090 -10.61792 -10.61513
  Beta  occ. eigenvalues --  -10.59936 -10.58233 -10.57247 -10.57123 -10.56604
  Beta  occ. eigenvalues --  -10.56356 -10.56311 -10.56265 -10.55476 -10.55037
  Beta  occ. eigenvalues --  -10.54799 -10.54731 -10.54460 -10.54358 -10.54122
  Beta  occ. eigenvalues --   -1.37622  -1.21418  -1.20416  -1.19284  -1.19100
  Beta  occ. eigenvalues --   -1.17337  -1.16984  -1.16466  -0.98884  -0.97257
  Beta  occ. eigenvalues --   -0.91717  -0.90876  -0.89955  -0.87075  -0.85678
  Beta  occ. eigenvalues --   -0.84822  -0.82435  -0.80752  -0.77895  -0.77858
  Beta  occ. eigenvalues --   -0.74687  -0.72915  -0.71211  -0.70554  -0.67691
  Beta  occ. eigenvalues --   -0.66673  -0.65771  -0.64140  -0.63283  -0.62823
  Beta  occ. eigenvalues --   -0.62349  -0.60653  -0.60446  -0.59345  -0.58766
  Beta  occ. eigenvalues --   -0.58625  -0.57206  -0.56172  -0.55789  -0.54695
  Beta  occ. eigenvalues --   -0.54443  -0.54010  -0.52786  -0.52658  -0.51959
  Beta  occ. eigenvalues --   -0.51609  -0.50725  -0.50335  -0.50029  -0.49641
  Beta  occ. eigenvalues --   -0.49129  -0.48584  -0.48371  -0.46703  -0.46297
  Beta  occ. eigenvalues --   -0.45761  -0.44745  -0.44417  -0.44145  -0.43668
  Beta  occ. eigenvalues --   -0.43192  -0.42882  -0.42552  -0.42369  -0.40987
  Beta  occ. eigenvalues --   -0.40352  -0.39021  -0.38493  -0.38429  -0.37621
  Beta  occ. eigenvalues --   -0.35283  -0.34927  -0.34316  -0.33485  -0.31748
  Beta  occ. eigenvalues --   -0.30700  -0.26832  -0.26751
  Beta virt. eigenvalues --   -0.09630  -0.03971  -0.02000  -0.00793   0.02341
  Beta virt. eigenvalues --    0.04989   0.06371   0.07073   0.07488   0.09381
  Beta virt. eigenvalues --    0.09972   0.10256   0.10373   0.10850   0.11379
  Beta virt. eigenvalues --    0.11769   0.11887   0.12380   0.12718   0.13731
  Beta virt. eigenvalues --    0.14831   0.15374   0.15465   0.15952   0.16161
  Beta virt. eigenvalues --    0.16404   0.17470   0.18050   0.18385   0.19757
  Beta virt. eigenvalues --    0.20253   0.20816   0.22033   0.22498   0.23570
  Beta virt. eigenvalues --    0.24416   0.25492   0.26801   0.26862   0.27652
  Beta virt. eigenvalues --    0.27754   0.29099   0.30121   0.30822   0.31430
  Beta virt. eigenvalues --    0.31829   0.32872   0.33277   0.34246   0.34785
  Beta virt. eigenvalues --    0.35497   0.36095   0.36813   0.37257   0.37833
  Beta virt. eigenvalues --    0.38595   0.39284   0.39687   0.40162   0.40343
  Beta virt. eigenvalues --    0.40776   0.41007   0.41389   0.41881   0.42117
  Beta virt. eigenvalues --    0.42679   0.42853   0.43248   0.44021   0.44221
  Beta virt. eigenvalues --    0.44644   0.45311   0.45454   0.46082   0.46966
  Beta virt. eigenvalues --    0.47173   0.48167   0.48320   0.48549   0.48911
  Beta virt. eigenvalues --    0.49226   0.49712   0.50243   0.50633   0.50931
  Beta virt. eigenvalues --    0.51262   0.51886   0.52204   0.53034   0.53669
  Beta virt. eigenvalues --    0.53841   0.54288   0.55609   0.56371   0.56899
  Beta virt. eigenvalues --    0.57056   0.57564   0.58373   0.59103   0.59561
  Beta virt. eigenvalues --    0.59675   0.60511   0.61003   0.61573   0.61961
  Beta virt. eigenvalues --    0.62411   0.62913   0.63277   0.63591   0.64141
  Beta virt. eigenvalues --    0.64993   0.65146   0.65557   0.65836   0.66079
  Beta virt. eigenvalues --    0.66295   0.67167   0.67384   0.67555   0.68138
  Beta virt. eigenvalues --    0.68449   0.68799   0.69151   0.69728   0.70542
  Beta virt. eigenvalues --    0.71198   0.71702   0.72358   0.72600   0.73990
  Beta virt. eigenvalues --    0.74167   0.74501   0.75315   0.76912   0.76966
  Beta virt. eigenvalues --    0.77638   0.79759   0.79801   0.81201   0.81398
  Beta virt. eigenvalues --    0.82444   0.82863   0.83452   0.83754   0.84145
  Beta virt. eigenvalues --    0.84689   0.85344   0.85809   0.86381   0.86665
  Beta virt. eigenvalues --    0.86910   0.88011   0.88383   0.89400   0.89969
  Beta virt. eigenvalues --    0.90834   0.91167   0.91715   0.92444   0.93950
  Beta virt. eigenvalues --    0.94643   0.94895   0.95024   0.96590   0.97298
  Beta virt. eigenvalues --    0.98204   0.98596   0.99314   1.00002   1.00417
  Beta virt. eigenvalues --    1.00845   1.01415   1.01734   1.03062   1.03281
  Beta virt. eigenvalues --    1.03713   1.04955   1.05775   1.06773   1.07066
  Beta virt. eigenvalues --    1.08729   1.09428   1.09782   1.10670   1.11494
  Beta virt. eigenvalues --    1.13212   1.13822   1.15038   1.15990   1.17172
  Beta virt. eigenvalues --    1.17499   1.18323   1.19964   1.20310   1.21285
  Beta virt. eigenvalues --    1.22624   1.23527   1.24324   1.25026   1.26040
  Beta virt. eigenvalues --    1.26500   1.27675   1.28541   1.28983   1.29464
  Beta virt. eigenvalues --    1.31121   1.32155   1.32933   1.33823   1.35658
  Beta virt. eigenvalues --    1.38018   1.41262   1.41390   1.42112   1.43838
  Beta virt. eigenvalues --    1.44920   1.47128   1.48572   1.49069   1.50569
  Beta virt. eigenvalues --    1.51621   1.51919   1.52960   1.54245   1.54947
  Beta virt. eigenvalues --    1.55318   1.56150   1.56826   1.57269   1.57503
  Beta virt. eigenvalues --    1.58773   1.58911   1.59482   1.59833   1.61003
  Beta virt. eigenvalues --    1.61511   1.61630   1.63026   1.63604   1.64303
  Beta virt. eigenvalues --    1.65555   1.67145   1.67396   1.69304   1.69616
  Beta virt. eigenvalues --    1.70497   1.71425   1.72211   1.73051   1.73457
  Beta virt. eigenvalues --    1.73815   1.74407   1.75480   1.76091   1.76801
[...]
   346. RY*(   6) O  28                  0.00000     5.02295   
   347. RY*(   7) O  28                  0.00000     5.10111   
   348. RY*(   8) O  28                  0.00001     4.99538   
   349. RY*(   9) O  28                  0.00000     3.09050   
   350. RY*(  10) O  28                  0.00001     2.87663   
   351. RY*(  11) O  28                  0.00000     2.88697   
   352. RY*(  12) O  28                  0.00000     3.02731   
   353. RY*(  13) O  28                  0.00000     3.20294   
   354. RY*(   1) C  29                  0.00306     1.63302   
   355. RY*(   2) C  29                  0.00228     1.66351   
   356. RY*(   3) C  29                  0.00075     0.71155   
   357. RY*(   4) C  29                  0.00032     1.68782   
   358. RY*(   5) C  29                  0.00024     1.10236   
   359. RY*(   6) C  29                  0.00019     1.62984   
   360. RY*(   7) C  29                  0.00010     2.74353   
   361. RY*(   8) C  29                  0.00006     3.33621   
   362. RY*(   9) C  29                  0.00004     4.84264   
   363. RY*(  10) C  29                  0.00002     3.29191   
   364. RY*(  11) C  29                  0.00002     2.36861   
   365. RY*(  12) C  29                  0.00000     2.77984   
   366. RY*(  13) C  29                  0.00001    19.96029   
   367. RY*(   1) C  30                  0.00264     1.38181   
   368. RY*(   2) C  30                  0.00099     1.38297   
   369. RY*(   3) C  30                  0.00051     0.81157   
   370. RY*(   4) C  30                  0.00035     1.49616   
   371. RY*(   5) C  30                  0.00027     1.38024   
   372. RY*(   6) C  30                  0.00006     3.44817   
   373. RY*(   7) C  30                  0.00004     3.02969   
   374. RY*(   8) C  30                  0.00002     2.83555   
   375. RY*(   9) C  30                  0.00002     1.86120   
   376. RY*(  10) C  30                  0.00001     2.59254   
   377. RY*(  11) C  30                  0.00002     2.63961   
   378. RY*(  12) C  30                  0.00000     2.99519   
   379. RY*(  13) C  30                  0.00000    20.15264   
   380. RY*(   1) C  31                  0.00237     1.43224   
   381. RY*(   2) C  31                  0.00132     1.31424   
   382. RY*(   3) C  31                  0.00071     1.00383   
   383. RY*(   4) C  31                  0.00039     1.21806   
   384. RY*(   5) C  31                  0.00026     1.55925   
   385. RY*(   6) C  31                  0.00011     3.16296   
   386. RY*(   7) C  31                  0.00006     2.69879   
   387. RY*(   8) C  31                  0.00003     1.96488   
   388. RY*(   9) C  31                  0.00004     4.17412   
   389. RY*(  10) C  31                  0.00002     1.95314   
   390. RY*(  11) C  31                  0.00000    21.01893   
   391. RY*(  12) C  31                  0.00000     2.64988   
   392. RY*(  13) C  31                  0.00001     2.35230   
   393. RY*(   1) C  32                  0.00244     1.43666   
   394. RY*(   2) C  32                  0.00109     1.44842   
   395. RY*(   3) C  32                  0.00045     0.73851   
   396. RY*(   4) C  32                  0.00035     1.14467   
   397. RY*(   5) C  32                  0.00024     1.58552   
   398. RY*(   6) C  32                  0.00010     3.34727   
   399. RY*(   7) C  32                  0.00005     4.80167   
   400. RY*(   8) C  32                  0.00003     2.98032   
   401. RY*(   9) C  32                  0.00002     2.08589   
   402. RY*(  10) C  32                  0.00002     1.88788   
   403. RY*(  11) C  32                  0.00002     3.07572   
   404. RY*(  12) C  32                  0.00000     2.92292   
   405. RY*(  13) C  32                  0.00000    18.46108   
   406. RY*(   1) H  33                  0.00075     0.47865   
   407. RY*(   2) H  33                  0.00012     2.29578   
   408. RY*(   1) C  34                  0.00305     1.52972   
   409. RY*(   2) C  34                  0.00195     1.33542   
   410. RY*(   3) C  34                  0.00172     1.30904   
   411. RY*(   4) C  34                  0.00087     2.61765   
   412. RY*(   5) C  34                  0.00077     1.21035   
   413. RY*(   6) C  34                  0.00029     1.71448   
   414. RY*(   7) C  34                  0.00025     1.71571   
   415. RY*(   8) C  34                  0.00008     2.98442   
   416. RY*(   9) C  34                  0.00005     2.45087   
   417. RY*(  10) C  34                  0.00002     2.66691   
   418. RY*(  11) C  34                  0.00002     2.68510   
   419. RY*(  12) C  34                  0.00001     2.76137   
   420. RY*(  13) C  34                  0.00001    21.53735   
   421. RY*(   1) H  35                  0.00115     0.49456   
   422. RY*(   2) H  35                  0.00015     2.28925   
   423. RY*(   1) C  36                  0.00322     1.34533   
   424. RY*(   2) C  36                  0.00166     1.60973   
   425. RY*(   3) C  36                  0.00136     1.51883   
   426. RY*(   4) C  36                  0.00077     2.33409   
   427. RY*(   5) C  36                  0.00042     2.02621   
   428. RY*(   6) C  36                  0.00035     1.69466   
   429. RY*(   7) C  36                  0.00026     0.64042   
   430. RY*(   8) C  36                  0.00012     3.85253   
   431. RY*(   9) C  36                  0.00004     2.31329   
   432. RY*(  10) C  36                  0.00002     4.05188   
   433. RY*(  11) C  36                  0.00003     3.68340   
   434. RY*(  12) C  36                  0.00000     3.25261   
   435. RY*(  13) C  36                  0.00001    17.33917   
   436. RY*(   1) H  37                  0.00106     0.42372   
   437. RY*(   2) H  37                  0.00010     2.27588   
   438. RY*(   1) O  38                  0.00103     0.98465   
   439. RY*(   2) O  38                  0.00064     1.42723   
   440. RY*(   3) O  38                  0.00011     1.85128   
   441. RY*(   4) O  38                  0.00006     1.38348   
   442. RY*(   5) O  38                  0.00000    49.72246   
   443. RY*(   6) O  38                  0.00000     4.98277   
   444. RY*(   7) O  38                  0.00001     5.10526   
   445. RY*(   8) O  38                  0.00000     5.08811   
   446. RY*(   9) O  38                  0.00001     3.31460   
   447. RY*(  10) O  38                  0.00000     2.79582   
   448. RY*(  11) O  38                  0.00000     2.89530   
   449. RY*(  12) O  38                  0.00000     3.05447   
   450. RY*(  13) O  38                  0.00000     3.17801   
   451. RY*(   1) H  39                  0.00038     1.19082   
   452. RY*(   2) H  39                  0.00019     1.47636   
   453. RY*(   1) O  40                  0.00186     1.13948   
   454. RY*(   2) O  40                  0.00117     1.20033   
   455. RY*(   3) O  40                  0.00021     1.77418   
   456. RY*(   4) O  40                  0.00010     2.20110   
   457. RY*(   5) O  40                  0.00006     3.06621   
   458. RY*(   6) O  40                  0.00003     2.97829   
   459. RY*(   7) O  40                  0.00000     5.22636   
   460. RY*(   8) O  40                  0.00001     5.16576   
   461. RY*(   9) O  40                  0.00000    49.77114   
   462. RY*(  10) O  40                  0.00000     3.17977   
   463. RY*(  11) O  40                  0.00001     3.09626   
   464. RY*(  12) O  40                  0.00000     3.12093   
   465. RY*(  13) O  40                  0.00000     5.05590   
   466. RY*(   1) C  41                  0.00119     1.41317   
   467. RY*(   2) C  41                  0.00111     1.41678   
   468. RY*(   3) C  41                  0.00071     0.94438   
   469. RY*(   4) C  41                  0.00025     1.03964   
   470. RY*(   5) C  41                  0.00012     1.17849   
   471. RY*(   6) C  41                  0.00004     2.22180   
   472. RY*(   7) C  41                  0.00000     2.19381   
   473. RY*(   8) C  41                  0.00001     2.73582   
   474. RY*(   9) C  41                  0.00000     1.56848   
   475. RY*(  10) C  41                  0.00000    23.17279   
   476. RY*(  11) C  41                  0.00000     1.70056   
   477. RY*(  12) C  41                  0.00000     2.65429   
   478. RY*(  13) C  41                  0.00000     1.66267   
   479. RY*(   1) H  42                  0.00083     0.44389   
   480. RY*(   2) H  42                  0.00006     2.13904   
   481. RY*(   1) H  43                  0.00042     0.43210   
   482. RY*(   2) H  43                  0.00005     2.05159   
   483. RY*(   1) H  44                  0.00084     0.52405   
   484. RY*(   2) H  44                  0.00007     2.07585   
   485. RY*(   1) C  45                  0.00263     1.23661   
   486. RY*(   2) C  45                  0.00094     1.38685   
   487. RY*(   3) C  45                  0.00060     0.71640   
   488. RY*(   4) C  45                  0.00038     0.85367   
   489. RY*(   5) C  45                  0.00009     3.08638   
   490. RY*(   6) C  45                  0.00010     2.11686   
   491. RY*(   7) C  45                  0.00005     2.28822   
   492. RY*(   8) C  45                  0.00005     2.19571   
   493. RY*(   9) C  45                  0.00003     3.39524   
   494. RY*(  10) C  45                  0.00002     2.09570   
   495. RY*(  11) C  45                  0.00001     1.66130   
   496. RY*(  12) C  45                  0.00000    22.38037   
   497. RY*(  13) C  45                  0.00001     2.91565   
   498. RY*(   1) H  46                  0.00086     0.87118   
   499. RY*(   2) H  46                  0.00007     1.82232   
   500. RY*(   1) H  47                  0.00086     0.87182   
   501. RY*(   2) H  47                  0.00007     1.82317   
   502. RY*(   1) O  48                  0.00171     0.99131   
   503. RY*(   2) O  48                  0.00148     1.06356   
   504. RY*(   3) O  48                  0.00080     1.81632   
   505. RY*(   4) O  48                  0.00003     2.40223   
   506. RY*(   5) O  48                  0.00000    49.79982   
   507. RY*(   6) O  48                  0.00000     4.96481   
   508. RY*(   7) O  48                  0.00001     4.93705   
   509. RY*(   8) O  48                  0.00001     4.78853   
   510. RY*(   9) O  48                  0.00001     3.14423   
   511. RY*(  10) O  48                  0.00000     2.77468   
   512. RY*(  11) O  48                  0.00000     2.70329   
   513. RY*(  12) O  48                  0.00000     2.98121   
   514. RY*(  13) O  48                  0.00000     3.03746   
   515. RY*(   1) O  49                  0.00169     0.96894   
   516. RY*(   2) O  49                  0.00148     1.04814   
   517. RY*(   3) O  49                  0.00082     1.93631   
   518. RY*(   4) O  49                  0.00004     1.41759   
   519. RY*(   5) O  49                  0.00002     5.53680   
   520. RY*(   6) O  49                  0.00000     4.92818   
   521. RY*(   7) O  49                  0.00000     4.89531   
   522. RY*(   8) O  49                  0.00000    49.37893   
   523. RY*(   9) O  49                  0.00000     2.89466   
   524. RY*(  10) O  49                  0.00000     3.15163   
   525. RY*(  11) O  49                  0.00000     3.19244   
   526. RY*(  12) O  49                  0.00001     2.93605   
   527. RY*(  13) O  49                  0.00001     3.17559   
   528. RY*(   1) N  50                  0.00862     1.05302   
   529. RY*(   2) N  50                  0.00491     1.23428   
   530. RY*(   3) N  50                  0.00339     2.20127   
   531. RY*(   4) N  50                  0.00202     2.11712   
   532. RY*(   5) N  50                  0.00150     1.00020   
   533. RY*(   6) N  50                  0.00119     2.94642   
   534. RY*(   7) N  50                  0.00082     1.76504   
   535. RY*(   8) N  50                  0.00009     2.04717   
   536. RY*(   9) N  50                  0.00002     4.04319   
   537. RY*(  10) N  50                  0.00001     3.93983   
   538. RY*(  11) N  50                  0.00001     3.82628   
   539. RY*(  12) N  50                  0.00000    33.34086   
   540. RY*(  13) N  50                  0.00001     4.18706   
   541. BD*(   1) C   1 - H   2          0.00975     0.51516   
   542. BD*(   1) C   1 - C   3          0.00746     0.69175   
   543. BD*(   2) C   1 - C   3          0.04368     0.08555   
   544. BD*(   1) C   1 - C   7          0.01222     0.58403   
   545. BD*(   1) C   3 - H   4          0.00833     0.51927   
   546. BD*(   1) C   3 - C   5          0.02587     0.53315   
   547. BD*(   1) C   5 - O   6          0.00630     0.67941   
   548. BD*(   2) C   5 - O   6          0.05907     0.07496   
   549. BD*(   1) C   5 - C  45          0.03093     0.43425   
   550. BD*(   1) C   7 - C   8          0.01091     0.64559   
   551. BD*(   2) C   7 - C   8          0.08191     0.07744   
   552. BD*(   1) C   7 - C   9          0.01572     0.47381   
   553. BD*(   1) C   8 - C  10          0.00685     0.62545   
   554. BD*(   1) C   8 - H  11          0.00697     0.51384   
   555. BD*(   1) C   9 - C  12          0.01379     0.46969   
   556. BD*(   1) C   9 - H  13          0.00639     0.47079   
   557. BD*(   1) C   9 - N  50          0.06285     0.22431   
   558. BD*(   1) C  10 - C  14          0.01284     0.58671   
   559. BD*(   1) C  10 - H  15          0.00548     0.51065   
   560. BD*(   1) C  12 - C  14          0.01908     0.63300   
   561. BD*(   1) C  12 - O  18          0.01229     0.45807   
   562. BD*(   1) C  14 - O  16          0.01108     0.41318   
   563. BD*(   1) O  16 - H  17          0.00347     0.46475   
   564. BD*(   1) O  18 - C  19          0.00549     0.34406   
   565. BD*(   1) C  19 - H  20          0.00660     0.47722   
   566. BD*(   1) C  19 - H  21          0.00481     0.48193   
   567. BD*(   1) C  19 - H  22          0.00537     0.46632   
   568. BD*(   1) C  23 - H  24          0.00922     0.51972   
   569. BD*(   1) C  23 - C  25          0.00723     0.71223   
   570. BD*(   2) C  23 - C  25          0.05376     0.08643   
   571. BD*(   1) C  23 - C  29          0.01311     0.55656   
   572. BD*(   1) C  25 - H  26          0.00814     0.51594   
   573. BD*(   1) C  25 - C  27          0.02620     0.52673   
   574. BD*(   1) C  27 - O  28          0.00632     0.67984   
   575. BD*(   2) C  27 - O  28          0.07658     0.07014   
   576. BD*(   1) C  27 - C  45          0.03068     0.43526   
   577. BD*(   1) C  29 - C  30          0.01162     0.63122   
   578. BD*(   2) C  29 - C  30          0.19320     0.06232  583(v),586(v),570(v),369(g)
                                                    356(g),395(v),357(g),300(v)
   579. BD*(   1) C  29 - C  31          0.01323     0.62395   
   580. BD*(   1) C  30 - C  32          0.00709     0.63924   
   581. BD*(   1) C  30 - H  33          0.00670     0.52454   
   582. BD*(   1) C  31 - C  34          0.01273     0.64648   
   583. BD*(   2) C  31 - C  34          0.15876     0.06549  578(v),586(v),384(g),592(v)
                                                    412(g),413(g)
   584. BD*(   1) C  31 - H  35          0.00642     0.51869   
   585. BD*(   1) C  32 - C  36          0.01308     0.62052   
   586. BD*(   2) C  32 - C  36          0.18573     0.05305  578(v),583(v),429(g),395(g)
                                                    397(g),438(v)
   587. BD*(   1) C  32 - H  37          0.00661     0.50915   
   588. BD*(   1) C  34 - C  36          0.02294     0.59067   
   589. BD*(   1) C  34 - O  40          0.01352     0.44165   
   590. BD*(   1) C  36 - O  38          0.01051     0.43027   
   591. BD*(   1) O  38 - H  39          0.00352     0.46615   
   592. BD*(   1) O  40 - C  41          0.00440     0.36629   
   593. BD*(   1) C  41 - H  42          0.00812     0.46804   
   594. BD*(   1) C  41 - H  43          0.00442     0.48479   
   595. BD*(   1) C  41 - H  44          0.00846     0.47662   
   596. BD*(   1) C  45 - H  46          0.00440     0.48107   
   597. BD*(   1) C  45 - H  47          0.00453     0.47982   
   598. BD (   1) O  48 - O  49          0.45406    -0.27381  535(v)
   599. BD*(   1) O  48 - N  50          0.02590     0.53992   
   600. BD*(   1) O  49 - N  50          0.02579     0.54396   
       -------------------------------
              Total Lewis  104.60586  ( 96.8573%)
        Valence non-Lewis    3.17591  (  2.9407%)
        Rydberg non-Lewis    0.21823  (  0.2021%)
       -------------------------------
            Total unit  1  108.00000  (100.0000%)
           Charge unit  1    0.50000
 1\1\GINC-N02\SP\UM062X\6-311G(d)\C21H20N1O8(2)\UNKNOWN\02-Dec-2024\0\\
 # pop=nbo M062X/6-311g(d) scrf=(smd,solvent=generic,read) temperature=
 298.15 Geom=Check Guess=Read\\Reagente 1\\0,2\C,0,2.1101179359,1.13086
 52174,0.92704883\H,0,1.7117982516,2.1305732392,0.7748522286\C,0,1.3817
 934093,0.2341708894,1.6314161877\H,0,1.7229377153,-0.7821454584,1.7990
 417969\C,0,0.0751370748,0.5306110273,2.2330658671\O,0,-0.520930232,-0.
 3233582128,2.8607126384\C,0,3.398266202,0.9082568769,0.334421402\C,0,4
 .0612126146,1.9366356862,-0.3024078883\C,0,4.0551227286,-0.4360805272,
 0.3975976825\C,0,5.361713981,1.7984315607,-0.7908174117\H,0,3.57126677
 29,2.9005862652,-0.3883210106\C,0,5.4669941188,-0.4960151101,-0.074503
 2592\H,0,3.9552523334,-0.9179285044,1.3729743085\C,0,6.0800776147,0.59
 34218046,-0.6413652167\H,0,5.8525491297,2.6441011525,-1.2614033407\O,0
 ,7.3789777599,0.4929679915,-1.029224264\H,0,7.6695175472,1.3282103983,
 -1.4165507741\O,0,5.9796675538,-1.7236416719,0.0909721739\C,0,6.913438
 7448,-2.2368458428,-0.869561449\H,0,7.9141111995,-1.8523674191,-0.6861
 391392\H,0,6.895105417,-3.3163904475,-0.7381555736\H,0,6.5913033259,-1
 .9798166381,-1.8796587722\C,0,-3.0056416199,0.7041517536,0.9428006474\
 H,0,-2.6737091844,0.4698090602,1.9514228873\C,0,-2.2708814889,1.541483
 3,0.1936497232\H,0,-2.5474543963,1.794812883,-0.8253145309\C,0,-1.0314
 712923,2.1901071727,0.6505618286\O,0,-0.4170290731,2.9302565469,-0.091
 7432105\C,0,-4.240265405,0.033292954,0.5391464337\C,0,-4.8579487387,-0
 .8379957726,1.4396875528\C,0,-4.8427936523,0.2307286214,-0.7139786998\
 C,0,-6.0314142926,-1.5016365543,1.104758728\H,0,-4.4100028432,-1.00553
 68537,2.4133614585\C,0,-6.0070973692,-0.4251904646,-1.0595748424\H,0,-
 4.4083475928,0.8956113747,-1.4523927569\C,0,-6.6128579765,-1.3059353,-
 0.1429391855\H,0,-6.4970660496,-2.1833391175,1.810250631\O,0,-7.743649
 9166,-1.9305125068,-0.5416436636\H,0,-8.0633951111,-2.5103255046,0.161
 6606288\O,0,-6.548915149,-0.2453283219,-2.299113379\C,0,-7.7337600852,
 0.5500544061,-2.2966552049\H,0,-7.5196652893,1.5505460527,-1.909180179
 9\H,0,-8.0588719082,0.624139182,-3.3329654058\H,0,-8.5206925001,0.0838
 680688,-1.700806028\C,0,-0.5259271076,1.9262969137,2.0681376083\H,0,-1
 .3412742145,2.0119106641,2.7859153884\H,0,0.2186604429,2.6902184366,2.
 2923957494\O,0,2.5746505159,-2.2500003798,-0.012422687\O,0,3.405978132
 9,-1.2600650812,-1.7280267825\N,0,3.2683669661,-1.4136988102,-0.538487
 7251\\Version=ES64L-G16RevA.03\State=2-A\HF=-1468.4090271\S2=0.794429\
 S2-1=0.\S2A=0.751144\RMSD=3.172e-09\Dipole=1.0088204,1.2859346,0.52888
 47\Quadrupole=48.0883345,-19.9254263,-28.1629082,17.3532072,-18.071746
 6,-4.6723286\PG=C01 [X(C21H20N1O8)]\\@


 THOSE WITH THE GOLD MAKE THE RULES.

             -- PETER'S GOLDEN RULE
 Job cpu time:       0 days  0 hours  1 minutes 25.9 seconds.
 Elapsed time:       0 days  0 hours  1 minutes 26.7 seconds.
 File lengths (MBytes):  RWF=    612 Int=      0 D2E=      0 Chk=     49 Scr=      1
 Normal termination of Gaussian 16 at Mon Dec  2 12:43:24 2024.
