 Entering Gaussian System, Link 0=g16
 Initial command:
 /sw/cluster/pub/apps//g16/l1.exe "/data/natrosa/25934/Gau-415604.inp" -scrdir="/data/natrosa/25934/"
 Entering Link 1 = /sw/cluster/pub/apps//g16/l1.exe PID=    415605.
  
 Copyright (c) 1988,1990,1992,1993,1995,1998,2003,2009,2016,
            Gaussian, Inc.  All Rights Reserved.
  
 This is part of the Gaussian(R) 16 program.  It is based on
 the Gaussian(R) 09 system (copyright 2009, Gaussian, Inc.),
 the Gaussian(R) 03 system (copyright 2003, Gaussian, Inc.),
 the Gaussian(R) 98 system (copyright 1998, Gaussian, Inc.),
 the Gaussian(R) 94 system (copyright 1995, Gaussian, Inc.),
 the Gaussian 92(TM) system (copyright 1992, Gaussian, Inc.),
 the Gaussian 90(TM) system (copyright 1990, Gaussian, Inc.),
 the Gaussian 88(TM) system (copyright 1988, Gaussian, Inc.),
 the Gaussian 86(TM) system (copyright 1986, Carnegie Mellon
 University), and the Gaussian 82(TM) system (copyright 1983,
 Carnegie Mellon University). Gaussian is a federally registered
 trademark of Gaussian, Inc.
  
 This software contains proprietary and confidential information,
 including trade secrets, belonging to Gaussian, Inc.
  
 This software is provided under written license and may be
 used, copied, transmitted, or stored only in accord with that
 written license.
  
 The following legend is applicable only to US Government
 contracts under FAR:
  
                    RESTRICTED RIGHTS LEGEND
  
 Use, reproduction and disclosure by the US Government is
 subject to restrictions as set forth in subparagraphs (a)
 and (c) of the Commercial Computer Software - Restricted
 Rights clause in FAR 52.227-19.
  
 Gaussian, Inc.
 340 Quinnipiac St., Bldg. 40, Wallingford CT 06492
  
  
 ---------------------------------------------------------------
 Warning -- This program may not be used in any manner that
 competes with the business of Gaussian, Inc. or will provide
 assistance to any competitor of Gaussian, Inc.  The licensee
 of this program is prohibited from giving any competitor of
 Gaussian, Inc. access to this program.  By using this program,
 the user acknowledges that Gaussian, Inc. is engaged in the
 business of creating and licensing software in the field of
 computational chemistry and represents and warrants to the
 licensee that it is not a competitor of Gaussian, Inc. and that
 it will not use this program in any manner prohibited above.
 ---------------------------------------------------------------
  

 Cite this work as:
 Gaussian 16, Revision A.03,
 M. J. Frisch, G. W. Trucks, H. B. Schlegel, G. E. Scuseria, 
 M. A. Robb, J. R. Cheeseman, G. Scalmani, V. Barone, 
 G. A. Petersson, H. Nakatsuji, X. Li, M. Caricato, A. V. Marenich, 
 J. Bloino, B. G. Janesko, R. Gomperts, B. Mennucci, H. P. Hratchian, 
 J. V. Ortiz, A. F. Izmaylov, J. L. Sonnenberg, D. Williams-Young, 
 F. Ding, F. Lipparini, F. Egidi, J. Goings, B. Peng, A. Petrone, 
 T. Henderson, D. Ranasinghe, V. G. Zakrzewski, J. Gao, N. Rega, 
 G. Zheng, W. Liang, M. Hada, M. Ehara, K. Toyota, R. Fukuda, 
 J. Hasegawa, M. Ishida, T. Nakajima, Y. Honda, O. Kitao, H. Nakai, 
 T. Vreven, K. Throssell, J. A. Montgomery, Jr., J. E. Peralta, 
 F. Ogliaro, M. J. Bearpark, J. J. Heyd, E. N. Brothers, K. N. Kudin, 
 V. N. Staroverov, T. A. Keith, R. Kobayashi, J. Normand, 
 K. Raghavachari, A. P. Rendell, J. C. Burant, S. S. Iyengar, 
 J. Tomasi, M. Cossi, J. M. Millam, M. Klene, C. Adamo, R. Cammi, 
 J. W. Ochterski, R. L. Martin, K. Morokuma, O. Farkas, 
 J. B. Foresman, and D. J. Fox, Gaussian, Inc., Wallingford CT, 2016.
 
 ******************************************
 Gaussian 16:  ES64L-G16RevA.03 25-Dec-2016
                 4-Dec-2024 
 ******************************************
 %chk=CURCUMIN-Prod-1-M062X-6-311G-D-298-NBO.chk
 ----------------------------------------------------------------------
 # pop=nbo M062X/6-311g(d) scrf=(smd,solvent=generic,read) temperature=
 363.15
 ----------------------------------------------------------------------
 1/38=1,40=2,112=363150,172=1/1;
 2/12=2,17=6,18=5,40=1/2;
 3/5=4,6=6,7=1,11=2,25=1,30=1,70=32203,72=-2,74=-55/1,2,3;
 4//1;
 5/5=2,38=5/2;
 6/7=2,8=2,9=2,10=2,28=1,40=1/1,7;
 99/5=1,9=1/99;
 ----------
 Reagente 1
 ----------
 Symbolic Z-matrix:
 Charge =  0 Multiplicity = 2
 C                     2.17116   1.30469   0.44385 
 H                     1.80327   2.24728   0.04778 
 C                     1.45992   0.66943   1.38393 
 H                     1.7896   -0.25275   1.853 
 C                     0.16899   1.16325   1.90897 
 O                    -0.41554   0.53302   2.76396 
 C                     3.46358   0.89345  -0.11472 
 C                     4.32338   1.87768  -0.60856 
 C                     3.9457   -0.41888  -0.16625 
 C                     5.58522   1.57152  -1.0986 
 H                     3.99454   2.91057  -0.5962 
 C                     5.18955  -0.76864  -0.66127 
 H                     4.96644  -1.04193   5.35011 
 C                     6.03009   0.25466  -1.12948 
 H                     6.22962   2.36081  -1.47292 
 O                     7.22912  -0.12372  -1.61341 
 H                     7.72209   0.64755  -1.92349 
 O                     5.53736  -2.07451  -0.75174 
 C                     6.51187  -2.48575   0.21762 
 H                     6.13094  -2.3137    1.22605 
 H                     6.66439  -3.55083   0.05799 
 H                     7.45108  -1.95128   0.06915 
 C                    -2.91099   1.00724   0.65674 
 H                    -2.57032   1.06249   1.68784 
 C                    -2.18504   1.60167  -0.30381 
 H                    -2.47447   1.56208  -1.34959 
 C                    -0.93796   2.34194  -0.05961 
 O                    -0.33207   2.8499   -0.98167 
 C                    -4.14647   0.2502    0.46632 
 C                    -4.7506   -0.34324   1.57735 
 C                    -4.75884   0.09275  -0.78766 
 C                    -5.92065  -1.08053   1.4474 
 H                    -4.29435  -0.23431   2.55549 
 C                    -5.92007  -0.6397   -0.92997 
 H                    -4.33296   0.5315   -1.68332 
 C                    -6.51197  -1.23834   0.19906 
 H                    -6.37586  -1.54664   2.31611 
 O                    -7.63996  -1.95541  -0.00195 
 H                    -7.94977  -2.32207   0.83628 
 O                    -6.47054  -0.81196  -2.16662 
 C                    -7.66664  -0.06114  -2.37264 
 H                    -7.46653   1.00941  -2.26868 
 H                    -7.99279  -0.27229  -3.38954 
 H                    -8.4466   -0.36122  -1.67041 
 C                    -0.40834   2.46813   1.36979 
 H                    -1.20631   2.7714    2.04735 
 H                     0.3571    3.24453   1.36107 
 O                     3.4412   -2.15868   1.24697 
 O                     2.13637  -1.80582  -0.42636 
 N                     3.10313  -1.55507   0.25167 
 
                          Input orientation:                          
 ---------------------------------------------------------------------
 Center     Atomic      Atomic             Coordinates (Angstroms)
 Number     Number       Type             X           Y           Z
 ---------------------------------------------------------------------
      1          6           0        2.171164    1.304693    0.443851
      2          1           0        1.803269    2.247282    0.047782
      3          6           0        1.459923    0.669425    1.383926
      4          1           0        1.789602   -0.252754    1.852999
      5          6           0        0.168990    1.163253    1.908970
      6          8           0       -0.415538    0.533023    2.763964
      7          6           0        3.463577    0.893451   -0.114721
      8          6           0        4.323383    1.877681   -0.608559
      9          6           0        3.945704   -0.418877   -0.166253
     10          6           0        5.585216    1.571517   -1.098596
     11          1           0        3.994543    2.910568   -0.596195
     12          6           0        5.189547   -0.768635   -0.661268
     13          1           0        4.966436   -1.041929    5.350106
     14          6           0        6.030094    0.254658   -1.129476
     15          1           0        6.229624    2.360814   -1.472924
     16          8           0        7.229117   -0.123724   -1.613413
     17          1           0        7.722093    0.647547   -1.923485
     18          8           0        5.537363   -2.074514   -0.751736
     19          6           0        6.511875   -2.485750    0.217619
     20          1           0        6.130943   -2.313695    1.226052
     21          1           0        6.664391   -3.550830    0.057991
     22          1           0        7.451084   -1.951277    0.069150
     23          6           0       -2.910993    1.007235    0.656737
     24          1           0       -2.570316    1.062485    1.687841
     25          6           0       -2.185039    1.601672   -0.303806
     26          1           0       -2.474468    1.562077   -1.349590
     27          6           0       -0.937961    2.341944   -0.059606
     28          8           0       -0.332066    2.849897   -0.981669
     29          6           0       -4.146473    0.250195    0.466315
     30          6           0       -4.750602   -0.343236    1.577347
     31          6           0       -4.758841    0.092748   -0.787658
     32          6           0       -5.920652   -1.080532    1.447400
     33          1           0       -4.294349   -0.234305    2.555491
     34          6           0       -5.920067   -0.639701   -0.929967
     35          1           0       -4.332956    0.531498   -1.683318
     36          6           0       -6.511969   -1.238343    0.199059
     37          1           0       -6.375861   -1.546638    2.316114
     38          8           0       -7.639962   -1.955412   -0.001952
     39          1           0       -7.949767   -2.322066    0.836284
     40          8           0       -6.470536   -0.811955   -2.166622
     41          6           0       -7.666641   -0.061135   -2.372640
     42          1           0       -7.466526    1.009408   -2.268678
     43          1           0       -7.992785   -0.272289   -3.389543
     44          1           0       -8.446602   -0.361224   -1.670414
     45          6           0       -0.408344    2.468129    1.369789
     46          1           0       -1.206308    2.771397    2.047349
     47          1           0        0.357100    3.244531    1.361072
     48          8           0        3.441202   -2.158680    1.246968
     49          8           0        2.136373   -1.805815   -0.426356
     50          7           0        3.103126   -1.555072    0.251665
 ---------------------------------------------------------------------
                    Distance matrix (angstroms):
                    1          2          3          4          5
     1  C    0.000000
     2  H    1.086596   0.000000
     3  C    1.339093   2.095901   0.000000
     4  H    2.134696   3.083695   1.085878   0.000000
     5  C    2.485011   2.703703   1.478528   2.152810   0.000000
     6  O    3.559414   3.903772   2.332480   2.511960   1.212385
     7  C    1.466784   2.148462   2.512123   2.826287   3.875877
     8  C    2.463317   2.630278   3.691786   4.125296   4.909923
     9  C    2.547923   3.426987   3.125150   2.958674   4.590561
    10  C    3.755807   4.009235   4.898441   5.142622   6.208674
    11  H    2.642961   2.378305   3.920191   4.568033   4.895285
    12  C    3.824998   4.589704   4.490092   4.259965   5.961905
    13  H    6.114860   6.995654   5.563717   4.790076   6.302359
    14  C    4.297589   4.818977   5.232178   5.209069   6.664101
    15  H    4.610913   4.681672   5.811406   6.132397   7.042914
    16  O    5.644076   6.149883   6.549559   6.451433   7.994303
    17  H    6.070332   6.440305   7.081964   7.089910   8.485460
    18  O    4.917292   5.767201   5.358710   4.914180   6.810427
    19  C    5.767184   6.678428   6.069400   5.473628   7.510531
    20  H    5.420740   6.396842   5.544579   4.846420   6.935447
    21  H    6.626770   7.566288   6.830457   6.153286   8.236440
    22  H    6.214443   7.037483   6.670137   6.174097   8.131059
    23  C    5.095304   4.912516   4.443853   5.011408   3.328472
    24  H    4.907933   4.818899   4.060750   4.556974   2.750064
    25  C    4.429864   4.055493   4.123502   4.887584   3.260374
    26  H    4.986439   4.552053   4.873230   5.633159   4.214872
    27  C    3.316024   2.744965   3.260514   4.222572   2.547537
    28  O    3.268933   2.445929   3.682624   4.707787   3.384024
    29  C    6.405077   6.289909   5.696441   6.116603   4.640921
    30  C    7.204952   7.211351   6.295515   6.546636   5.155761
    31  C    7.142156   6.957102   6.612213   7.069268   5.718505
    32  C    8.495522   8.525974   7.585464   7.765162   6.506255
    33  H    6.973550   7.044702   5.941459   6.124402   4.721499
    34  C    8.434220   8.303047   7.844244   8.205707   6.956064
    35  H    6.886672   6.602566   6.556253   7.113811   5.794063
    36  C    9.051174   9.017519   8.282183   8.521912   7.302511
    37  H    9.202559   9.297168   8.196305   8.280302   7.095375
    38  O   10.348199  10.336330   9.571747   9.759947   8.623075
    39  H   10.758282  10.799185   9.888943  10.008550   8.900130
    40  O    9.272203   9.094964   8.814367   9.203257   8.037114
    41  C   10.323784  10.043228   9.896448  10.359212   9.012681
    42  H   10.016490   9.634699   9.650834  10.210641   8.705028
    43  H   10.976686  10.682983  10.631393  11.098636   9.836137
    44  H   10.953646  10.715239  10.417796  10.826176   9.453277
    45  C    2.977382   2.586060   2.593445   3.530958   1.525363
    46  H    4.016185   3.651098   3.459365   4.261307   2.120547
    47  H    2.809821   2.193317   2.801412   3.811175   2.160392
    48  O    3.775307   4.851121   3.455778   2.593764   4.709656
    49  O    3.230129   4.094308   3.140305   2.779876   4.259074
    50  N    3.013925   4.023567   2.988397   2.446558   4.329562
                    6          7          8          9         10
     6  O    0.000000
     7  C    4.843993   0.000000
     8  C    5.969873   1.397087   0.000000
     9  C    5.339730   1.399038   2.369062   0.000000
    10  C    7.211580   2.434982   1.387838   2.742067   0.000000
    11  H    6.032595   2.140678   1.084041   3.357445   2.139090
    12  C    6.696529   2.457685   2.784961   1.383660   2.413322
    13  H    6.175293   5.989041   6.666583   5.644493   6.985610
    14  C    7.535419   2.832807   2.412140   2.392933   1.390319
    15  H    8.090131   3.413046   2.148092   3.827579   1.085529
    16  O    8.833657   4.178518   3.668602   3.600304   2.416876
    17  H    9.391823   4.633255   3.846231   4.299563   2.469900
    18  O    7.388939   3.676302   4.136918   2.370085   3.662805
    19  C    7.974078   4.563066   4.950919   3.317311   4.364921
    20  H    7.302424   4.381586   4.919421   3.210003   4.560338
    21  H    8.609619   5.479660   5.949230   4.153393   5.361040
    22  H    8.678566   4.901683   4.990263   3.832930   4.153934
    23  C    3.300391   6.422090   7.395596   7.051624   8.693974
    24  H    2.466057   6.299656   7.311709   6.934740   8.633426
    25  C    3.699237   5.695980   6.521396   6.456590   7.810855
    26  H    4.713753   6.101831   6.845401   6.822248   8.063597
    27  C    3.393769   4.634081   5.310238   5.611033   6.650180
    28  O    4.405070   4.357314   4.770495   5.445099   6.054928
    29  C    4.390792   7.659259   8.691520   8.144392   9.944879
    30  C    4.579156   8.477336   9.594158   8.869701  10.846939
    31  C    5.627801   8.288675   9.257692   8.741682  10.453849
    32  C    5.885846   9.715996  10.859017  10.019314  12.078926
    33  H    3.959473   8.281744   9.420032   8.679887  10.687336
    34  C    6.732031   9.542953  10.553141   9.897750  11.717058
    35  H    5.926591   7.960994   8.826070   8.470001   9.989678
    36  C    6.847112  10.205612  11.303394  10.496090  12.486837
    37  H    6.328587  10.424852  11.608337  10.675612  12.823825
    38  O    8.126186  11.463739  12.577050  11.688267  13.731249
    39  H    8.284449  11.895730  13.052037  12.088401  14.216171
    40  O    7.923550  10.286171  11.232559  10.613861  12.335428
    41  C    8.905965  11.396981  12.273209  11.825510  13.412698
    42  H    8.675878  11.140921  11.937833  11.691843  13.116136
    43  H    9.794327  11.972119  12.807976  12.366835  13.892810
    44  H    9.217449  12.076703  13.008180  12.483392  14.175838
    45  C    2.385039   4.435668   5.162531   5.445362   6.543669
    46  H    2.479752   5.478052   6.199198   6.451442   7.580335
    47  H    3.149183   4.166022   4.634558   5.350828   6.015159
    48  O    4.941759   3.342185   4.529176   2.297527   4.900289
    49  O    4.707500   3.024008   4.287698   2.294543   4.873684
    50  N    4.801331   2.501885   3.743368   1.474969   4.214206
                   11         12         13         14         15
    11  H    0.000000
    12  C    3.868954   0.000000
    13  H    7.205921   6.021718   0.000000
    14  C    3.388468   1.404588   6.693093   0.000000
    15  H    2.463021   3.396174   7.728392   2.143283   0.000000
    16  O    4.550179   2.341439   7.379256   1.347228   2.681726
    17  H    4.558244   3.164262   7.959466   1.909888   2.316409
    18  O    5.220683   1.354430   6.214875   2.410501   4.546589
    19  C    6.009950   2.338691   5.551164   3.091377   5.140699
    20  H    5.931080   2.614462   4.470043   3.486419   5.398634
    21  H    7.021803   3.230032   6.097878   4.036601   6.122112
    22  H    6.002324   2.654563   5.906681   2.884799   4.739629
    23  C    7.271791   8.396999   9.395780   9.148769   9.482537
    24  H    7.192330   8.311846   8.639640   9.086083   9.440076
    25  C    6.323443   7.754396   9.492046   8.365679   8.529343
    26  H    6.650875   8.040095  10.345715   8.607286   8.741534
    27  C    4.994082   6.898120   8.693531   7.352222   7.305621
    28  O    4.344170   6.609436   9.127530   6.872714   6.598205
    29  C    8.630333   9.458897  10.419506  10.300926  10.764699
    30  C    9.580662  10.197986  10.447139  11.131387  11.712446
    31  C    9.197744   9.986410  11.555979  10.795563  11.241000
    32  C   10.881923  11.312837  11.565522  12.298104  12.961495
    33  H    9.408989  10.028825   9.706919  10.973249  11.563597
    34  C   10.536380  11.113611  12.574460  11.985242  12.526487
    35  H    8.728634   9.665040  11.765348  10.381531  10.721882
    36  C   11.323987  11.742498  12.582752  12.700291  13.345323
    37  H   11.657337  11.967822  11.751916  13.000941  13.730377
    38  O   12.625078  12.901141  13.725897  13.893385  14.599965
    39  H   13.118651  13.315306  13.741966  14.350618  15.110160
    40  O   11.217901  11.756934  13.687893  12.588848  13.108842
    41  C   12.164292  12.988877  14.839050  13.756661  14.134409
    42  H   11.737449  12.881048  14.725230  13.565625  13.785646
    43  H   12.713355  13.470847  15.649767  14.213610  14.590530
    44  H   12.908937  13.679507  15.154559  14.499885  14.927830
    45  C    4.842134   6.777774   7.553257   7.252535   7.221852
    46  H    5.835799   7.795857   7.971978   8.294077   8.237353
    47  H    4.144082   6.599084   7.451987   6.879319   6.580200
    48  O    5.422242   2.937737   4.517656   4.263103   5.966484
    49  O    5.072072   3.233079   6.477676   4.461053   5.933869
    50  N    4.632001   2.409374   5.452462   3.708074   5.299374
                   16         17         18         19         20
    16  O    0.000000
    17  H    0.966452   0.000000
    18  O    2.722150   3.681801   0.000000
    19  C    3.073480   3.983278   1.434726   0.000000
    20  H    3.750269   4.606549   2.078747   1.091627   0.000000
    21  H    3.854551   4.761444   2.026169   1.087721   1.783097
    22  H    2.494040   3.286020   2.085994   1.090788   1.792356
    23  C   10.452487  10.947577   9.102510  10.059036   9.649316
    24  H   10.408374  10.915472   9.029217   9.860919   9.344718
    25  C    9.660145  10.083897   8.564489   9.623680   9.318053
    26  H    9.852466  10.253564   8.818824   9.979750   9.783079
    27  C    8.671505   9.018956   7.868543   8.881641   8.561384
    28  O    8.149418   8.402788   7.665043   8.760534   8.561962
    29  C   11.570183  12.113294  10.033175  11.006708  10.619605
    30  C   12.399307  12.992521  10.689442  11.544809  11.064092
    31  C   12.018314  12.544785  10.521888  11.605528  11.332846
    32  C   13.535157  14.158871  11.709411  12.571982  12.116544
    33  H   12.254887  12.854329  10.535022  11.283135  10.713449
    34  C   13.177040  13.738727  11.548297  12.620540  12.356274
    35  H   11.580835  12.058000  10.250968  11.416116  11.227321
    36  C   13.904851  14.514486  12.115676  13.083458  12.730056
    37  H   14.232403  14.884252  12.313215  13.091194  12.577629
    38  O   15.067893  15.699058  13.199176  14.163473  13.830191
    39  H   15.531653  16.187715  13.582554  14.475795  14.086106
    40  O   13.728081  14.269547  12.156710  13.305232  13.136314
    41  C   14.915225  15.411590  13.454618  14.615694  14.435994
    42  H   14.753823  15.196850  13.450384  14.621679  14.427311
    43  H   15.325893  15.809896  13.902192  15.109473  14.998358
    44  H   15.677622  16.202110  14.118449  15.226106  14.990213
    45  C    8.599303   8.959028   7.777397   8.588239   8.102393
    46  H    9.640503   9.999730   8.763266   9.516084   8.964817
    47  H    8.210805   8.472058   7.719542   8.486746   8.015570
    48  O    5.164409   6.021022   2.897549   3.255083   2.694285
    49  O    5.493139   6.281771   3.427069   4.474599   4.352584
    50  N    4.748797   5.560365   2.683681   3.533679   3.269956
                   21         22         23         24         25
    21  H    0.000000
    22  H    1.782577   0.000000
    23  C   10.621790  10.792159   0.000000
    24  H   10.450785  10.589211   1.087331   0.000000
    25  C   10.246540  10.277033   1.342761   2.099004   0.000000
    26  H   10.566071  10.624173   2.126911   3.079735   1.085818
    27  C    9.619479   9.424670   2.487459   2.712042   1.470660
    28  O    9.539424   9.205048   3.568003   3.915468   2.334753
    29  C   11.466878  11.811331   1.461431   2.153186   2.503358
    30  C   11.954044  12.399258   2.460784   2.596518   3.728742
    31  C   12.020025  12.409449   2.517361   3.443563   3.022486
    32  C   12.900238  13.470750   3.747261   3.984355   4.920950
    33  H   11.718824  12.127864   2.657134   2.325246   3.999447
    34  C   12.954509  13.472422   3.779491   4.579431   4.400712
    35  H   11.859140  12.169590   2.779238   3.841036   2.768009
    36  C   13.378489  13.981845   4.268386   4.800720   5.200085
    37  H   13.385219  14.014171   4.613145   4.656654   5.859934
    38  O   14.393174  15.091214   5.619101   6.137134   6.519214
    39  H   14.686362  15.424402   6.041997   6.412396   7.065947
    40  O   13.600612  14.145962   4.893992   5.795009   5.259388
    41  C   14.948726  15.429860   5.738879   6.612303   6.090399
    42  H   15.029703  15.387208   5.413958   6.295215   5.666181
    43  H   15.409969  15.915233   6.620738   7.547491   6.838378
    44  H   15.540369  16.071427   6.158837   6.916326   6.702817
    45  C    9.379353   9.110072   2.984277   2.598291   2.590041
    46  H   10.289607  10.058199   2.819933   2.215884   2.802517
    47  H    9.362525   8.887637   4.022687   3.665770   3.454457
    48  O    3.706844   4.184426   7.121922   6.834371   6.942603
    49  O    4.876742   5.339741   5.878966   5.903380   5.504597
    50  N    4.086951   4.369786   6.549743   6.411096   6.183710
                   26         27         28         29         30
    26  H    0.000000
    27  C    2.152465   0.000000
    28  O    2.526605   1.214630   0.000000
    29  C    2.795379   3.866078   4.837852   0.000000
    30  C    4.168689   4.942271   6.022302   1.396970   0.000000
    31  C    2.773636   4.493113   5.218798   1.404362   2.404870
    32  C    5.165532   6.229897   7.251272   2.425092   1.389068
    33  H    4.667827   4.974046   6.141945   2.149713   1.084803
    34  C    4.110482   5.871040   6.588302   2.426346   2.782474
    35  H    2.151150   4.176140   4.677008   2.175966   3.401694
    36  C    5.151901   6.629851   7.503268   2.807622   2.409006
    37  H    6.190506   7.094778   8.168987   3.408891   2.153003
    38  O    6.393058   7.961621   8.800919   4.157937   3.666292
    39  H    7.059994   8.468827   9.385282   4.606349   3.834006
    40  O    4.719336   6.707904   7.245280   3.669031   4.146706
    41  C    5.535351   7.509997   8.012796   4.533009   4.917851
    42  H    5.105958   7.019816   7.479593   4.367991   4.898755
    43  H    6.162640   8.227590   8.615830   5.471266   5.931845
    44  H    6.282388   8.141346   8.753934   4.840512   4.920233
    45  C    3.533387   1.529571   2.383468   4.439494   5.177070
    46  H    3.822287   2.166956   3.153635   4.183384   4.741715
    47  H    4.265691   2.123717   2.473686   5.481679   6.245596
    48  O    7.455287   6.414033   6.655090   7.999057   8.397061
    49  O    5.784022   5.175900   5.298794   6.670697   7.320136
    50  N    6.587123   5.622634   5.720613   7.474072   8.056489
                   31         32         33         34         35
    31  C    0.000000
    32  C    2.778826   0.000000
    33  H    3.391071   2.142155   0.000000
    34  C    1.380282   2.417893   3.867263   0.000000
    35  H    1.084475   3.862747   4.307603   2.111437   0.000000
    36  C    2.412234   1.390293   3.388023   1.408339   3.379908
    37  H    3.864679   1.085879   2.472289   3.401077   4.948491
    38  O    3.621209   2.412895   4.549269   2.355917   4.466319
    39  H    4.318625   2.456049   4.547142   3.173275   5.250956
    40  O    2.376958   3.665469   5.231426   1.364552   2.570544
    41  C    3.315290   4.322077   5.974012   2.338069   3.455407
    42  H    3.219510   4.535065   5.906110   2.627402   3.223400
    43  H    4.166707   5.323815   7.001664   3.237386   4.117235
    44  H    3.819022   4.076591   5.925841   2.647488   4.209418
    45  C    5.405908   6.556261   4.879557   6.732501   5.336158
    46  H    5.275691   6.117380   4.339176   6.536017   5.358260
    47  H    6.381507   7.623896   5.930001   7.729097   6.214940
    48  O    8.743531   9.425863   8.078007   9.730349   8.732764
    49  O    7.160940   8.303773   7.260526   8.155959   6.992511
    50  N    8.099755   9.115017   7.859687   9.146156   7.961988
                   36         37         38         39         40
    36  C    0.000000
    37  H    2.143710   0.000000
    38  O    1.351651   2.671793   0.000000
    39  H    1.909915   2.295292   0.965947   0.000000
    40  O    2.404157   4.543528   2.713088   3.672330   0.000000
    41  C    3.054950   5.085002   3.034660   3.935627   1.427179
    42  H    3.471785   5.361272   3.736079   4.579632   2.078407
    43  H    4.000518   6.065718   3.799100   4.696919   2.025837
    44  H    2.829677   4.646028   2.444559   3.221068   2.086676
    45  C    7.236213   7.254319   8.587531   8.950065   7.746956
    46  H    6.902480   6.741064   8.242224   8.537229   7.636102
    47  H    8.284355   8.318664   9.635883  10.013313   8.690012
    48  O   10.050410   9.894059  11.153175  11.399541  10.569239
    49  O    8.689476   8.946868   9.786686  10.177966   8.837147
    50  N    9.620454   9.701197  10.753536  11.094886   9.902290
                   41         42         43         44         45
    41  C    0.000000
    42  H    1.094037   0.000000
    43  H    1.088599   1.782143   0.000000
    44  H    1.091565   1.788044   1.780243   0.000000
    45  C    8.549025   8.073676   9.364020   9.047744   0.000000
    46  H    8.324388   7.805320   9.213039   8.721063   1.089865
    47  H    9.447140   8.909545  10.230198   9.984816   1.090312
    48  O   11.869517  11.890125  12.481657  12.371817   6.020087
    49  O   10.145492  10.175230  10.664522  10.753320   5.288508
    50  N   11.185111  11.164508  11.748326  11.769277   5.455893
                   46         47         48         49         50
    46  H    0.000000
    47  H    1.771744   0.000000
    48  O    6.822435   6.222491   0.000000
    49  O    6.184141   5.645060   2.151071   0.000000
    50  N    6.365064   5.639825   1.212133   1.207144   0.000000
 Stoichiometry    C21H20NO8(2)
 Framework group  C1[X(C21H20NO8)]
 Deg. of freedom   144
 Full point group                 C1      NOp   1
 Largest Abelian subgroup         C1      NOp   1
 Largest concise Abelian subgroup C1      NOp   1
                         Standard orientation:                         
 ---------------------------------------------------------------------
 Center     Atomic      Atomic             Coordinates (Angstroms)
 Number     Number       Type             X           Y           Z
 ---------------------------------------------------------------------
      1          6           0        2.171164    1.304693    0.443851
      2          1           0        1.803269    2.247282    0.047782
      3          6           0        1.459923    0.669425    1.383926
      4          1           0        1.789602   -0.252754    1.852999
      5          6           0        0.168990    1.163253    1.908970
      6          8           0       -0.415538    0.533023    2.763964
      7          6           0        3.463577    0.893451   -0.114721
      8          6           0        4.323383    1.877681   -0.608559
      9          6           0        3.945704   -0.418877   -0.166253
     10          6           0        5.585216    1.571517   -1.098596
     11          1           0        3.994543    2.910568   -0.596195
     12          6           0        5.189547   -0.768635   -0.661268
     13          1           0        4.966436   -1.041929    5.350106
     14          6           0        6.030094    0.254658   -1.129476
     15          1           0        6.229624    2.360814   -1.472924
     16          8           0        7.229117   -0.123724   -1.613413
     17          1           0        7.722093    0.647547   -1.923485
     18          8           0        5.537363   -2.074514   -0.751736
     19          6           0        6.511875   -2.485750    0.217619
     20          1           0        6.130943   -2.313695    1.226052
     21          1           0        6.664391   -3.550830    0.057991
     22          1           0        7.451084   -1.951277    0.069150
     23          6           0       -2.910993    1.007235    0.656737
     24          1           0       -2.570316    1.062485    1.687841
     25          6           0       -2.185039    1.601672   -0.303806
     26          1           0       -2.474468    1.562077   -1.349590
     27          6           0       -0.937961    2.341944   -0.059606
     28          8           0       -0.332066    2.849897   -0.981669
     29          6           0       -4.146473    0.250195    0.466315
     30          6           0       -4.750602   -0.343236    1.577347
     31          6           0       -4.758841    0.092748   -0.787658
     32          6           0       -5.920652   -1.080532    1.447400
     33          1           0       -4.294349   -0.234305    2.555491
     34          6           0       -5.920067   -0.639701   -0.929967
     35          1           0       -4.332956    0.531498   -1.683318
     36          6           0       -6.511969   -1.238343    0.199059
     37          1           0       -6.375861   -1.546638    2.316114
     38          8           0       -7.639962   -1.955412   -0.001952
     39          1           0       -7.949767   -2.322066    0.836284
     40          8           0       -6.470536   -0.811955   -2.166622
     41          6           0       -7.666641   -0.061135   -2.372640
     42          1           0       -7.466526    1.009408   -2.268678
     43          1           0       -7.992785   -0.272289   -3.389543
     44          1           0       -8.446602   -0.361224   -1.670414
     45          6           0       -0.408344    2.468129    1.369789
     46          1           0       -1.206308    2.771397    2.047349
     47          1           0        0.357100    3.244531    1.361072
     48          8           0        3.441202   -2.158680    1.246968
     49          8           0        2.136373   -1.805815   -0.426356
     50          7           0        3.103126   -1.555072    0.251665
 ---------------------------------------------------------------------
 Rotational constants (GHZ):           0.3161017           0.0511464           0.0497338
 Standard basis: 6-311G(d) (5D, 7F)
 There are   630 symmetry adapted cartesian basis functions of A   symmetry.
 There are   600 symmetry adapted basis functions of A   symmetry.
   600 basis functions,  1060 primitive gaussians,   630 cartesian basis functions
   109 alpha electrons      108 beta electrons
       nuclear repulsion energy      2720.4777898714 Hartrees.
 NAtoms=   50 NActive=   50 NUniq=   50 SFac= 1.00D+00 NAtFMM=   60 NAOKFM=F Big=F
 Integral buffers will be    131072 words long.
 Raffenetti 2 integral format.
 Two-electron integral symmetry is turned on.
 Using the following non-standard input for PCM:
 Eps=7
 EpsInf=1.85341
 HbondAcidity=0
 HbondBasicity=0.48
 SurfaceTensionAtInterface=60.62
 CarbonAromaticity=0
 ElectronegativeHalogenicity=0
 --- end of non-standard input.
 ------------------------------------------------------------------------------
 Polarizable Continuum Model (PCM)
 =================================
 Model                : PCM.
 Atomic radii         : SMD-Coulomb.
 Polarization charges : Total charges.
 Charge compensation  : None.
 Solution method      : On-the-fly selection.
 Cavity type          : VdW (van der Waals Surface) (Alpha=1.000).
 Cavity algorithm     : GePol (No added spheres)
                        Default sphere list used, NSphG=   50.
                        Lebedev-Laikov grids with approx.  5.0 points / Ang**2.
                        Smoothing algorithm: York/Karplus (Gamma=1.0000).
                        Polarization charges: spherical gaussians, with
                                              point-specific exponents (IZeta= 3).
                        Self-potential: point-specific (ISelfS= 7).
                        Self-field    : sphere-specific E.n sum rule (ISelfD= 2).
 Solvent              : Generic,
                        Eps                           =   7.000000
                        Eps(infinity)                 =   1.853410
                        RSolv                         =   0.000000 Ang.
                        Molar volume                  =   0.000000 cm**3/mol
                        Thermal expansion coefficient =   0.000000 K**-1
                        Absolute temperature          = 298.150000 K
                        Numeral density               =   0.000000 Ang**-3
                        Hydrogen bond acidity         =   0.000000
                        Hydrogen bond basicity        =   0.480000
                        Surface tension at interface  =  60.620000 (cal/mol)*Ang**-2
                        Carbon aromaticity            =   0.000000
                        Electronegative halogenicity  =   0.000000
 ------------------------------------------------------------------------------
 Separa: There are  2 disjoint cavities,
 ------------------------------------------------------------------------------
 Atomic radii for non-electrostatic terms: SMD-CDS.
 ------------------------------------------------------------------------------
 Separa: There are  2 disjoint cavities,
 Nuclear repulsion after PCM non-electrostatic terms =     2720.4744023994 Hartrees.
 One-electron integrals computed using PRISM.
 NBasis=   600 RedAO= T EigKep=  1.31D-04  NBF=   600
 NBsUse=   600 1.00D-06 EigRej= -1.00D+00 NBFU=   600
 ExpMin= 1.03D-01 ExpMax= 8.59D+03 ExpMxC= 1.30D+03 IAcc=3 IRadAn=         5 AccDes= 0.00D+00
 Harris functional with IExCor= 1009 and IRadAn=       5 diagonalized for initial guess.
 HarFok:  IExCor= 1009 AccDes= 0.00D+00 IRadAn=         5 IDoV= 1 UseB2=F ITyADJ=14
 ICtDFT=  3500011 ScaDFX=  1.000000  1.000000  1.000000  1.000000
 FoFCou: FMM=F IPFlag=           0 FMFlag=      100000 FMFlg1=           0
         NFxFlg=           0 DoJE=T BraDBF=F KetDBF=T FulRan=T
         wScrn=  0.000000 ICntrl=       500 IOpCl=  0 I1Cent=   200000004 NGrid=           0
         NMat0=    1 NMatS0=      1 NMatT0=    0 NMatD0=    1 NMtDS0=    0 NMtDT0=    0
 Petite list used in FoFCou.
 Initial guess <Sx>= 0.0000 <Sy>= 0.0000 <Sz>= 0.5000 <S**2>= 0.7500 S= 0.5000
 Requested convergence on RMS density matrix=1.00D-08 within 128 cycles.
 Requested convergence on MAX density matrix=1.00D-06.
 Requested convergence on             energy=1.00D-06.
 No special actions if energy rises.
 Inv3:  Mode=1 IEnd=    51518208.
 Iteration    1 A*A^-1 deviation from unit magnitude is 3.33D-15 for   3202.
 Iteration    1 A*A^-1 deviation from orthogonality  is 2.33D-15 for   2365   1746.
 Iteration    1 A^-1*A deviation from unit magnitude is 3.44D-15 for   3735.
 Iteration    1 A^-1*A deviation from orthogonality  is 2.44D-15 for   3882    218.
 Error on total polarization charges =  0.05702
 SCF Done:  E(UM062X) =  -1466.44880027     A.U. after   15 cycles
            NFock= 15  Conv=0.49D-08     -V/T= 2.0003
 <Sx>= 0.0000 <Sy>= 0.0000 <Sz>= 0.5000 <S**2>= 1.6703 S= 0.8858
 <L.S>=  0.00000000000    
 SMD-CDS (non-electrostatic) energy       (kcal/mol) =      -2.13
 (included in total energy above)
 Annihilation of the first spin contaminant:
 S**2 before annihilation     1.6703,   after     0.7584

 **********************************************************************

            Population analysis using the SCF density.

 **********************************************************************

 Orbital symmetries:
 Alpha Orbitals:
       Occupied  (A) (A) (A) (A) (A) (A) (A) (A) (A) (A) (A) (A)
                 (A) (A) (A) (A) (A) (A) (A) (A) (A) (A) (A) (A)
                 (A) (A) (A) (A) (A) (A) (A) (A) (A) (A) (A) (A)
                 (A) (A) (A) (A) (A) (A) (A) (A) (A) (A) (A) (A)
                 (A) (A) (A) (A) (A) (A) (A) (A) (A) (A) (A) (A)
                 (A) (A) (A) (A) (A) (A) (A) (A) (A) (A) (A) (A)
                 (A) (A) (A) (A) (A) (A) (A) (A) (A) (A) (A) (A)
                 (A) (A) (A) (A) (A) (A) (A) (A) (A) (A) (A) (A)
                 (A) (A) (A) (A) (A) (A) (A) (A) (A) (A) (A) (A)
                 (A)
       Virtual   (A) (A) (A) (A) (A) (A) (A) (A) (A) (A) (A) (A)
                 (A) (A) (A) (A) (A) (A) (A) (A) (A) (A) (A) (A)
                 (A) (A) (A) (A) (A) (A) (A) (A) (A) (A) (A) (A)
                 (A) (A) (A) (A) (A) (A) (A) (A) (A) (A) (A) (A)
                 (A) (A) (A) (A) (A) (A) (A) (A) (A) (A) (A) (A)
                 (A) (A) (A) (A) (A) (A) (A) (A) (A) (A) (A) (A)
                 (A) (A) (A) (A) (A) (A) (A) (A) (A) (A) (A) (A)
                 (A) (A) (A) (A) (A) (A) (A) (A) (A) (A) (A) (A)
                 (A) (A) (A) (A) (A) (A) (A) (A) (A) (A) (A) (A)
                 (A) (A) (A) (A) (A) (A) (A) (A) (A) (A) (A) (A)
                 (A) (A) (A) (A) (A) (A) (A) (A) (A) (A) (A) (A)
                 (A) (A) (A) (A) (A) (A) (A) (A) (A) (A) (A) (A)
                 (A) (A) (A) (A) (A) (A) (A) (A) (A) (A) (A) (A)
                 (A) (A) (A) (A) (A) (A) (A) (A) (A) (A) (A) (A)
                 (A) (A) (A) (A) (A) (A) (A) (A) (A) (A) (A) (A)
                 (A) (A) (A) (A) (A) (A) (A) (A) (A) (A) (A) (A)
                 (A) (A) (A) (A) (A) (A) (A) (A) (A) (A) (A) (A)
                 (A) (A) (A) (A) (A) (A) (A) (A) (A) (A) (A) (A)
                 (A) (A) (A) (A) (A) (A) (A) (A) (A) (A) (A) (A)
                 (A) (A) (A) (A) (A) (A) (A) (A) (A) (A) (A) (A)
                 (A) (A) (A) (A) (A) (A) (A) (A) (A) (A) (A) (A)
                 (A) (A) (A) (A) (A) (A) (A) (A) (A) (A) (A) (A)
                 (A) (A) (A) (A) (A) (A) (A) (A) (A) (A) (A) (A)
                 (A) (A) (A) (A) (A) (A) (A) (A) (A) (A) (A) (A)
                 (A) (A) (A) (A) (A) (A) (A) (A) (A) (A) (A) (A)
                 (A) (A) (A) (A) (A) (A) (A) (A) (A) (A) (A) (A)
                 (A) (A) (A) (A) (A) (A) (A) (A) (A) (A) (A) (A)
                 (A) (A) (A) (A) (A) (A) (A) (A) (A) (A) (A) (A)
                 (A) (A) (A) (A) (A) (A) (A) (A) (A) (A) (A) (A)
                 (A) (A) (A) (A) (A) (A) (A) (A) (A) (A) (A) (A)
                 (A) (A) (A) (A) (A) (A) (A) (A) (A) (A) (A) (A)
                 (A) (A) (A) (A) (A) (A) (A) (A) (A) (A) (A) (A)
                 (A) (A) (A) (A) (A) (A) (A) (A) (A) (A) (A) (A)
                 (A) (A) (A) (A) (A) (A) (A) (A) (A) (A) (A) (A)
                 (A) (A) (A) (A) (A) (A) (A) (A) (A) (A) (A) (A)
                 (A) (A) (A) (A) (A) (A) (A) (A) (A) (A) (A) (A)
                 (A) (A) (A) (A) (A) (A) (A) (A) (A) (A) (A) (A)
                 (A) (A) (A) (A) (A) (A) (A) (A) (A) (A) (A) (A)
                 (A) (A) (A) (A) (A) (A) (A) (A) (A) (A) (A) (A)
                 (A) (A) (A) (A) (A) (A) (A) (A) (A) (A) (A) (A)
                 (A) (A) (A) (A) (A) (A) (A) (A) (A) (A) (A)
 Beta  Orbitals:
       Occupied  (A) (A) (A) (A) (A) (A) (A) (A) (A) (A) (A) (A)
                 (A) (A) (A) (A) (A) (A) (A) (A) (A) (A) (A) (A)
                 (A) (A) (A) (A) (A) (A) (A) (A) (A) (A) (A) (A)
                 (A) (A) (A) (A) (A) (A) (A) (A) (A) (A) (A) (A)
                 (A) (A) (A) (A) (A) (A) (A) (A) (A) (A) (A) (A)
                 (A) (A) (A) (A) (A) (A) (A) (A) (A) (A) (A) (A)
                 (A) (A) (A) (A) (A) (A) (A) (A) (A) (A) (A) (A)
                 (A) (A) (A) (A) (A) (A) (A) (A) (A) (A) (A) (A)
                 (A) (A) (A) (A) (A) (A) (A) (A) (A) (A) (A) (A)
       Virtual   (A) (A) (A) (A) (A) (A) (A) (A) (A) (A) (A) (A)
                 (A) (A) (A) (A) (A) (A) (A) (A) (A) (A) (A) (A)
                 (A) (A) (A) (A) (A) (A) (A) (A) (A) (A) (A) (A)
                 (A) (A) (A) (A) (A) (A) (A) (A) (A) (A) (A) (A)
                 (A) (A) (A) (A) (A) (A) (A) (A) (A) (A) (A) (A)
                 (A) (A) (A) (A) (A) (A) (A) (A) (A) (A) (A) (A)
                 (A) (A) (A) (A) (A) (A) (A) (A) (A) (A) (A) (A)
                 (A) (A) (A) (A) (A) (A) (A) (A) (A) (A) (A) (A)
                 (A) (A) (A) (A) (A) (A) (A) (A) (A) (A) (A) (A)
                 (A) (A) (A) (A) (A) (A) (A) (A) (A) (A) (A) (A)
                 (A) (A) (A) (A) (A) (A) (A) (A) (A) (A) (A) (A)
                 (A) (A) (A) (A) (A) (A) (A) (A) (A) (A) (A) (A)
                 (A) (A) (A) (A) (A) (A) (A) (A) (A) (A) (A) (A)
                 (A) (A) (A) (A) (A) (A) (A) (A) (A) (A) (A) (A)
                 (A) (A) (A) (A) (A) (A) (A) (A) (A) (A) (A) (A)
                 (A) (A) (A) (A) (A) (A) (A) (A) (A) (A) (A) (A)
                 (A) (A) (A) (A) (A) (A) (A) (A) (A) (A) (A) (A)
                 (A) (A) (A) (A) (A) (A) (A) (A) (A) (A) (A) (A)
                 (A) (A) (A) (A) (A) (A) (A) (A) (A) (A) (A) (A)
                 (A) (A) (A) (A) (A) (A) (A) (A) (A) (A) (A) (A)
                 (A) (A) (A) (A) (A) (A) (A) (A) (A) (A) (A) (A)
                 (A) (A) (A) (A) (A) (A) (A) (A) (A) (A) (A) (A)
                 (A) (A) (A) (A) (A) (A) (A) (A) (A) (A) (A) (A)
                 (A) (A) (A) (A) (A) (A) (A) (A) (A) (A) (A) (A)
                 (A) (A) (A) (A) (A) (A) (A) (A) (A) (A) (A) (A)
                 (A) (A) (A) (A) (A) (A) (A) (A) (A) (A) (A) (A)
                 (A) (A) (A) (A) (A) (A) (A) (A) (A) (A) (A) (A)
                 (A) (A) (A) (A) (A) (A) (A) (A) (A) (A) (A) (A)
                 (A) (A) (A) (A) (A) (A) (A) (A) (A) (A) (A) (A)
                 (A) (A) (A) (A) (A) (A) (A) (A) (A) (A) (A) (A)
                 (A) (A) (A) (A) (A) (A) (A) (A) (A) (A) (A) (A)
                 (A) (A) (A) (A) (A) (A) (A) (A) (A) (A) (A) (A)
                 (A) (A) (A) (A) (A) (A) (A) (A) (A) (A) (A) (A)
                 (A) (A) (A) (A) (A) (A) (A) (A) (A) (A) (A) (A)
                 (A) (A) (A) (A) (A) (A) (A) (A) (A) (A) (A) (A)
                 (A) (A) (A) (A) (A) (A) (A) (A) (A) (A) (A) (A)
                 (A) (A) (A) (A) (A) (A) (A) (A) (A) (A) (A) (A)
                 (A) (A) (A) (A) (A) (A) (A) (A) (A) (A) (A) (A)
                 (A) (A) (A) (A) (A) (A) (A) (A) (A) (A) (A) (A)
                 (A) (A) (A) (A) (A) (A) (A) (A) (A) (A) (A) (A)
                 (A) (A) (A) (A) (A) (A) (A) (A) (A) (A) (A) (A)
 The electronic state is 2-A.
 Alpha  occ. eigenvalues --  -19.69009 -19.66838 -19.66049 -19.65711 -19.65435
 Alpha  occ. eigenvalues --  -19.65249 -19.61706 -19.60992 -15.03339 -10.65521
 Alpha  occ. eigenvalues --  -10.65223 -10.65037 -10.63479 -10.63304 -10.63092
 Alpha  occ. eigenvalues --  -10.62954 -10.58753 -10.58560 -10.58497 -10.58474
 Alpha  occ. eigenvalues --  -10.58225 -10.58053 -10.57672 -10.57509 -10.57266
 Alpha  occ. eigenvalues --  -10.57149 -10.56610 -10.56335 -10.56274 -10.56199
 Alpha  occ. eigenvalues --   -1.39147  -1.23308  -1.21803  -1.20034  -1.19417
 Alpha  occ. eigenvalues --   -1.19089  -1.18280  -1.17593  -1.00870  -0.99981
 Alpha  occ. eigenvalues --   -0.93625  -0.92709  -0.91821  -0.88617  -0.87993
 Alpha  occ. eigenvalues --   -0.86558  -0.84278  -0.81423  -0.79502  -0.78746
 Alpha  occ. eigenvalues --   -0.77152  -0.74847  -0.73081  -0.71094  -0.70145
 Alpha  occ. eigenvalues --   -0.68916  -0.66763  -0.66163  -0.65491  -0.63946
 Alpha  occ. eigenvalues --   -0.61860  -0.61524  -0.60631  -0.60555  -0.60303
 Alpha  occ. eigenvalues --   -0.59341  -0.58471  -0.57663  -0.56524  -0.56074
 Alpha  occ. eigenvalues --   -0.55652  -0.55464  -0.54088  -0.53663  -0.52813
 Alpha  occ. eigenvalues --   -0.52750  -0.52139  -0.51517  -0.51246  -0.50773
 Alpha  occ. eigenvalues --   -0.50404  -0.49824  -0.48242  -0.48196  -0.46798
 Alpha  occ. eigenvalues --   -0.46709  -0.46202  -0.46072  -0.45605  -0.45102
 Alpha  occ. eigenvalues --   -0.44978  -0.44664  -0.43722  -0.42442  -0.42232
 Alpha  occ. eigenvalues --   -0.39690  -0.39461  -0.38870  -0.37536  -0.36802
 Alpha  occ. eigenvalues --   -0.36609  -0.35928  -0.34682  -0.32880  -0.32808
 Alpha  occ. eigenvalues --   -0.32505  -0.29549  -0.28529  -0.21203
 Alpha virt. eigenvalues --   -0.06266  -0.04834  -0.03098   0.00118   0.00757
 Alpha virt. eigenvalues --    0.02624   0.03970   0.06303   0.06993   0.08758
 Alpha virt. eigenvalues --    0.09009   0.09249   0.09628   0.10506   0.10893
 Alpha virt. eigenvalues --    0.11102   0.12069   0.12602   0.13876   0.14253
 Alpha virt. eigenvalues --    0.15056   0.15453   0.15492   0.16138   0.16868
 Alpha virt. eigenvalues --    0.17283   0.17654   0.18693   0.19036   0.19620
 Alpha virt. eigenvalues --    0.19861   0.20153   0.21066   0.21596   0.23729
 Alpha virt. eigenvalues --    0.24907   0.25977   0.26076   0.26513   0.28058
 Alpha virt. eigenvalues --    0.29295   0.29531   0.29926   0.30733   0.31241
 Alpha virt. eigenvalues --    0.32702   0.32984   0.33200   0.34110   0.34387
 Alpha virt. eigenvalues --    0.35196   0.35446   0.36417   0.36892   0.37484
 Alpha virt. eigenvalues --    0.37958   0.38342   0.38877   0.39095   0.39708
 Alpha virt. eigenvalues --    0.39796   0.40351   0.40853   0.41307   0.41618
 Alpha virt. eigenvalues --    0.41975   0.42324   0.42503   0.42979   0.43439
 Alpha virt. eigenvalues --    0.43585   0.44430   0.44786   0.45366   0.46393
 Alpha virt. eigenvalues --    0.46781   0.47193   0.47314   0.47726   0.48241
 Alpha virt. eigenvalues --    0.48459   0.48639   0.49055   0.49347   0.49618
 Alpha virt. eigenvalues --    0.50232   0.50523   0.51350   0.51992   0.52291
 Alpha virt. eigenvalues --    0.52737   0.52943   0.55022   0.55497   0.55854
 Alpha virt. eigenvalues --    0.56085   0.56845   0.57824   0.58094   0.58618
 Alpha virt. eigenvalues --    0.59010   0.60134   0.60548   0.61095   0.61467
 Alpha virt. eigenvalues --    0.61773   0.62690   0.63020   0.63552   0.63898
 Alpha virt. eigenvalues --    0.64063   0.64345   0.64624   0.65603   0.66126
 Alpha virt. eigenvalues --    0.66164   0.66409   0.66652   0.66927   0.67624
 Alpha virt. eigenvalues --    0.67818   0.68317   0.68772   0.69781   0.70222
 Alpha virt. eigenvalues --    0.70752   0.71314   0.72254   0.72706   0.73332
 Alpha virt. eigenvalues --    0.74548   0.74825   0.75648   0.76163   0.78000
 Alpha virt. eigenvalues --    0.78797   0.79502   0.80597   0.80740   0.81241
 Alpha virt. eigenvalues --    0.81773   0.82321   0.82774   0.83648   0.83758
 Alpha virt. eigenvalues --    0.84003   0.84688   0.85209   0.85722   0.86325
 Alpha virt. eigenvalues --    0.87205   0.87412   0.88202   0.88422   0.89119
 Alpha virt. eigenvalues --    0.90133   0.90629   0.91509   0.92218   0.93110
 Alpha virt. eigenvalues --    0.93301   0.94550   0.95282   0.96476   0.96969
 Alpha virt. eigenvalues --    0.97437   0.98311   0.99013   0.99375   1.00476
 Alpha virt. eigenvalues --    1.00782   1.01106   1.01530   1.02170   1.02439
 Alpha virt. eigenvalues --    1.04030   1.05091   1.05601   1.06729   1.07438
 Alpha virt. eigenvalues --    1.08212   1.08717   1.10065   1.10875   1.11745
 Alpha virt. eigenvalues --    1.12582   1.13634   1.14130   1.15796   1.17045
 Alpha virt. eigenvalues --    1.17721   1.17920   1.18446   1.18724   1.20023
 Alpha virt. eigenvalues --    1.21509   1.22698   1.23479   1.24986   1.25662
 Alpha virt. eigenvalues --    1.25953   1.26386   1.28169   1.29115   1.29898
 Alpha virt. eigenvalues --    1.30383   1.31130   1.32207   1.34498   1.36188
 Alpha virt. eigenvalues --    1.38169   1.39856   1.40018   1.42310   1.43144
 Alpha virt. eigenvalues --    1.45590   1.46556   1.46986   1.48464   1.49669
 Alpha virt. eigenvalues --    1.50134   1.52368   1.52774   1.53680   1.54386
 Alpha virt. eigenvalues --    1.55256   1.55650   1.56228   1.56759   1.57515
 Alpha virt. eigenvalues --    1.57742   1.57939   1.59019   1.59316   1.60137
 Alpha virt. eigenvalues --    1.60722   1.61381   1.61976   1.63300   1.64586
 Alpha virt. eigenvalues --    1.65248   1.65358   1.66111   1.67825   1.69803
 Alpha virt. eigenvalues --    1.70500   1.70845   1.71711   1.72923   1.73353
 Alpha virt. eigenvalues --    1.73726   1.74325   1.74965   1.76446   1.77110
 Alpha virt. eigenvalues --    1.78085   1.78261   1.78752   1.80472   1.81316
 Alpha virt. eigenvalues --    1.81972   1.82387   1.83477   1.83958   1.85268
 Alpha virt. eigenvalues --    1.85764   1.86504   1.88185   1.89060   1.90656
 Alpha virt. eigenvalues --    1.91475   1.92408   1.94482   1.95023   1.97089
 Alpha virt. eigenvalues --    1.97926   1.99809   2.02384   2.03083   2.03369
 Alpha virt. eigenvalues --    2.05244   2.07386   2.07698   2.09963   2.11040
 Alpha virt. eigenvalues --    2.11480   2.13795   2.15061   2.16300   2.17078
 Alpha virt. eigenvalues --    2.18495   2.19348   2.20578   2.22651   2.26080
 Alpha virt. eigenvalues --    2.26593   2.28171   2.28927   2.29848   2.31099
 Alpha virt. eigenvalues --    2.31641   2.32508   2.33225   2.34245   2.35781
 Alpha virt. eigenvalues --    2.36325   2.37094   2.37703   2.38043   2.40699
 Alpha virt. eigenvalues --    2.43861   2.44117   2.44497   2.44885   2.47082
 Alpha virt. eigenvalues --    2.47205   2.49922   2.50886   2.52549   2.53646
 Alpha virt. eigenvalues --    2.55745   2.56049   2.57547   2.61344   2.62936
 Alpha virt. eigenvalues --    2.65767   2.66355   2.69385   2.70491   2.70800
 Alpha virt. eigenvalues --    2.71615   2.71729   2.72082   2.74924   2.76990
 Alpha virt. eigenvalues --    2.78682   2.81469   2.81893   2.83564   2.86979
 Alpha virt. eigenvalues --    2.87572   2.87986   2.88755   2.89258   2.90593
 Alpha virt. eigenvalues --    2.91783   2.92097   2.93498   2.94296   2.95414
 Alpha virt. eigenvalues --    2.96982   2.98705   2.99234   2.99535   3.00194
 Alpha virt. eigenvalues --    3.01278   3.02292   3.02985   3.03474   3.04106
 Alpha virt. eigenvalues --    3.04824   3.05979   3.07041   3.07633   3.07761
 Alpha virt. eigenvalues --    3.09720   3.11042   3.14808   3.15441   3.16720
 Alpha virt. eigenvalues --    3.18601   3.18952   3.19487   3.19787   3.20710
 Alpha virt. eigenvalues --    3.21666   3.22175   3.22853   3.23592   3.23896
 Alpha virt. eigenvalues --    3.24271   3.25705   3.30459   3.31827   3.34041
 Alpha virt. eigenvalues --    3.34372   3.34471   3.35039   3.36464   3.37139
 Alpha virt. eigenvalues --    3.37273   3.37572   3.38179   3.39388   3.39596
 Alpha virt. eigenvalues --    3.39877   3.41674   3.44213   3.45190   3.46489
 Alpha virt. eigenvalues --    3.47635   3.49051   3.50280   3.52220   3.53520
 Alpha virt. eigenvalues --    3.54298   3.54933   3.57777   3.58938   3.60481
 Alpha virt. eigenvalues --    3.62329   3.62618   3.64558   3.66551   3.70716
 Alpha virt. eigenvalues --    3.74742   3.76369   3.78170   3.90430   3.92221
 Alpha virt. eigenvalues --    3.92409   3.92686   3.93235   3.93431   3.97030
 Alpha virt. eigenvalues --    3.98575   4.02543   4.10835   4.11235   4.12921
 Alpha virt. eigenvalues --    4.15174   4.44321   4.47791   4.48307   4.65046
 Alpha virt. eigenvalues --    4.79257   4.80710   4.91236   4.93458   4.98190
 Alpha virt. eigenvalues --    4.99001   5.00788   5.01136   5.05846   5.07347
 Alpha virt. eigenvalues --    5.08903   5.13004   5.17397   5.17998   5.21795
 Alpha virt. eigenvalues --    5.23990   5.27757   5.30896   5.57916   5.57967
 Alpha virt. eigenvalues --    5.62243   5.68961   5.69799   5.75939   5.78064
 Alpha virt. eigenvalues --    6.08597  23.30431  23.32724  23.51054  23.52061
 Alpha virt. eigenvalues --   23.61782  23.62362  23.79329  23.84882  23.85713
 Alpha virt. eigenvalues --   23.87349  23.91415  23.92923  23.95812  24.05402
 Alpha virt. eigenvalues --   24.07047  24.10631  24.11499  24.18003  24.18743
 Alpha virt. eigenvalues --   24.22260  24.24136  35.45175  49.95889  49.96164
 Alpha virt. eigenvalues --   49.99184  50.02679  50.03640  50.07377  50.08262
 Alpha virt. eigenvalues --   50.09781
  Beta  occ. eigenvalues --  -19.68885 -19.66838 -19.66049 -19.65711 -19.65414
  Beta  occ. eigenvalues --  -19.65249 -19.61670 -19.60992 -15.03339 -10.65528
  Beta  occ. eigenvalues --  -10.65183 -10.65037 -10.63479 -10.63304 -10.63071
  Beta  occ. eigenvalues --  -10.62954 -10.58750 -10.58563 -10.58474 -10.58459
  Beta  occ. eigenvalues --  -10.58225 -10.58053 -10.57660 -10.57503 -10.57273
  Beta  occ. eigenvalues --  -10.57105 -10.56610 -10.56335 -10.56273 -10.56199
  Beta  occ. eigenvalues --   -9.61109  -1.39147  -1.22958  -1.21803  -1.20034
  Beta  occ. eigenvalues --   -1.19307  -1.19089  -1.18184  -1.17576  -1.00870
  Beta  occ. eigenvalues --   -0.99743  -0.93447  -0.92659  -0.91820  -0.88496
  Beta  occ. eigenvalues --   -0.87919  -0.86398  -0.84164  -0.81419  -0.79437
  Beta  occ. eigenvalues --   -0.78745  -0.77009  -0.74840  -0.72938  -0.71091
  Beta  occ. eigenvalues --   -0.70145  -0.68767  -0.66763  -0.66074  -0.65417
  Beta  occ. eigenvalues --   -0.63895  -0.61793  -0.61522  -0.60544  -0.60522
  Beta  occ. eigenvalues --   -0.60272  -0.59305  -0.58442  -0.57622  -0.56389
  Beta  occ. eigenvalues --   -0.55649  -0.55606  -0.55462  -0.54034  -0.53575
  Beta  occ. eigenvalues --   -0.52787  -0.52676  -0.51747  -0.51428  -0.51062
  Beta  occ. eigenvalues --   -0.50672  -0.50150  -0.49814  -0.48145  -0.48039
  Beta  occ. eigenvalues --   -0.46720  -0.46636  -0.46069  -0.45655  -0.45588
  Beta  occ. eigenvalues --   -0.44933  -0.44625  -0.44546  -0.43625  -0.42441
  Beta  occ. eigenvalues --   -0.42072  -0.39688  -0.39460  -0.38869  -0.36831
  Beta  occ. eigenvalues --   -0.36615  -0.36222  -0.35856  -0.34607  -0.32768
  Beta  occ. eigenvalues --   -0.32629  -0.32503  -0.28528
  Beta virt. eigenvalues --   -0.24227  -0.05883  -0.04571  -0.03079   0.00706
  Beta virt. eigenvalues --    0.00756   0.03073   0.04275   0.06340   0.06990
  Beta virt. eigenvalues --    0.08766   0.09073   0.09368   0.09704   0.10625
  Beta virt. eigenvalues --    0.10991   0.11113   0.11999   0.12579   0.13781
  Beta virt. eigenvalues --    0.14294   0.15017   0.15453   0.15528   0.16038
  Beta virt. eigenvalues --    0.16748   0.17333   0.17587   0.18347   0.19125
  Beta virt. eigenvalues --    0.19670   0.20145   0.20227   0.21068   0.21518
  Beta virt. eigenvalues --    0.21675   0.23802   0.25067   0.25992   0.26136
  Beta virt. eigenvalues --    0.26550   0.28153   0.29389   0.29606   0.30031
  Beta virt. eigenvalues --    0.30793   0.31311   0.32706   0.33028   0.33272
  Beta virt. eigenvalues --    0.34139   0.34435   0.35225   0.35455   0.36456
  Beta virt. eigenvalues --    0.36961   0.37505   0.38045   0.38456   0.38950
  Beta virt. eigenvalues --    0.39200   0.39791   0.39809   0.40397   0.40896
  Beta virt. eigenvalues --    0.41429   0.41697   0.42331   0.42488   0.43101
  Beta virt. eigenvalues --    0.43382   0.43603   0.44472   0.44568   0.45462
  Beta virt. eigenvalues --    0.46467   0.46810   0.47243   0.47325   0.47739
  Beta virt. eigenvalues --    0.48255   0.48535   0.48672   0.49123   0.49368
  Beta virt. eigenvalues --    0.49701   0.50273   0.50568   0.51382   0.52047
  Beta virt. eigenvalues --    0.52400   0.52764   0.52960   0.55019   0.55558
  Beta virt. eigenvalues --    0.55919   0.56137   0.56855   0.57907   0.58120
  Beta virt. eigenvalues --    0.58589   0.59056   0.60159   0.60571   0.61110
  Beta virt. eigenvalues --    0.61489   0.61804   0.62729   0.63048   0.63142
  Beta virt. eigenvalues --    0.63938   0.64117   0.64367   0.64629   0.65640
  Beta virt. eigenvalues --    0.66112   0.66189   0.66455   0.66665   0.66970
  Beta virt. eigenvalues --    0.67632   0.67848   0.68304   0.68787   0.69849
  Beta virt. eigenvalues --    0.70224   0.70766   0.71319   0.72322   0.72718
  Beta virt. eigenvalues --    0.73346   0.74601   0.74964   0.75617   0.76212
  Beta virt. eigenvalues --    0.78076   0.78834   0.79550   0.80637   0.80802
  Beta virt. eigenvalues --    0.81289   0.81810   0.82419   0.82915   0.83776
  Beta virt. eigenvalues --    0.83790   0.84039   0.84810   0.85256   0.85815
  Beta virt. eigenvalues --    0.86385   0.87224   0.87426   0.88359   0.88524
  Beta virt. eigenvalues --    0.89152   0.90127   0.90654   0.91527   0.92314
  Beta virt. eigenvalues --    0.93236   0.93392   0.94579   0.95304   0.96504
  Beta virt. eigenvalues --    0.96991   0.97446   0.98312   0.99080   0.99421
  Beta virt. eigenvalues --    1.00578   1.00873   1.01330   1.01618   1.02275
  Beta virt. eigenvalues --    1.02460   1.04037   1.05109   1.05649   1.06757
  Beta virt. eigenvalues --    1.07538   1.08312   1.08891   1.10135   1.10929
  Beta virt. eigenvalues --    1.11802   1.12621   1.13660   1.14216   1.15798
  Beta virt. eigenvalues --    1.17121   1.17885   1.17983   1.18474   1.18797
  Beta virt. eigenvalues --    1.20145   1.21560   1.22883   1.23572   1.25012
  Beta virt. eigenvalues --    1.25882   1.26014   1.26508   1.28263   1.29136
  Beta virt. eigenvalues --    1.30036   1.30452   1.31210   1.32370   1.34502
  Beta virt. eigenvalues --    1.36233   1.38182   1.39926   1.40055   1.42333
  Beta virt. eigenvalues --    1.43162   1.45610   1.46592   1.47125   1.48638
  Beta virt. eigenvalues --    1.49681   1.50236   1.52399   1.52824   1.53729
  Beta virt. eigenvalues --    1.54416   1.55298   1.55689   1.56295   1.56812
  Beta virt. eigenvalues --    1.57540   1.57775   1.57941   1.59076   1.59416
  Beta virt. eigenvalues --    1.60213   1.60757   1.61423   1.62025   1.63295
  Beta virt. eigenvalues --    1.64605   1.65316   1.65413   1.66119   1.67910
  Beta virt. eigenvalues --    1.69904   1.70556   1.70922   1.71735   1.72981
  Beta virt. eigenvalues --    1.73435   1.73855   1.74436   1.75012   1.76480
  Beta virt. eigenvalues --    1.77180   1.78198   1.78434   1.78799   1.80506
  Beta virt. eigenvalues --    1.81479   1.82097   1.82414   1.83529   1.83998
  Beta virt. eigenvalues --    1.85353   1.85992   1.86736   1.87943   1.88406
  Beta virt. eigenvalues --    1.89239   1.90746   1.91662   1.92683   1.94490
  Beta virt. eigenvalues --    1.95105   1.97228   1.98088   1.99852   2.02466
  Beta virt. eigenvalues --    2.03253   2.03423   2.05367   2.07470   2.07764
  Beta virt. eigenvalues --    2.10049   2.11127   2.11686   2.13920   2.15358
  Beta virt. eigenvalues --    2.16362   2.17132   2.18765   2.19550   2.20585
  Beta virt. eigenvalues --    2.22800   2.26138   2.26750   2.28173   2.29099
  Beta virt. eigenvalues --    2.29877   2.31133   2.31853   2.32835   2.33423
  Beta virt. eigenvalues --    2.34265   2.35809   2.36391   2.37319   2.37975
  Beta virt. eigenvalues --    2.40451   2.43892   2.44124   2.44502   2.44899
  Beta virt. eigenvalues --    2.46731   2.47415   2.49922   2.50894   2.52575
  Beta virt. eigenvalues --    2.53764   2.56033   2.56580   2.57547   2.61353
  Beta virt. eigenvalues --    2.63501   2.65909   2.66431   2.69748   2.70719
  Beta virt. eigenvalues --    2.70805   2.71800   2.71914   2.72159   2.74925
  Beta virt. eigenvalues --    2.77153   2.78947   2.81647   2.82056   2.83650
  Beta virt. eigenvalues --    2.87038   2.87760   2.87990   2.88757   2.89503
  Beta virt. eigenvalues --    2.90774   2.91856   2.92201   2.93559   2.94349
  Beta virt. eigenvalues --    2.95497   2.97203   2.98774   2.99486   2.99853
  Beta virt. eigenvalues --    3.00267   3.01414   3.02330   3.02995   3.03548
  Beta virt. eigenvalues --    3.04176   3.04926   3.06005   3.07161   3.07751
  Beta virt. eigenvalues --    3.08256   3.09801   3.11048   3.14928   3.15454
  Beta virt. eigenvalues --    3.16796   3.18618   3.18979   3.19779   3.19921
  Beta virt. eigenvalues --    3.20791   3.21667   3.22177   3.22935   3.23704
  Beta virt. eigenvalues --    3.23957   3.24294   3.25710   3.30660   3.31827
  Beta virt. eigenvalues --    3.34136   3.34396   3.34542   3.35041   3.36521
  Beta virt. eigenvalues --    3.37152   3.37329   3.37671   3.38318   3.39445
  Beta virt. eigenvalues --    3.39705   3.39895   3.41678   3.44377   3.45191
  Beta virt. eigenvalues --    3.46513   3.47662   3.49065   3.50419   3.52383
  Beta virt. eigenvalues --    3.53573   3.54334   3.54998   3.57802   3.58950
  Beta virt. eigenvalues --    3.60562   3.62345   3.62619   3.64634   3.66692
  Beta virt. eigenvalues --    3.70786   3.74977   3.76370   3.78171   3.90430
  Beta virt. eigenvalues --    3.92265   3.92410   3.92919   3.93249   3.93456
  Beta virt. eigenvalues --    3.97281   3.98650   4.02624   4.11097   4.11432
  Beta virt. eigenvalues --    4.12921   4.15241   4.44323   4.48216   4.48308
  Beta virt. eigenvalues --    4.65047   4.79950   4.80711   4.91758   4.93458
  Beta virt. eigenvalues --    4.98192   4.99002   5.00799   5.01251   5.05932
  Beta virt. eigenvalues --    5.07423   5.08904   5.13004   5.17458   5.18006
  Beta virt. eigenvalues --    5.21905   5.23990   5.27832   5.30896   5.57939
  Beta virt. eigenvalues --    5.58019   5.62244   5.69016   5.69809   5.76010
  Beta virt. eigenvalues --    5.78064   6.08597  23.30471  23.32728  23.51059
  Beta virt. eigenvalues --   23.52061  23.61808  23.62401  23.79329  23.84892
  Beta virt. eigenvalues --   23.85796  23.87349  23.91600  23.92923  23.95818
  Beta virt. eigenvalues --   24.05638  24.07047  24.10631  24.11566  24.18149
  Beta virt. eigenvalues --   24.18743  24.22400  24.24137  35.45174  49.95798
  Beta virt. eigenvalues --   49.96164  49.99184  50.02646  50.03640  50.07377
  Beta virt. eigenvalues --   50.08226  50.09769
          Condensed to atoms (all electrons):
               1          2          3          4          5          6
     1  C    5.270975   0.352572   0.405344  -0.044074  -0.027228   0.007809
     2  H    0.352572   0.408796  -0.047587   0.002549  -0.007121   0.000168
     3  C    0.405344  -0.047587   5.532439   0.356568   0.360530  -0.091366
     4  H   -0.044074   0.002549   0.356568   0.428099  -0.020312   0.009846
     5  C   -0.027228  -0.007121   0.360530  -0.020312   4.597202   0.629791
     6  O    0.007809   0.000168  -0.091366   0.009846   0.629791   7.847173
     7  C    0.379704  -0.025826  -0.028270  -0.012235   0.000255  -0.000239
     8  C   -0.053377  -0.009438   0.006071  -0.000219  -0.000487   0.000001
     9  C   -0.083572   0.010042  -0.020743   0.007210   0.000535   0.000009
    10  C    0.010083  -0.000019  -0.000379   0.000041   0.000005   0.000000
    11  H   -0.004954   0.002523   0.000604  -0.000027  -0.000044  -0.000000
    12  C    0.010349  -0.000234   0.000262   0.000244   0.000008  -0.000000
    13  H   -0.000005   0.000000  -0.000041   0.000343   0.000001  -0.000000
    14  C   -0.000708   0.000073   0.000020  -0.000015  -0.000001  -0.000000
    15  H   -0.000301  -0.000015   0.000006   0.000002   0.000000   0.000000
    16  O    0.000002  -0.000000   0.000000  -0.000000  -0.000000  -0.000000
    17  H   -0.000002   0.000000   0.000000   0.000000   0.000000   0.000000
    18  O   -0.000074   0.000001   0.000003   0.000043   0.000000   0.000000
    19  C    0.000007  -0.000000  -0.000003   0.000003  -0.000000  -0.000000
    20  H    0.000006   0.000000   0.000002   0.000005   0.000000  -0.000000
    21  H   -0.000000   0.000000   0.000000  -0.000001  -0.000000   0.000000
    22  H   -0.000001   0.000000   0.000001   0.000001   0.000000  -0.000000
    23  C   -0.000220  -0.000472  -0.000197   0.000039  -0.004623  -0.009170
    24  H   -0.000495  -0.000098   0.003487  -0.000165  -0.006609   0.027591
    25  C   -0.000133   0.003543   0.003093   0.000010   0.008253  -0.001380
    26  H    0.000056  -0.000168  -0.000028  -0.000002  -0.000592  -0.000052
    27  C   -0.003608  -0.006666   0.006833  -0.000558  -0.057976   0.002407
    28  O   -0.010395   0.029767  -0.001920  -0.000052   0.002692  -0.000003
    29  C   -0.000005   0.000012   0.000020  -0.000006   0.000641   0.001055
    30  C    0.000000  -0.000000  -0.000009   0.000001  -0.000048  -0.000312
    31  C   -0.000000   0.000000   0.000003  -0.000000  -0.000010   0.000007
    32  C    0.000000  -0.000000  -0.000000   0.000000  -0.000001  -0.000003
    33  H   -0.000000   0.000000   0.000000   0.000001   0.000018   0.000231
    34  C    0.000000   0.000000  -0.000000  -0.000000  -0.000000  -0.000000
    35  H   -0.000000   0.000001   0.000001   0.000000   0.000006   0.000001
    36  C   -0.000000   0.000000   0.000000   0.000000   0.000000   0.000000
    37  H   -0.000000  -0.000000  -0.000000  -0.000000  -0.000000  -0.000000
    38  O   -0.000000  -0.000000   0.000000   0.000000  -0.000000  -0.000000
    39  H   -0.000000  -0.000000   0.000000   0.000000  -0.000000   0.000000
    40  O    0.000000  -0.000000  -0.000000   0.000000  -0.000000  -0.000000
    41  C    0.000000   0.000000  -0.000000  -0.000000  -0.000000   0.000000
    42  H   -0.000000  -0.000000   0.000000   0.000000   0.000000  -0.000000
    43  H    0.000000   0.000000  -0.000000   0.000000  -0.000000  -0.000000
    44  H   -0.000000  -0.000000  -0.000000   0.000000  -0.000000   0.000000
    45  C    0.014732  -0.004079  -0.150979   0.010596   0.213883  -0.099067
    46  H    0.000392   0.000645   0.005475  -0.000198  -0.036708   0.001980
    47  H   -0.005142   0.003212   0.002340  -0.000183  -0.019502   0.001830
    48  O   -0.000707  -0.000027  -0.004940   0.011523   0.000354  -0.000002
    49  O    0.003276   0.000343   0.000235  -0.007193  -0.001373   0.000005
    50  N   -0.009104   0.000077  -0.004522  -0.002852  -0.000596  -0.000009
               7          8          9         10         11         12
     1  C    0.379704  -0.053377  -0.083572   0.010083  -0.004954   0.010349
     2  H   -0.025826  -0.009438   0.010042  -0.000019   0.002523  -0.000234
     3  C   -0.028270   0.006071  -0.020743  -0.000379   0.000604   0.000262
     4  H   -0.012235  -0.000219   0.007210   0.000041  -0.000027   0.000244
     5  C    0.000255  -0.000487   0.000535   0.000005  -0.000044   0.000008
     6  O   -0.000239   0.000001   0.000009   0.000000  -0.000000  -0.000000
     7  C    4.937752   0.496104   0.322972  -0.039019  -0.044559   0.029842
     8  C    0.496104   5.073583  -0.039710   0.448276   0.391796  -0.043932
     9  C    0.322972  -0.039710   5.635043  -0.045476   0.009195   0.352969
    10  C   -0.039019   0.448276  -0.045476   5.293083  -0.032760  -0.091592
    11  H   -0.044559   0.391796   0.009195  -0.032760   0.406153  -0.000954
    12  C    0.029842  -0.043932   0.352969  -0.091592  -0.000954   5.065257
    13  H   -0.000006  -0.000000   0.000010  -0.000000   0.000000  -0.000003
    14  C   -0.070883  -0.004857  -0.080168   0.402100   0.005184   0.279321
    15  H    0.005622  -0.024142  -0.000503   0.381810  -0.004924   0.005232
    16  O    0.000368   0.006218   0.004378  -0.091389  -0.000106  -0.070585
    17  H   -0.000030   0.001192  -0.000350  -0.002264  -0.000024   0.010516
    18  O    0.006767  -0.000681  -0.093255   0.005967   0.000003   0.390441
    19  C   -0.000524   0.000168   0.001745  -0.000806   0.000001  -0.107129
    20  H   -0.001174   0.000003   0.006951  -0.000002   0.000002  -0.000479
    21  H    0.000048  -0.000009  -0.000378   0.000043  -0.000000   0.004229
    22  H    0.000116  -0.000036  -0.002230   0.000265   0.000003  -0.019100
    23  C   -0.000000   0.000000  -0.000001   0.000000   0.000000  -0.000000
    24  H    0.000015  -0.000000  -0.000001  -0.000000   0.000000  -0.000000
    25  C   -0.000020  -0.000006   0.000005  -0.000000  -0.000002   0.000000
    26  H   -0.000008   0.000000  -0.000000   0.000000  -0.000000   0.000000
    27  C    0.000533  -0.000104   0.000022  -0.000001  -0.000012   0.000001
    28  O    0.001426  -0.000272   0.000031  -0.000002  -0.000126  -0.000000
    29  C    0.000000  -0.000000   0.000000  -0.000000  -0.000000  -0.000000
    30  C   -0.000000   0.000000  -0.000000   0.000000   0.000000  -0.000000
    31  C    0.000000  -0.000000   0.000000  -0.000000  -0.000000   0.000000
    32  C   -0.000000   0.000000  -0.000000   0.000000   0.000000   0.000000
    33  H    0.000000  -0.000000  -0.000000  -0.000000   0.000000  -0.000000
    34  C   -0.000000  -0.000000   0.000000  -0.000000  -0.000000   0.000000
    35  H    0.000000  -0.000000   0.000000  -0.000000   0.000000  -0.000000
    36  C    0.000000  -0.000000  -0.000000  -0.000000  -0.000000  -0.000000
    37  H   -0.000000   0.000000  -0.000000   0.000000   0.000000  -0.000000
    38  O   -0.000000   0.000000   0.000000   0.000000   0.000000   0.000000
    39  H    0.000000   0.000000  -0.000000   0.000000   0.000000  -0.000000
    40  O    0.000000   0.000000  -0.000000   0.000000   0.000000  -0.000000
    41  C    0.000000  -0.000000   0.000000  -0.000000  -0.000000  -0.000000
    42  H   -0.000000   0.000000  -0.000000   0.000000   0.000000   0.000000
    43  H    0.000000  -0.000000  -0.000000  -0.000000   0.000000  -0.000000
    44  H    0.000000   0.000000  -0.000000   0.000000   0.000000  -0.000000
    45  C   -0.002829   0.000189  -0.000023   0.000001   0.000030   0.000000
    46  H    0.000066  -0.000003   0.000002  -0.000000   0.000000  -0.000000
    47  H    0.000009   0.000004  -0.000027  -0.000002  -0.000027   0.000001
    48  O    0.000141  -0.000344  -0.110952   0.000039   0.000006   0.006548
    49  O   -0.004501  -0.000144  -0.110601   0.000053   0.000006   0.003791
    50  N   -0.050262   0.005249   0.167420  -0.000387  -0.000101  -0.045510
              13         14         15         16         17         18
     1  C   -0.000005  -0.000708  -0.000301   0.000002  -0.000002  -0.000074
     2  H    0.000000   0.000073  -0.000015  -0.000000   0.000000   0.000001
     3  C   -0.000041   0.000020   0.000006   0.000000   0.000000   0.000003
     4  H    0.000343  -0.000015   0.000002  -0.000000   0.000000   0.000043
     5  C    0.000001  -0.000001   0.000000  -0.000000   0.000000   0.000000
     6  O   -0.000000  -0.000000   0.000000  -0.000000   0.000000   0.000000
     7  C   -0.000006  -0.070883   0.005622   0.000368  -0.000030   0.006767
     8  C   -0.000000  -0.004857  -0.024142   0.006218   0.001192  -0.000681
     9  C    0.000010  -0.080168  -0.000503   0.004378  -0.000350  -0.093255
    10  C   -0.000000   0.402100   0.381810  -0.091389  -0.002264   0.005967
    11  H    0.000000   0.005184  -0.004924  -0.000106  -0.000024   0.000003
    12  C   -0.000003   0.279321   0.005232  -0.070585   0.010516   0.390441
    13  H    1.997750  -0.000000  -0.000000   0.000000   0.000000   0.000000
    14  C   -0.000000   5.069448  -0.040223   0.338584  -0.057811  -0.091431
    15  H   -0.000000  -0.040223   0.397990  -0.003236   0.003319  -0.000080
    16  O    0.000000   0.338584  -0.003236   8.117286   0.279834   0.003015
    17  H    0.000000  -0.057811   0.003319   0.279834   0.316403  -0.000720
    18  O    0.000000  -0.091431  -0.000080   0.003015  -0.000720   8.022600
    19  C   -0.000066  -0.008626  -0.000001  -0.004020   0.000116   0.234888
    20  H    0.000703  -0.000739  -0.000004   0.000100  -0.000022  -0.037939
    21  H   -0.000003  -0.000247  -0.000000   0.000002  -0.000016  -0.022106
    22  H   -0.000005   0.011424   0.000009   0.007562   0.000221  -0.033824
    23  C   -0.000000  -0.000000  -0.000000   0.000000  -0.000000   0.000000
    24  H   -0.000000   0.000000  -0.000000   0.000000  -0.000000  -0.000000
    25  C    0.000000  -0.000000   0.000000  -0.000000  -0.000000   0.000000
    26  H    0.000000  -0.000000   0.000000  -0.000000  -0.000000   0.000000
    27  C    0.000000  -0.000000   0.000000  -0.000000  -0.000000  -0.000000
    28  O   -0.000000   0.000000   0.000000   0.000000  -0.000000  -0.000000
    29  C   -0.000000   0.000000  -0.000000   0.000000   0.000000   0.000000
    30  C    0.000000  -0.000000   0.000000   0.000000   0.000000   0.000000
    31  C   -0.000000   0.000000   0.000000  -0.000000  -0.000000  -0.000000
    32  C    0.000000  -0.000000   0.000000   0.000000   0.000000  -0.000000
    33  H    0.000000   0.000000  -0.000000   0.000000   0.000000   0.000000
    34  C    0.000000   0.000000   0.000000   0.000000  -0.000000   0.000000
    35  H   -0.000000   0.000000  -0.000000   0.000000   0.000000   0.000000
    36  C    0.000000  -0.000000  -0.000000   0.000000  -0.000000   0.000000
    37  H   -0.000000  -0.000000  -0.000000   0.000000   0.000000   0.000000
    38  O    0.000000   0.000000   0.000000   0.000000   0.000000   0.000000
    39  H    0.000000  -0.000000  -0.000000   0.000000  -0.000000   0.000000
    40  O    0.000000   0.000000  -0.000000   0.000000   0.000000   0.000000
    41  C    0.000000   0.000000   0.000000   0.000000   0.000000   0.000000
    42  H   -0.000000  -0.000000  -0.000000   0.000000  -0.000000   0.000000
    43  H   -0.000000   0.000000  -0.000000   0.000000   0.000000   0.000000
    44  H   -0.000000  -0.000000  -0.000000   0.000000   0.000000   0.000000
    45  C    0.000000  -0.000000  -0.000000   0.000000   0.000000   0.000000
    46  H    0.000000   0.000000   0.000000   0.000000   0.000000   0.000000
    47  H    0.000000  -0.000000  -0.000000  -0.000000  -0.000000   0.000000
    48  O    0.000021   0.000146  -0.000000   0.000000  -0.000000  -0.002465
    49  O    0.000000  -0.000258  -0.000000   0.000000  -0.000000  -0.000566
    50  N   -0.000003   0.005506   0.000007  -0.000023   0.000008  -0.002043
              19         20         21         22         23         24
     1  C    0.000007   0.000006  -0.000000  -0.000001  -0.000220  -0.000495
     2  H   -0.000000   0.000000   0.000000   0.000000  -0.000472  -0.000098
     3  C   -0.000003   0.000002   0.000000   0.000001  -0.000197   0.003487
     4  H    0.000003   0.000005  -0.000001   0.000001   0.000039  -0.000165
     5  C   -0.000000   0.000000  -0.000000   0.000000  -0.004623  -0.006609
     6  O   -0.000000  -0.000000   0.000000  -0.000000  -0.009170   0.027591
     7  C   -0.000524  -0.001174   0.000048   0.000116  -0.000000   0.000015
     8  C    0.000168   0.000003  -0.000009  -0.000036   0.000000  -0.000000
     9  C    0.001745   0.006951  -0.000378  -0.002230  -0.000001  -0.000001
    10  C   -0.000806  -0.000002   0.000043   0.000265   0.000000  -0.000000
    11  H    0.000001   0.000002  -0.000000   0.000003   0.000000   0.000000
    12  C   -0.107129  -0.000479   0.004229  -0.019100  -0.000000  -0.000000
    13  H   -0.000066   0.000703  -0.000003  -0.000005  -0.000000  -0.000000
    14  C   -0.008626  -0.000739  -0.000247   0.011424  -0.000000   0.000000
    15  H   -0.000001  -0.000004  -0.000000   0.000009  -0.000000  -0.000000
    16  O   -0.004020   0.000100   0.000002   0.007562   0.000000   0.000000
    17  H    0.000116  -0.000022  -0.000016   0.000221  -0.000000  -0.000000
    18  O    0.234888  -0.037939  -0.022106  -0.033824   0.000000  -0.000000
    19  C    5.272326   0.367490   0.383854   0.376469  -0.000000  -0.000000
    20  H    0.367490   0.469979  -0.023810  -0.036554   0.000000   0.000000
    21  H    0.383854  -0.023810   0.431225  -0.024871   0.000000   0.000000
    22  H    0.376469  -0.036554  -0.024871   0.466458  -0.000000  -0.000000
    23  C   -0.000000   0.000000   0.000000  -0.000000   5.190673   0.357236
    24  H   -0.000000   0.000000   0.000000  -0.000000   0.357236   0.406615
    25  C    0.000000  -0.000000  -0.000000   0.000000   0.423346  -0.047685
    26  H    0.000000  -0.000000  -0.000000   0.000000  -0.020183   0.003245
    27  C    0.000000   0.000000  -0.000000   0.000000  -0.026195  -0.008030
    28  O   -0.000000   0.000000  -0.000000  -0.000000   0.007480   0.000165
    29  C   -0.000000   0.000000   0.000000  -0.000000   0.400959  -0.036839
    30  C    0.000000  -0.000000   0.000000   0.000000  -0.056585  -0.006697
    31  C    0.000000   0.000000  -0.000000   0.000000  -0.064436   0.007364
    32  C    0.000000  -0.000000  -0.000000  -0.000000   0.010749   0.000532
    33  H   -0.000000   0.000000   0.000000  -0.000000  -0.003468   0.003475
    34  C    0.000000   0.000000  -0.000000   0.000000   0.007893  -0.000151
    35  H   -0.000000   0.000000   0.000000  -0.000000  -0.015513   0.000050
    36  C   -0.000000   0.000000   0.000000  -0.000000  -0.000946  -0.000013
    37  H    0.000000  -0.000000   0.000000   0.000000  -0.000319  -0.000028
    38  O    0.000000   0.000000   0.000000   0.000000  -0.000002  -0.000000
    39  H   -0.000000  -0.000000   0.000000  -0.000000  -0.000004   0.000000
    40  O    0.000000  -0.000000   0.000000   0.000000  -0.000150   0.000001
    41  C    0.000000   0.000000   0.000000   0.000000   0.000019  -0.000000
    42  H    0.000000  -0.000000   0.000000   0.000000   0.000030   0.000001
    43  H    0.000000  -0.000000  -0.000000   0.000000  -0.000001   0.000000
    44  H    0.000000   0.000000   0.000000  -0.000000  -0.000004  -0.000000
    45  C   -0.000000   0.000000   0.000000   0.000000   0.015148  -0.003493
    46  H    0.000000  -0.000000  -0.000000   0.000000  -0.004919   0.004267
    47  H    0.000000  -0.000000  -0.000000   0.000000   0.000311   0.000568
    48  O   -0.001081   0.008588  -0.000060   0.000177  -0.000000  -0.000000
    49  O   -0.000109   0.000226   0.000008  -0.000007   0.000001   0.000001
    50  N   -0.001338  -0.001116  -0.000013   0.000142   0.000000   0.000000
              25         26         27         28         29         30
     1  C   -0.000133   0.000056  -0.003608  -0.010395  -0.000005   0.000000
     2  H    0.003543  -0.000168  -0.006666   0.029767   0.000012  -0.000000
     3  C    0.003093  -0.000028   0.006833  -0.001920   0.000020  -0.000009
     4  H    0.000010  -0.000002  -0.000558  -0.000052  -0.000006   0.000001
[...]
   345. RY*(   4) O  28                  0.00003     2.68104   
   346. RY*(   5) O  28                  0.00000    49.89385   
   347. RY*(   6) O  28                  0.00000     5.03644   
   348. RY*(   7) O  28                  0.00000     5.11544   
   349. RY*(   8) O  28                  0.00001     5.00936   
   350. RY*(   9) O  28                  0.00000     3.11330   
   351. RY*(  10) O  28                  0.00001     2.84261   
   352. RY*(  11) O  28                  0.00000     2.95997   
   353. RY*(  12) O  28                  0.00000     3.02345   
   354. RY*(  13) O  28                  0.00001     3.22640   
   355. RY*(   1) C  29                  0.00311     1.53669   
   356. RY*(   2) C  29                  0.00232     1.57183   
   357. RY*(   3) C  29                  0.00031     1.55425   
   358. RY*(   4) C  29                  0.00025     1.12839   
   359. RY*(   5) C  29                  0.00026     1.64317   
   360. RY*(   6) C  29                  0.00010     2.79053   
   361. RY*(   7) C  29                  0.00007     3.23399   
   362. RY*(   8) C  29                  0.00004     1.62407   
   363. RY*(   9) C  29                  0.00004     4.43599   
   364. RY*(  10) C  29                  0.00002     2.92644   
   365. RY*(  11) C  29                  0.00002     6.08892   
   366. RY*(  12) C  29                  0.00000     2.78246   
   367. RY*(  13) C  29                  0.00000    16.24141   
   368. RY*(   1) C  30                  0.00276     1.34638   
   369. RY*(   2) C  30                  0.00100     1.33361   
   370. RY*(   3) C  30                  0.00045     0.76706   
   371. RY*(   4) C  30                  0.00025     1.36822   
   372. RY*(   5) C  30                  0.00006     1.58935   
   373. RY*(   6) C  30                  0.00005     3.11864   
   374. RY*(   7) C  30                  0.00005     3.13006   
   375. RY*(   8) C  30                  0.00001     4.34314   
   376. RY*(   9) C  30                  0.00001     1.51645   
   377. RY*(  10) C  30                  0.00002     2.24866   
   378. RY*(  11) C  30                  0.00002     3.39712   
   379. RY*(  12) C  30                  0.00000     2.91737   
   380. RY*(  13) C  30                  0.00000    18.67357   
   381. RY*(   1) C  31                  0.00250     1.40335   
   382. RY*(   2) C  31                  0.00135     1.27714   
   383. RY*(   3) C  31                  0.00067     0.96119   
   384. RY*(   4) C  31                  0.00037     1.09960   
   385. RY*(   5) C  31                  0.00011     3.08585   
   386. RY*(   6) C  31                  0.00009     1.78389   
   387. RY*(   7) C  31                  0.00006     2.57348   
   388. RY*(   8) C  31                  0.00003     1.90591   
   389. RY*(   9) C  31                  0.00004     3.90365   
   390. RY*(  10) C  31                  0.00001     2.23825   
   391. RY*(  11) C  31                  0.00000    21.09763   
   392. RY*(  12) C  31                  0.00000     2.70475   
   393. RY*(  13) C  31                  0.00001     2.18240   
   394. RY*(   1) C  32                  0.00257     1.39551   
   395. RY*(   2) C  32                  0.00112     1.43747   
   396. RY*(   3) C  32                  0.00034     1.08531   
   397. RY*(   4) C  32                  0.00031     0.69577   
   398. RY*(   5) C  32                  0.00010     3.34612   
   399. RY*(   6) C  32                  0.00006     4.32686   
   400. RY*(   7) C  32                  0.00006     1.65124   
   401. RY*(   8) C  32                  0.00002     2.25029   
   402. RY*(   9) C  32                  0.00003     3.60203   
   403. RY*(  10) C  32                  0.00001     2.15049   
   404. RY*(  11) C  32                  0.00002     2.08697   
   405. RY*(  12) C  32                  0.00000     2.72672   
   406. RY*(  13) C  32                  0.00000    18.86494   
   407. RY*(   1) H  33                  0.00068     0.47677   
   408. RY*(   2) H  33                  0.00012     2.28023   
   409. RY*(   1) C  34                  0.00303     1.50764   
   410. RY*(   2) C  34                  0.00196     1.37198   
   411. RY*(   3) C  34                  0.00173     1.25497   
   412. RY*(   4) C  34                  0.00091     2.51144   
   413. RY*(   5) C  34                  0.00076     1.26112   
   414. RY*(   6) C  34                  0.00027     1.68452   
   415. RY*(   7) C  34                  0.00008     1.91647   
   416. RY*(   8) C  34                  0.00008     3.05120   
   417. RY*(   9) C  34                  0.00005     2.64117   
   418. RY*(  10) C  34                  0.00002     2.65386   
   419. RY*(  11) C  34                  0.00002     2.34474   
   420. RY*(  12) C  34                  0.00001     2.73920   
   421. RY*(  13) C  34                  0.00001    21.25202   
   422. RY*(   1) H  35                  0.00105     0.49037   
   423. RY*(   2) H  35                  0.00015     2.27613   
   424. RY*(   1) C  36                  0.00323     1.29533   
   425. RY*(   2) C  36                  0.00137     1.45612   
   426. RY*(   3) C  36                  0.00122     1.56017   
   427. RY*(   4) C  36                  0.00079     2.33321   
   428. RY*(   5) C  36                  0.00044     1.96169   
   429. RY*(   6) C  36                  0.00031     1.58314   
   430. RY*(   7) C  36                  0.00014     3.59817   
   431. RY*(   8) C  36                  0.00006     2.40288   
   432. RY*(   9) C  36                  0.00003     1.85785   
   433. RY*(  10) C  36                  0.00002     3.10436   
   434. RY*(  11) C  36                  0.00002     3.87964   
   435. RY*(  12) C  36                  0.00000     3.23631   
   436. RY*(  13) C  36                  0.00001    17.09354   
   437. RY*(   1) H  37                  0.00096     0.41748   
   438. RY*(   2) H  37                  0.00010     2.26155   
   439. RY*(   1) O  38                  0.00071     1.36031   
   440. RY*(   2) O  38                  0.00040     0.94657   
   441. RY*(   3) O  38                  0.00011     1.90257   
   442. RY*(   4) O  38                  0.00006     1.29914   
   443. RY*(   5) O  38                  0.00000    49.69895   
   444. RY*(   6) O  38                  0.00000     4.96579   
   445. RY*(   7) O  38                  0.00001     5.06902   
   446. RY*(   8) O  38                  0.00000     5.04603   
   447. RY*(   9) O  38                  0.00001     3.27934   
   448. RY*(  10) O  38                  0.00000     2.81151   
   449. RY*(  11) O  38                  0.00000     2.91248   
   450. RY*(  12) O  38                  0.00000     3.02759   
   451. RY*(  13) O  38                  0.00000     3.12559   
   452. RY*(   1) H  39                  0.00037     1.39949   
   453. RY*(   2) H  39                  0.00018     1.24138   
   454. RY*(   1) O  40                  0.00182     1.12768   
   455. RY*(   2) O  40                  0.00101     1.20070   
   456. RY*(   3) O  40                  0.00019     1.71288   
   457. RY*(   4) O  40                  0.00010     2.22258   
   458. RY*(   5) O  40                  0.00006     3.05189   
   459. RY*(   6) O  40                  0.00003     2.96197   
   460. RY*(   7) O  40                  0.00000     5.21239   
   461. RY*(   8) O  40                  0.00001     5.13248   
   462. RY*(   9) O  40                  0.00000    49.75621   
   463. RY*(  10) O  40                  0.00000     3.11964   
   464. RY*(  11) O  40                  0.00001     3.06952   
   465. RY*(  12) O  40                  0.00000     3.14454   
   466. RY*(  13) O  40                  0.00000     5.03761   
   467. RY*(   1) C  41                  0.00119     1.38194   
   468. RY*(   2) C  41                  0.00111     1.38420   
   469. RY*(   3) C  41                  0.00071     0.92483   
   470. RY*(   4) C  41                  0.00025     1.08681   
   471. RY*(   5) C  41                  0.00012     1.16642   
   472. RY*(   6) C  41                  0.00000     2.75952   
   473. RY*(   7) C  41                  0.00001     0.73438   
   474. RY*(   8) C  41                  0.00001     2.83567   
   475. RY*(   9) C  41                  0.00001     2.07169   
   476. RY*(  10) C  41                  0.00001     2.79424   
   477. RY*(  11) C  41                  0.00000     1.71198   
   478. RY*(  12) C  41                  0.00000    23.15911   
   479. RY*(  13) C  41                  0.00000     1.75197   
   480. RY*(   1) H  42                  0.00074     0.44554   
   481. RY*(   2) H  42                  0.00006     2.12249   
   482. RY*(   1) H  43                  0.00035     0.44789   
   483. RY*(   2) H  43                  0.00005     2.02253   
   484. RY*(   1) H  44                  0.00075     0.52410   
   485. RY*(   2) H  44                  0.00007     2.06064   
   486. RY*(   1) C  45                  0.00260     1.22951   
   487. RY*(   2) C  45                  0.00094     1.38934   
   488. RY*(   3) C  45                  0.00059     0.72234   
   489. RY*(   4) C  45                  0.00038     0.83628   
   490. RY*(   5) C  45                  0.00009     3.02748   
   491. RY*(   6) C  45                  0.00010     2.17198   
   492. RY*(   7) C  45                  0.00005     2.32038   
   493. RY*(   8) C  45                  0.00005     2.14105   
   494. RY*(   9) C  45                  0.00003     3.39589   
   495. RY*(  10) C  45                  0.00002     2.06690   
   496. RY*(  11) C  45                  0.00001     1.64026   
   497. RY*(  12) C  45                  0.00000    22.36319   
   498. RY*(  13) C  45                  0.00001     2.87130   
   499. RY*(   1) H  46                  0.00085     0.87643   
   500. RY*(   2) H  46                  0.00006     1.80287   
   501. RY*(   1) H  47                  0.00079     0.89714   
   502. RY*(   2) H  47                  0.00006     1.78085   
   503. RY*(   1) O  48                  0.00177     1.00450   
   504. RY*(   2) O  48                  0.00141     1.09324   
   505. RY*(   3) O  48                  0.00087     1.81112   
   506. RY*(   4) O  48                  0.00005     1.57324   
   507. RY*(   5) O  48                  0.00001     5.40735   
   508. RY*(   6) O  48                  0.00000     4.97789   
   509. RY*(   7) O  48                  0.00000     4.80267   
   510. RY*(   8) O  48                  0.00000    49.37804   
   511. RY*(   9) O  48                  0.00000     2.93960   
   512. RY*(  10) O  48                  0.00001     3.13739   
   513. RY*(  11) O  48                  0.00001     3.19437   
   514. RY*(  12) O  48                  0.00001     2.97574   
   515. RY*(  13) O  48                  0.00001     3.15599   
   516. RY*(   1) O  49                  0.00176     0.98522   
   517. RY*(   2) O  49                  0.00143     1.06438   
   518. RY*(   3) O  49                  0.00087     1.83719   
   519. RY*(   4) O  49                  0.00003     2.01923   
   520. RY*(   5) O  49                  0.00000    49.82483   
   521. RY*(   6) O  49                  0.00000     4.93556   
   522. RY*(   7) O  49                  0.00001     5.02975   
   523. RY*(   8) O  49                  0.00000     4.90134   
   524. RY*(   9) O  49                  0.00001     3.11148   
   525. RY*(  10) O  49                  0.00001     2.83409   
   526. RY*(  11) O  49                  0.00000     2.87035   
   527. RY*(  12) O  49                  0.00000     2.91135   
   528. RY*(  13) O  49                  0.00000     3.04510   
   529. RY*(   1) N  50                  0.00766     1.01404   
   530. RY*(   2) N  50                  0.00510     1.39487   
   531. RY*(   3) N  50                  0.00359     2.16861   
   532. RY*(   4) N  50                  0.00215     1.20583   
   533. RY*(   5) N  50                  0.00164     2.25175   
   534. RY*(   6) N  50                  0.00124     2.87479   
   535. RY*(   7) N  50                  0.00027     1.50545   
   536. RY*(   8) N  50                  0.00009     2.54612   
   537. RY*(   9) N  50                  0.00004     4.65316   
   538. RY*(  10) N  50                  0.00000     3.84291   
   539. RY*(  11) N  50                  0.00000    32.56910   
   540. RY*(  12) N  50                  0.00001     3.91531   
   541. RY*(  13) N  50                  0.00001     3.99444   
   542. BD*(   1) C   1 - H   2          0.00960     0.50746   
   543. BD*(   1) C   1 - C   3          0.00723     0.69815   
   544. BD*(   2) C   1 - C   3          0.04471     0.07670   
   545. BD*(   1) C   1 - C   7          0.01325     0.52449   
   546. BD*(   1) C   3 - H   4          0.00855     0.50328   
   547. BD*(   1) C   3 - C   5          0.02769     0.50150   
   548. BD*(   1) C   5 - O   6          0.00613     0.67613   
   549. BD*(   2) C   5 - O   6          0.06888     0.06253   
   550. BD*(   1) C   5 - C  45          0.03124     0.42288   
   551. BD*(   1) C   7 - C   8          0.01090     0.60663   
   552. BD*(   2) C   7 - C   8          0.18678     0.04664  560(v),557(v),544(v),183(g)
                                                    209(v),170(g)
   553. BD*(   1) C   7 - C   9          0.01627     0.59349   
   554. BD*(   1) C   8 - C  10          0.00688     0.62669   
   555. BD*(   1) C   8 - H  11          0.00633     0.51533   
   556. BD*(   1) C   9 - C  12          0.01774     0.59567   
   557. BD*(   2) C   9 - C  12          0.19432     0.03059  560(v),552(v),599(v),600(v)
                                                    566(v),195(g),225(g)
   558. BD*(   1) C   9 - N  50          0.04992     0.30264   
   559. BD*(   1) C  10 - C  14          0.01302     0.60445   
   560. BD*(   2) C  10 - C  14          0.18178     0.04067  552(v),557(v),243(g),209(g)
                                                    211(g),252(v)
   561. BD*(   1) C  10 - H  15          0.00639     0.50229   
   562. BD*(   1) C  12 - C  14          0.02235     0.56904   
   563. BD*(   1) C  12 - O  18          0.01160     0.42899   
   564. BD*(   1) C  14 - O  16          0.01002     0.42293   
   565. BD*(   1) O  16 - H  17          0.00334     0.45863   
   566. BD*(   1) O  18 - C  19          0.00467     0.34791   
   567. BD*(   1) C  19 - H  20          0.00705     0.47352   
   568. BD*(   1) C  19 - H  21          0.00401     0.48358   
   569. BD*(   1) C  19 - H  22          0.00752     0.47473   
   570. BD*(   1) C  23 - H  24          0.00940     0.50228   
   571. BD*(   1) C  23 - C  25          0.00670     0.69123   
   572. BD*(   1) C  23 - C  29          0.01255     0.53756   
   573. BD*(   1) C  25 - H  26          0.00754     0.50315   
   574. BD*(   1) C  25 - C  27          0.02649     0.50808   
   575. BD*(   1) C  27 - O  28          0.00634     0.66689   
   576. BD*(   2) C  27 - O  28          0.04518     0.05667   
   577. BD*(   1) C  27 - C  45          0.03115     0.41562   
   578. BD*(   1) C  29 - C  30          0.01064     0.61411   
   579. BD*(   1) C  29 - C  31          0.01264     0.60489   
   580. BD*(   1) C  30 - C  32          0.00669     0.61547   
   581. BD*(   2) C  30 - C  32          0.03214     0.04849   
   582. BD*(   1) C  30 - H  33          0.00645     0.51018   
   583. BD*(   1) C  31 - C  34          0.01253     0.62181   
   584. BD*(   2) C  31 - C  34          0.06988     0.04913   
   585. BD*(   1) C  31 - H  35          0.00639     0.50106   
   586. BD*(   1) C  32 - C  36          0.01245     0.59787   
   587. BD*(   1) C  32 - H  37          0.00640     0.49287   
   588. BD*(   1) C  34 - C  36          0.02248     0.56770   
   589. BD*(   1) C  34 - O  40          0.01343     0.41942   
   590. BD*(   1) C  36 - O  38          0.01026     0.40404   
   591. BD*(   1) O  38 - H  39          0.00343     0.44929   
   592. BD*(   1) O  40 - C  41          0.00457     0.35154   
   593. BD*(   1) C  41 - H  42          0.00763     0.45890   
   594. BD*(   1) C  41 - H  43          0.00429     0.47672   
   595. BD*(   1) C  41 - H  44          0.00784     0.46658   
   596. BD*(   1) C  45 - H  46          0.00444     0.47053   
   597. BD*(   1) C  45 - H  47          0.00438     0.47027   
   598. BD (   1) O  48 - O  49          0.43235    -0.27425  536(v)
   599. BD*(   1) O  48 - N  50          0.02876     0.51531   
   600. BD*(   1) O  49 - N  50          0.02769     0.52572   
       -------------------------------
              Total Lewis  103.37246  ( 96.6098%)
        Valence non-Lewis    3.41464  (  3.1913%)
        Rydberg non-Lewis    0.21291  (  0.1990%)
       -------------------------------
            Total unit  1  107.00000  (100.0000%)
           Charge unit  1    1.00000
 
 Molecular unit  2  (H)
    92. LP (   1) H  13                  0.99997    -9.61074  293(r),140(r)
   235. RY*(   1) H  13                  0.00001     0.47067   
   236. RY*(   2) H  13                  0.00001     1.61834   
       -------------------------------
              Total Lewis    0.99997  ( 99.9977%)
        Valence non-Lewis    0.00000  (  0.0000%)
        Rydberg non-Lewis    0.00002  (  0.0023%)
       -------------------------------
            Total unit  2    0.99999  (100.0000%)
           Charge unit  2   -0.49999
 1\1\GINC-N11\SP\UM062X\6-311G(d)\C21H20N1O8(2)\UNKNOWN\04-Dec-2024\0\\
 # pop=nbo M062X/6-311g(d) scrf=(smd,solvent=generic,read) temperature=
 363.15\\Reagente 1\\0,2\C,0,2.171164,1.304693,0.443851\H,0,1.803269,2.
 247282,0.047782\C,0,1.459923,0.669425,1.383926\H,0,1.789602,-0.252754,
 1.852999\C,0,0.16899,1.163253,1.90897\O,0,-0.415538,0.533023,2.763964\
 C,0,3.463577,0.893451,-0.114721\C,0,4.323383,1.877681,-0.608559\C,0,3.
 945704,-0.418877,-0.166253\C,0,5.585216,1.571517,-1.098596\H,0,3.99454
 3,2.910568,-0.596195\C,0,5.189547,-0.768635,-0.661268\H,0,4.966436,-1.
 041929,5.350106\C,0,6.030094,0.254658,-1.129476\H,0,6.229624,2.360814,
 -1.472924\O,0,7.229117,-0.123724,-1.613413\H,0,7.722093,0.647547,-1.92
 3485\O,0,5.537363,-2.074514,-0.751736\C,0,6.511875,-2.48575,0.217619\H
 ,0,6.130943,-2.313695,1.226052\H,0,6.664391,-3.55083,0.057991\H,0,7.45
 1084,-1.951277,0.06915\C,0,-2.910993,1.007235,0.656737\H,0,-2.570316,1
 .062485,1.687841\C,0,-2.185039,1.601672,-0.303806\H,0,-2.474468,1.5620
 77,-1.34959\C,0,-0.937961,2.341944,-0.059606\O,0,-0.332066,2.849897,-0
 .981669\C,0,-4.146473,0.250195,0.466315\C,0,-4.750602,-0.343236,1.5773
 47\C,0,-4.758841,0.092748,-0.787658\C,0,-5.920652,-1.080532,1.4474\H,0
 ,-4.294349,-0.234305,2.555491\C,0,-5.920067,-0.639701,-0.929967\H,0,-4
 .332956,0.531498,-1.683318\C,0,-6.511969,-1.238343,0.199059\H,0,-6.375
 861,-1.546638,2.316114\O,0,-7.639962,-1.955412,-0.001952\H,0,-7.949767
 ,-2.322066,0.836284\O,0,-6.470536,-0.811955,-2.166622\C,0,-7.666641,-0
 .061135,-2.37264\H,0,-7.466526,1.009408,-2.268678\H,0,-7.992785,-0.272
 289,-3.389543\H,0,-8.446602,-0.361224,-1.670414\C,0,-0.408344,2.468129
 ,1.369789\H,0,-1.206308,2.771397,2.047349\H,0,0.3571,3.244531,1.361072
 \O,0,3.441202,-2.15868,1.246968\O,0,2.136373,-1.805815,-0.426356\N,0,3
 .103126,-1.555072,0.251665\\Version=ES64L-G16RevA.03\State=2-A\HF=-146
 6.4488003\S2=1.670342\S2-1=0.\S2A=0.758388\RMSD=4.882e-09\Dipole=-17.2
 453431,3.8756017,-9.2073026\Quadrupole=87.6977048,8.8138865,-96.511591
 4,47.5776334,-114.7419662,12.9725521\PG=C01 [X(C21H20N1O8)]\\@


 UNLESS WE CHANGE DIRECTIONS, WE WILL WIND UP WHERE WE ARE HEADED.
     -- CONFUCIUS
 Job cpu time:       0 days  0 hours 15 minutes 31.0 seconds.
 Elapsed time:       0 days  0 hours 15 minutes 32.7 seconds.
 File lengths (MBytes):  RWF=    627 Int=      0 D2E=      0 Chk=     28 Scr=      1
 Normal termination of Gaussian 16 at Wed Dec  4 16:12:57 2024.
