 Entering Gaussian System, Link 0=g16
 Initial command:
 /sw/cluster/pub/apps//g16/l1.exe "/data/natrosa/25869/Gau-317564.inp" -scrdir="/data/natrosa/25869/"
 Entering Link 1 = /sw/cluster/pub/apps//g16/l1.exe PID=    317565.
  
 Copyright (c) 1988,1990,1992,1993,1995,1998,2003,2009,2016,
            Gaussian, Inc.  All Rights Reserved.
  
 This is part of the Gaussian(R) 16 program.  It is based on
 the Gaussian(R) 09 system (copyright 2009, Gaussian, Inc.),
 the Gaussian(R) 03 system (copyright 2003, Gaussian, Inc.),
 the Gaussian(R) 98 system (copyright 1998, Gaussian, Inc.),
 the Gaussian(R) 94 system (copyright 1995, Gaussian, Inc.),
 the Gaussian 92(TM) system (copyright 1992, Gaussian, Inc.),
 the Gaussian 90(TM) system (copyright 1990, Gaussian, Inc.),
 the Gaussian 88(TM) system (copyright 1988, Gaussian, Inc.),
 the Gaussian 86(TM) system (copyright 1986, Carnegie Mellon
 University), and the Gaussian 82(TM) system (copyright 1983,
 Carnegie Mellon University). Gaussian is a federally registered
 trademark of Gaussian, Inc.
  
 This software contains proprietary and confidential information,
 including trade secrets, belonging to Gaussian, Inc.
  
 This software is provided under written license and may be
 used, copied, transmitted, or stored only in accord with that
 written license.
  
 The following legend is applicable only to US Government
 contracts under FAR:
  
                    RESTRICTED RIGHTS LEGEND
  
 Use, reproduction and disclosure by the US Government is
 subject to restrictions as set forth in subparagraphs (a)
 and (c) of the Commercial Computer Software - Restricted
 Rights clause in FAR 52.227-19.
  
 Gaussian, Inc.
 340 Quinnipiac St., Bldg. 40, Wallingford CT 06492
  
  
 ---------------------------------------------------------------
 Warning -- This program may not be used in any manner that
 competes with the business of Gaussian, Inc. or will provide
 assistance to any competitor of Gaussian, Inc.  The licensee
 of this program is prohibited from giving any competitor of
 Gaussian, Inc. access to this program.  By using this program,
 the user acknowledges that Gaussian, Inc. is engaged in the
 business of creating and licensing software in the field of
 computational chemistry and represents and warrants to the
 licensee that it is not a competitor of Gaussian, Inc. and that
 it will not use this program in any manner prohibited above.
 ---------------------------------------------------------------
  

 Cite this work as:
 Gaussian 16, Revision A.03,
 M. J. Frisch, G. W. Trucks, H. B. Schlegel, G. E. Scuseria, 
 M. A. Robb, J. R. Cheeseman, G. Scalmani, V. Barone, 
 G. A. Petersson, H. Nakatsuji, X. Li, M. Caricato, A. V. Marenich, 
 J. Bloino, B. G. Janesko, R. Gomperts, B. Mennucci, H. P. Hratchian, 
 J. V. Ortiz, A. F. Izmaylov, J. L. Sonnenberg, D. Williams-Young, 
 F. Ding, F. Lipparini, F. Egidi, J. Goings, B. Peng, A. Petrone, 
 T. Henderson, D. Ranasinghe, V. G. Zakrzewski, J. Gao, N. Rega, 
 G. Zheng, W. Liang, M. Hada, M. Ehara, K. Toyota, R. Fukuda, 
 J. Hasegawa, M. Ishida, T. Nakajima, Y. Honda, O. Kitao, H. Nakai, 
 T. Vreven, K. Throssell, J. A. Montgomery, Jr., J. E. Peralta, 
 F. Ogliaro, M. J. Bearpark, J. J. Heyd, E. N. Brothers, K. N. Kudin, 
 V. N. Staroverov, T. A. Keith, R. Kobayashi, J. Normand, 
 K. Raghavachari, A. P. Rendell, J. C. Burant, S. S. Iyengar, 
 J. Tomasi, M. Cossi, J. M. Millam, M. Klene, C. Adamo, R. Cammi, 
 J. W. Ochterski, R. L. Martin, K. Morokuma, O. Farkas, 
 J. B. Foresman, and D. J. Fox, Gaussian, Inc., Wallingford CT, 2016.
 
 ******************************************
 Gaussian 16:  ES64L-G16RevA.03 25-Dec-2016
                 2-Dec-2024 
 ******************************************
 %oldchk=/home/natrosa/MOSSRI/REACAO-1/M06-2X-6-311G-D/CURCUMIN-OPT-FREQ-Reag-1-M
 06-2X-6-311G-D-363.chk
 %chk=CURCUMIN-Reag-1-M062X-6-311G-D-363-NBO.chk
 Copying data from "/home/natrosa/MOSSRI/REACAO-1/M06-2X-6-311G-D/CURCUMIN-OPT-FREQ-Reag-1-M06-2X-6-311G-D-363.chk" to current chk file "CURCUMIN-Reag-1-M062X-6-311G-D-363-NBO.chk"
 IOpt=  2 FromEx=T IUOpen= 4 IOptOp= 5 NList=   0 IFRang= 0 IUIn= 4 IUOut= 2.
 ----------------------------------------------------------------------
 # pop=nbo M062X/6-311g(d) scrf=(smd,solvent=generic,read) temperature=
 363.15 Geom=Check Guess=Read
 ----------------------------------------------------------------------
 1/29=2,38=1,40=2,112=363150,172=1/1;
 2/12=2,40=1/2;
 3/5=4,6=6,7=1,11=2,14=-4,25=1,30=1,70=32203,72=-2,74=-55,116=-2/1,2,3;
 4/5=1/1;
 5/5=2,38=6/2;
 6/7=2,8=2,9=2,10=2,28=1,40=1/1,7;
 99/5=1,9=1/99;
 ----------
 Reagente 1
 ----------
 Structure from the checkpoint file:  "CURCUMIN-Reag-1-M062X-6-311G-D-363-NBO.chk"
 Charge =  0 Multiplicity = 2
 Redundant internal coordinates found in file.  (old form).
 C,0,2.1126207165,1.1289173595,0.9260603023
 H,0,1.7136494119,2.1286474145,0.775623994
 C,0,1.3835100819,0.2293575446,1.6260501542
 H,0,1.7251577963,-0.7872975957,1.7906536188
 C,0,0.0752340205,0.522626466,2.2257270732
 O,0,-0.5216072629,-0.3338266031,2.849211129
 C,0,3.4019467772,0.9086596451,0.3351383956
 C,0,4.0648813846,1.9384387854,-0.2993871447
 C,0,4.0597176307,-0.43526694,0.3974445842
 C,0,5.3657510337,1.8016199854,-0.7872737322
 H,0,3.5743352788,2.9022059891,-0.3841651007
 C,0,5.4718123241,-0.4938642836,-0.0741641349
 H,0,3.9596834852,-0.9178171027,1.3724595248
 C,0,6.0844135544,0.596626448,-0.6396018718
 H,0,5.8565051954,2.6481167031,-1.2564919866
 O,0,7.3832799872,0.4971293423,-1.0277247735
 H,0,7.6734983433,1.333001459,-1.4139291114
 O,0,5.9851221501,-1.721399908,0.0898887751
 C,0,6.9197328328,-2.2326720677,-0.8709011443
 H,0,7.9198694604,-1.8470998938,-0.6868338983
 H,0,6.9026119959,-3.3123721764,-0.7406034253
 H,0,6.597427427,-1.9750204196,-1.8808006711
 C,0,-3.0084304768,0.7003602572,0.9430516333
 H,0,-2.6758006471,0.4661595142,1.9514459181
 C,0,-2.2733411758,1.5365123939,0.1928704448
 H,0,-2.5509412865,1.7901704979,-0.8257452984
 C,0,-1.0329979938,2.1840139077,0.6487060929
 O,0,-0.4190486481,2.9247159918,-0.0934690032
 C,0,-4.244805713,0.031727611,0.5412552692
 C,0,-4.8664117692,-0.8332746434,1.4451752709
 C,0,-4.8454438053,0.2257008349,-0.713331297
 C,0,-6.0427824438,-1.493010377,1.1127105968
 H,0,-4.4198809751,-0.9981166468,2.4199692499
 C,0,-6.0121213566,-0.4270794733,-1.0568664535
 H,0,-4.4074624023,0.8851030762,-1.4545641157
 C,0,-6.6227979695,-1.2999850428,-0.1360370215
 H,0,-6.5121419492,-2.16944255,1.8208748469
 O,0,-7.7569990208,-1.9200252914,-0.5317737496
 H,0,-8.0796989076,-2.4951387755,0.1740340815
 O,0,-6.5512691679,-0.2523421833,-2.2983506976
 C,0,-7.7325467818,0.5483584231,-2.3029831045
 H,0,-7.5150979077,1.5496720571,-1.919512377
 H,0,-8.0542786856,0.619083621,-3.3405813364
 H,0,-8.5233228464,0.0884738478,-1.7073590204
 C,0,-0.5260444429,1.9185847936,2.0653660225
 H,0,-1.3401517195,2.0024430357,2.7848159163
 H,0,0.2186607253,2.682179201,2.2900646009
 O,0,2.58568109,-2.2538247313,-0.0147219767
 O,0,3.4089218378,-1.2549894984,-1.7291241987
 N,0,3.274355814,-1.4127750021,-0.5398008501
 Recover connectivity data from disk.
                           ----------------------------
                           !    Current Parameters    !
                           ! (Angstroms and Degrees)  !
 --------------------------                            --------------------------
 ! Name  Definition              Value                                          !
 --------------------------------------------------------------------------------
 ! R1    R(1,2)                  1.0869                                         !
 ! R2    R(1,3)                  1.3531                                         !
 ! R3    R(1,7)                  1.4353                                         !
 ! R4    R(3,4)                  1.0851                                         !
 ! R5    R(3,5)                  1.4687                                         !
 ! R6    R(5,6)                  1.2159                                         !
 ! R7    R(5,45)                 1.5284                                         !
 ! R8    R(7,8)                  1.3793                                         !
 ! R9    R(7,9)                  1.4976                                         !
 ! R10   R(8,10)                 1.3961                                         !
 ! R11   R(8,11)                 1.0847                                         !
 ! R12   R(9,12)                 1.4899                                         !
 ! R13   R(9,13)                 1.0925                                         !
 ! R14   R(9,50)                 1.5655                                         !
 ! R15   R(10,14)                1.4108                                         !
 ! R16   R(10,15)                1.0852                                         !
 ! R17   R(12,14)                1.3727                                         !
 ! R18   R(12,18)                1.3406                                         !
 ! R19   R(14,16)                1.3593                                         !
 ! R20   R(16,17)                0.9654                                         !
 ! R21   R(18,19)                1.4346                                         !
 ! R22   R(19,20)                1.0876                                         !
 ! R23   R(19,21)                1.0877                                         !
 ! R24   R(19,22)                1.0909                                         !
 ! R25   R(23,24)                1.0874                                         !
 ! R26   R(23,25)                1.3425                                         !
 ! R27   R(23,29)                1.4619                                         !
 ! R28   R(25,26)                1.0858                                         !
 ! R29   R(25,27)                1.4716                                         !
 ! R30   R(27,28)                1.2151                                         !
 ! R31   R(27,45)                1.5279                                         !
 ! R32   R(29,30)                1.397                                          !
 ! R33   R(29,31)                1.4044                                         !
 ! R34   R(30,32)                1.3891                                         !
 ! R35   R(30,33)                1.0848                                         !
 ! R36   R(31,34)                1.3803                                         !
 ! R37   R(31,35)                1.0845                                         !
 ! R38   R(32,36)                1.3903                                         !
 ! R39   R(32,37)                1.086                                          !
 ! R40   R(34,36)                1.4081                                         !
 ! R41   R(34,40)                1.3647                                         !
 ! R42   R(36,38)                1.3518                                         !
 ! R43   R(38,39)                0.9659                                         !
 ! R44   R(40,41)                1.4271                                         !
 ! R45   R(41,42)                1.0941                                         !
 ! R46   R(41,43)                1.0886                                         !
 ! R47   R(41,44)                1.0916                                         !
 ! R48   R(45,46)                1.0897                                         !
 ! R49   R(45,47)                1.09                                           !
 ! R50   R(48,50)                1.2072                                         !
 ! R51   R(49,50)                1.2073                                         !
 ! A1    A(2,1,3)              119.0341                                         !
 ! A2    A(2,1,7)              114.4515                                         !
 ! A3    A(3,1,7)              126.5143                                         !
 ! A4    A(1,3,4)              122.1216                                         !
 ! A5    A(1,3,5)              123.9493                                         !
 ! A6    A(4,3,5)              113.929                                          !
 ! A7    A(3,5,6)              120.394                                          !
 ! A8    A(3,5,45)             119.338                                          !
 ! A9    A(6,5,45)             120.2671                                         !
 ! A10   A(1,7,8)              120.4356                                         !
 ! A11   A(1,7,9)              121.0072                                         !
 ! A12   A(8,7,9)              118.5565                                         !
 ! A13   A(7,8,10)             122.3741                                         !
 ! A14   A(7,8,11)             118.811                                          !
 ! A15   A(10,8,11)            118.7602                                         !
 ! A16   A(7,9,12)             116.0025                                         !
 ! A17   A(7,9,13)             113.16                                           !
 ! A18   A(7,9,50)             108.3667                                         !
 ! A19   A(12,9,13)            110.6042                                         !
 ! A20   A(12,9,50)            105.1534                                         !
 ! A21   A(13,9,50)            102.2736                                         !
 ! A22   A(8,10,14)            121.4529                                         !
 ! A23   A(8,10,15)            119.74                                           !
 ! A24   A(14,10,15)           118.7617                                         !
 ! A25   A(9,12,14)            121.4748                                         !
 ! A26   A(9,12,18)            111.1106                                         !
 ! A27   A(14,12,18)           127.37                                           !
 ! A28   A(10,14,12)           119.6258                                         !
 ! A29   A(10,14,16)           121.2926                                         !
 ! A30   A(12,14,16)           119.0735                                         !
 ! A31   A(14,16,17)           109.7612                                         !
 ! A32   A(12,18,19)           119.5922                                         !
 ! A33   A(18,19,20)           111.064                                          !
 ! A34   A(18,19,21)           105.2656                                         !
 ! A35   A(18,19,22)           110.0804                                         !
 ! A36   A(20,19,21)           110.2507                                         !
 ! A37   A(20,19,22)           110.1591                                         !
 ! A38   A(21,19,22)           109.9188                                         !
 ! A39   A(24,23,25)           119.0037                                         !
 ! A40   A(24,23,29)           114.525                                          !
 ! A41   A(25,23,29)           126.468                                          !
 ! A42   A(23,25,26)           121.9873                                         !
 ! A43   A(23,25,27)           124.2276                                         !
 ! A44   A(26,25,27)           113.7842                                         !
 ! A45   A(25,27,28)           120.3253                                         !
 ! A46   A(25,27,45)           119.3699                                         !
 ! A47   A(28,27,45)           120.3047                                         !
 ! A48   A(23,29,30)           118.7944                                         !
 ! A49   A(23,29,31)           122.9602                                         !
 ! A50   A(30,29,31)           118.2439                                         !
 ! A51   A(29,30,32)           121.0652                                         !
 ! A52   A(29,30,33)           119.4953                                         !
 ! A53   A(32,30,33)           119.4381                                         !
 ! A54   A(29,31,34)           121.2314                                         !
 ! A55   A(29,31,35)           121.4556                                         !
 ! A56   A(34,31,35)           117.31                                           !
 ! A57   A(30,32,36)           120.153                                          !
 ! A58   A(30,32,37)           120.382                                          !
 ! A59   A(36,32,37)           119.4629                                         !
 ! A60   A(31,34,36)           119.7998                                         !
 ! A61   A(31,34,40)           119.9845                                         !
 ! A62   A(36,34,40)           120.1937                                         !
 ! A63   A(32,36,34)           119.5041                                         !
 ! A64   A(32,36,38)           123.3163                                         !
 ! A65   A(34,36,38)           117.1779                                         !
 ! A66   A(36,38,39)           109.8448                                         !
 ! A67   A(34,40,41)           113.691                                          !
 ! A68   A(40,41,42)           110.3561                                         !
 ! A69   A(40,41,43)           106.5098                                         !
 ! A70   A(40,41,44)           111.192                                          !
 ! A71   A(42,41,43)           109.4723                                         !
 ! A72   A(42,41,44)           109.7741                                         !
 ! A73   A(43,41,44)           109.4717                                         !
 ! A74   A(5,45,27)            112.7365                                         !
 ! A75   A(5,45,46)            107.1535                                         !
 ! A76   A(5,45,47)            110.4524                                         !
 ! A77   A(27,45,46)           110.5435                                         !
 ! A78   A(27,45,47)           107.2251                                         !
 ! A79   A(46,45,47)           108.6877                                         !
 ! A80   A(9,50,48)            117.4393                                         !
 ! A81   A(9,50,49)            116.8893                                         !
 ! A82   A(48,50,49)           125.671                                          !
 ! D1    D(2,1,3,4)            178.859                                          !
 ! D2    D(2,1,3,5)             -1.0211                                         !
 ! D3    D(7,1,3,4)             -1.1143                                         !
 ! D4    D(7,1,3,5)            179.0056                                         !
 ! D5    D(2,1,7,8)              3.1905                                         !
 ! D6    D(2,1,7,9)           -177.0975                                         !
 ! D7    D(3,1,7,8)           -176.8352                                         !
 ! D8    D(3,1,7,9)              2.8769                                         !
 ! D9    D(1,3,5,6)           -179.5779                                         !
 ! D10   D(1,3,5,45)             0.0722                                         !
 ! D11   D(4,3,5,6)              0.5332                                         !
 ! D12   D(4,3,5,45)          -179.8167                                         !
 ! D13   D(3,5,45,27)           72.8038                                         !
 ! D14   D(3,5,45,46)         -165.3564                                         !
 ! D15   D(3,5,45,47)          -47.1274                                         !
 ! D16   D(6,5,45,27)         -107.5456                                         !
 ! D17   D(6,5,45,46)           14.2942                                         !
 ! D18   D(6,5,45,47)          132.5232                                         !
 ! D19   D(1,7,8,10)           174.4096                                         !
 ! D20   D(1,7,8,11)            -2.8648                                         !
 ! D21   D(9,7,8,10)            -5.3094                                         !
 ! D22   D(9,7,8,11)           177.4162                                         !
 ! D23   D(1,7,9,12)          -171.5044                                         !
 ! D24   D(1,7,9,13)           -42.1194                                         !
 ! D25   D(1,7,9,50)            70.5647                                         !
 ! D26   D(8,7,9,12)             8.2129                                         !
 ! D27   D(8,7,9,13)           137.5979                                         !
 ! D28   D(8,7,9,50)          -109.718                                          !
 ! D29   D(7,8,10,14)           -0.8715                                         !
 ! D30   D(7,8,10,15)         -178.3928                                         !
 ! D31   D(11,8,10,14)         176.4043                                         !
 ! D32   D(11,8,10,15)          -1.117                                          !
 ! D33   D(7,9,12,14)           -5.5372                                         !
 ! D34   D(7,9,12,18)          176.7216                                         !
 ! D35   D(13,9,12,14)        -136.1458                                         !
 ! D36   D(13,9,12,18)          46.113                                          !
 ! D37   D(50,9,12,14)         114.1535                                         !
 ! D38   D(50,9,12,18)         -63.5877                                         !
 ! D39   D(7,9,50,48)         -107.0916                                         !
 ! D40   D(7,9,50,49)           72.692                                          !
 ! D41   D(12,9,50,48)         128.2628                                         !
 ! D42   D(12,9,50,49)         -51.9536                                         !
 ! D43   D(13,9,50,48)          12.6662                                         !
 ! D44   D(13,9,50,49)        -167.5502                                         !
 ! D45   D(8,10,14,12)           3.8215                                         !
 ! D46   D(8,10,14,16)        -175.1319                                         !
 ! D47   D(15,10,14,12)       -178.6336                                         !
 ! D48   D(15,10,14,16)          2.413                                          !
 ! D49   D(9,12,14,10)          -0.3244                                         !
 ! D50   D(9,12,14,16)         178.6524                                         !
 ! D51   D(18,12,14,10)        177.0239                                         !
 ! D52   D(18,12,14,16)         -3.9993                                         !
 ! D53   D(9,12,18,19)         145.1369                                         !
 ! D54   D(14,12,18,19)        -32.4389                                         !
 ! D55   D(10,14,16,17)         -1.6694                                         !
 ! D56   D(12,14,16,17)        179.3715                                         !
 ! D57   D(12,18,19,20)         80.8321                                         !
 ! D58   D(12,18,19,21)       -159.854                                          !
 ! D59   D(12,18,19,22)        -41.4441                                         !
 ! D60   D(24,23,25,26)        178.9252                                         !
 ! D61   D(24,23,25,27)         -0.697                                          !
 ! D62   D(29,23,25,26)         -0.3821                                         !
 ! D63   D(29,23,25,27)        179.9958                                         !
 ! D64   D(24,23,29,30)         -0.7266                                         !
 ! D65   D(24,23,29,31)        178.8197                                         !
 ! D66   D(25,23,29,30)        178.6075                                         !
 ! D67   D(25,23,29,31)         -1.8463                                         !
 ! D68   D(23,25,27,28)        179.6224                                         !
 ! D69   D(23,25,27,45)         -0.5153                                         !
 ! D70   D(26,25,27,28)         -0.0273                                         !
 ! D71   D(26,25,27,45)        179.835                                          !
 ! D72   D(25,27,45,5)          73.5694                                         !
 ! D73   D(25,27,45,46)        -46.3342                                         !
 ! D74   D(25,27,45,47)       -164.6559                                         !
 ! D75   D(28,27,45,5)        -106.5683                                         !
 ! D76   D(28,27,45,46)        133.5282                                         !
 ! D77   D(28,27,45,47)         15.2064                                         !
 ! D78   D(23,29,30,32)        179.9899                                         !
 ! D79   D(23,29,30,33)         -0.4444                                         !
 ! D80   D(31,29,30,32)          0.4221                                         !
 ! D81   D(31,29,30,33)        179.9877                                         !
 ! D82   D(23,29,31,34)        179.8376                                         !
 ! D83   D(23,29,31,35)          0.4782                                         !
 ! D84   D(30,29,31,34)         -0.6138                                         !
 ! D85   D(30,29,31,35)       -179.9732                                         !
 ! D86   D(29,30,32,36)          0.0211                                         !
 ! D87   D(29,30,32,37)        179.4847                                         !
 ! D88   D(33,30,32,36)       -179.5448                                         !
 ! D89   D(33,30,32,37)         -0.0812                                         !
 ! D90   D(29,31,34,36)          0.3591                                         !
 ! D91   D(29,31,34,40)       -177.9369                                         !
 ! D92   D(35,31,34,36)        179.7441                                         !
 ! D93   D(35,31,34,40)          1.4481                                         !
 ! D94   D(30,32,36,34)         -0.286                                          !
 ! D95   D(30,32,36,38)        179.2295                                         !
 ! D96   D(37,32,36,34)       -179.7546                                         !
 ! D97   D(37,32,36,38)         -0.239                                          !
 ! D98   D(31,34,36,32)          0.0978                                         !
 ! D99   D(31,34,36,38)       -179.4471                                         !
 ! D100  D(40,34,36,32)        178.3902                                         !
 ! D101  D(40,34,36,38)         -1.1548                                         !
 ! D102  D(31,34,40,41)       -107.1812                                         !
 ! D103  D(36,34,40,41)         74.5296                                         !
 ! D104  D(32,36,38,39)          0.0128                                         !
 ! D105  D(34,36,38,39)        179.5389                                         !
 ! D106  D(34,40,41,42)         60.7152                                         !
 ! D107  D(34,40,41,43)        179.454                                          !
 ! D108  D(34,40,41,44)        -61.3492                                         !
 --------------------------------------------------------------------------------
                          Input orientation:                          
 ---------------------------------------------------------------------
 Center     Atomic      Atomic             Coordinates (Angstroms)
 Number     Number       Type             X           Y           Z
 ---------------------------------------------------------------------
      1          6           0        2.112621    1.128917    0.926060
      2          1           0        1.713649    2.128647    0.775624
      3          6           0        1.383510    0.229358    1.626050
      4          1           0        1.725158   -0.787298    1.790654
      5          6           0        0.075234    0.522626    2.225727
      6          8           0       -0.521607   -0.333827    2.849211
      7          6           0        3.401947    0.908660    0.335138
      8          6           0        4.064881    1.938439   -0.299387
      9          6           0        4.059718   -0.435267    0.397445
     10          6           0        5.365751    1.801620   -0.787274
     11          1           0        3.574335    2.902206   -0.384165
     12          6           0        5.471812   -0.493864   -0.074164
     13          1           0        3.959683   -0.917817    1.372460
     14          6           0        6.084414    0.596626   -0.639602
     15          1           0        5.856505    2.648117   -1.256492
     16          8           0        7.383280    0.497129   -1.027725
     17          1           0        7.673498    1.333001   -1.413929
     18          8           0        5.985122   -1.721400    0.089889
     19          6           0        6.919733   -2.232672   -0.870901
     20          1           0        7.919869   -1.847100   -0.686834
     21          1           0        6.902612   -3.312372   -0.740603
     22          1           0        6.597427   -1.975020   -1.880801
     23          6           0       -3.008430    0.700360    0.943052
     24          1           0       -2.675801    0.466160    1.951446
     25          6           0       -2.273341    1.536512    0.192870
     26          1           0       -2.550941    1.790170   -0.825745
     27          6           0       -1.032998    2.184014    0.648706
     28          8           0       -0.419049    2.924716   -0.093469
     29          6           0       -4.244806    0.031728    0.541255
     30          6           0       -4.866412   -0.833275    1.445175
     31          6           0       -4.845444    0.225701   -0.713331
     32          6           0       -6.042782   -1.493010    1.112711
     33          1           0       -4.419881   -0.998117    2.419969
     34          6           0       -6.012121   -0.427079   -1.056866
     35          1           0       -4.407462    0.885103   -1.454564
     36          6           0       -6.622798   -1.299985   -0.136037
     37          1           0       -6.512142   -2.169443    1.820875
     38          8           0       -7.756999   -1.920025   -0.531774
     39          1           0       -8.079699   -2.495139    0.174034
     40          8           0       -6.551269   -0.252342   -2.298351
     41          6           0       -7.732547    0.548358   -2.302983
     42          1           0       -7.515098    1.549672   -1.919512
     43          1           0       -8.054279    0.619084   -3.340581
     44          1           0       -8.523323    0.088474   -1.707359
     45          6           0       -0.526044    1.918585    2.065366
     46          1           0       -1.340152    2.002443    2.784816
     47          1           0        0.218661    2.682179    2.290065
     48          8           0        2.585681   -2.253825   -0.014722
     49          8           0        3.408922   -1.254989   -1.729124
     50          7           0        3.274356   -1.412775   -0.539801
 ---------------------------------------------------------------------
                    Distance matrix (angstroms):
                    1          2          3          4          5
     1  C    0.000000
     2  H    1.086862   0.000000
     3  C    1.353069   2.107017   0.000000
     4  H    2.137646   3.087580   1.085083   0.000000
     5  C    2.491519   2.714131   1.468743   2.151148   0.000000
     6  O    3.574533   3.919173   2.332975   2.524705   1.215921
     7  C    1.435292   2.129025   2.490380   2.793997   3.845824
     8  C    2.443024   2.592319   3.717260   4.155986   4.929301
     9  C    2.552899   3.495814   3.018822   2.741373   4.487347
    10  C    3.737767   3.985905   4.914711   5.157725   6.221219
    11  H    2.645345   2.325007   3.998099   4.664947   4.971684
    12  C    3.862388   4.660847   4.486423   4.195363   5.953638
    13  H    2.792854   3.831687   2.831428   2.277065   4.229881
    14  C    4.302298   4.842885   5.231306   5.179237   6.657764
    15  H    4.592186   4.643554   5.845266   6.176989   7.075779
    16  O    5.656526   6.169168   6.565932   6.450376   7.999571
    17  H    6.036602   6.398984   7.072726   7.081509   8.463890
    18  O    4.880549   5.791250   5.228774   4.681073   6.672648
    19  C    6.134956   6.988237   6.553329   6.013035   8.001746
    20  H    6.721774   7.514154   7.237755   6.755411   8.696949
    21  H    6.741427   7.670005   6.971756   6.292003   8.373734
    22  H    6.134035   6.909991   6.658995   6.215245   8.101902
    23  C    5.138980   4.936200   4.469617   5.033728   3.344523
    24  H    4.941623   4.838770   4.079211   4.578804   2.765251
    25  C    4.465463   4.072631   4.139471   4.892954   3.267457
    26  H    5.025424   4.567897   4.891559   5.636835   4.220776
    27  C    3.329425   2.750136   3.258127   4.211907   2.544677
    28  O    3.267060   2.436688   3.670275   4.682583   3.375355
    29  C    6.462876   6.321012   5.735310   6.154044   4.662743
    30  C    7.268189   7.246964   6.342194   6.600777   5.183396
    31  C    7.205419   6.989986   6.653765   7.104147   5.739277
    32  C    8.568544   8.566929   7.640673   7.829338   6.536951
    33  H    7.030620   7.078186   5.984676   6.180775   4.749363
    34  C    8.506736   8.341301   7.894575   8.252492   6.980921
    35  H    6.945380   6.632356   6.592082   7.137044   5.811239
    36  C    9.128809   9.059967   8.339353   8.582736   7.332358
    37  H    9.277198   9.339688   8.254303   8.352505   7.127739
    38  O   10.432197  10.382400   9.634571   9.827921   8.655301
    39  H   10.843556  10.846704   9.954072  10.082926   8.934164
    40  O    9.347069   9.133855   8.865308   9.246912   8.060918
    41  C   10.377432  10.060107   9.931846  10.391824   9.026146
    42  H   10.048248   9.631654   9.669512  10.227858   8.709246
    43  H   11.037663  10.706743  10.671981  11.133053   9.853023
    44  H   11.006394  10.729544  10.453555  10.864365   9.465349
    45  C    2.980628   2.593027   2.587061   3.530606   1.528382
    46  H    4.017419   3.657661   3.450348   4.262292   2.122676
    47  H    2.803607   2.198845   2.795375   3.815261   2.165266
    48  O    3.542852   4.537747   3.209913   2.480037   4.362412
    49  O    3.796500   4.538360   4.190796   3.929712   5.469391
    50  N    3.155721   4.087520   3.311013   2.867447   4.650624
                    6          7          8          9         10
     6  O    0.000000
     7  C    4.822718   0.000000
     8  C    6.009388   1.379330   0.000000
     9  C    5.197113   1.497559   2.473880   0.000000
    10  C    7.241902   2.431813   1.396071   2.848323   0.000000
    11  H    6.140307   2.126345   1.084744   3.461970   2.140784
    12  C    6.670293   2.533564   2.818914   1.489919   2.406039
    13  H    4.754346   2.173275   3.311244   1.092481   3.746573
    14  C    7.528418   2.871082   2.448411   2.497932   1.410777
    15  H    8.150405   3.403506   2.151652   3.933345   1.085155
    16  O    8.843549   4.228211   3.690477   3.734506   2.414526
    17  H    9.386822   4.635241   3.825033   4.412172   2.436801
    18  O    7.202551   3.694612   4.151299   2.335789   3.683029
    19  C    8.533369   4.867989   5.086745   3.608192   4.324045
    20  H    9.276429   5.389830   5.416766   4.250847   4.454971
    21  H    8.767983   5.588290   5.984848   4.201778   5.340134
    22  H    8.703286   4.841187   4.922380   3.741820   4.120175
    23  C    3.299587   6.442506   7.287540   7.179558   8.621700
    24  H    2.467085   6.304544   7.257455   6.970990   8.599453
    25  C    3.690919   5.711684   6.370002   6.636068   7.706276
    26  H    4.704770   6.128751   6.638384   7.081637   7.916794
    27  C    3.382789   4.625320   5.191104   5.732322   6.569037
    28  O    4.391809   4.341451   4.595734   5.620483   5.933516
    29  C    4.395736   7.699631   8.566979   8.318887   9.862064
    30  C    4.593266   8.522457   9.512828   8.996218  10.799243
    31  C    5.630306   8.341773   9.082880   8.998478  10.332352
    32  C    5.902755   9.776275  10.767253  10.182875  12.025771
    33  H    3.977696   8.316448   9.381335   8.735617  10.671622
    34  C    6.738834   9.609712  10.378605  10.176297  11.597231
    35  H    5.925212   8.011895   8.615368   8.767351   9.838749
    36  C    6.860736  10.275973  11.168731  10.730726  12.400378
    37  H    6.349289  10.486719  11.543120  10.807300  12.792815
    38  O    8.142357  11.544482  12.437789  11.945825  13.642672
    39  H    8.303770  11.976643  12.937216  12.314967  14.148017
    40  O    7.928484  10.360970  11.022614  10.949603  12.186775
    41  C    8.906234  11.448426  12.046827  12.137435  13.245129
    42  H    8.671632  11.165850  11.699225  11.970156  12.932970
    43  H    9.796056  12.034944  12.564378  12.721376  13.711855
    44  H    9.217815  12.126688  12.801080  12.768610  14.024543
    45  C    2.384909   4.409394   5.164209   5.417730   6.547098
    46  H    2.476352   5.448374   6.223406   6.387532   7.600611
    47  H    3.155461   4.135265   4.695937   5.296621   6.061183
    48  O    4.641524   3.284813   4.454676   2.376934   4.977174
    49  O    6.103995   2.990419   3.559834   2.370185   3.749550
    50  N    5.201814   2.484121   3.451574   1.565485   3.842852
                   11         12         13         14         15
    11  H    0.000000
    12  C    3.902539   0.000000
    13  H    4.222180   2.135179   0.000000
    14  C    3.417812   1.372651   3.294906   0.000000
    15  H    2.456383   3.379043   4.819253   2.154323   0.000000
    16  O    4.550453   2.354794   4.414065   1.359262   2.647664
    17  H    4.508432   3.159087   5.159706   1.914947   2.248506
    18  O    5.235872   1.340613   2.528465   2.432131   4.574053
    19  C    6.147810   2.398899   3.939975   2.959086   5.010113
    20  H    6.444469   2.863493   4.559312   3.056620   4.978851
    21  H    7.058715   3.230374   4.342782   3.994987   6.073542
    22  H    5.930122   2.593216   4.319615   2.901228   4.723571
    23  C    7.066996   8.624118   7.166415   9.230134   9.339102
    24  H    7.103070   8.450345   6.802960   9.136296   9.372942
    25  C    6.032695   8.011313   6.801894   8.451536   8.332510
    26  H    6.241044   8.375337   7.386037   8.719435   8.462078
    27  C    4.775997   7.071501   5.922165   7.405207   7.163130
    28  O    4.004014   6.810970   6.007271   6.929162   6.388404
    29  C    8.380633   9.750264   8.300975  10.411835  10.588384
    30  C    9.409916  10.454782   8.826800  11.238838  11.593103
    31  C    8.841081  10.362050   9.120769  10.936398  10.986120
    32  C   10.679303  11.618643  10.022357  12.430047  12.820105
    33  H    9.326477  10.213744   8.445166  11.056418  11.507193
    34  C   10.170389  11.526096  10.275181  12.146944  12.262177
    35  H    8.302021  10.070110   9.013973  10.527433  10.416164
    36  C   11.031840  12.121603  10.696286  12.857836  13.136816
    37  H   11.503080  12.248016  10.555888  13.129291  13.625803
    38  O   12.315634  13.313331  11.912648  14.068755  14.377783
    39  H   12.855327  13.700736  12.201266  14.520437  14.923715
    40  O   10.776973  12.229466  11.153378  12.772340  12.784795
    41  C   11.707606  13.431640  12.343695  13.916809  13.790086
    42  H   11.276620  13.275586  12.190004  13.692815  13.433017
    43  H   12.213833  13.959344  12.996542  14.394388  14.211626
    44  H   12.490847  14.102136  12.896641  14.655521  14.612820
    45  C    4.876559   6.809683   5.352294   7.263786   7.232143
    46  H    5.916434   7.797959   6.213769   8.296212   8.278945
    47  H    4.296565   6.578178   5.272307   6.880373   6.660669
    48  O    5.262944   3.380939   2.365813   4.555949   6.022401
    49  O    4.372477   2.752040   3.168098   3.431297   4.631229
    50  N    4.328195   2.426938   2.090789   3.456021   4.865386
                   16         17         18         19         20
    16  O    0.000000
    17  H    0.965434   0.000000
    18  O    2.850575   3.800191   0.000000
    19  C    2.773317   3.684708   1.434578   0.000000
    20  H    2.428898   3.271454   2.088623   1.087575   0.000000
    21  H    3.850426   4.756798   2.015613   1.087669   1.784580
    22  H    2.730719   3.509830   2.079148   1.090946   1.786274
    23  C   10.578890  10.957153   9.352903  10.510068  11.339040
    24  H   10.491021  10.917195   9.124823  10.359710  11.161537
    25  C    9.788795  10.077839   8.878447   9.992546  10.776096
    26  H   10.020055  10.251543   9.275446  10.289751  11.085437
    27  C    8.745841   8.987868   8.050996   9.222920   9.908955
    28  O    8.224497   8.352634   7.914128   9.003375   9.625999
    29  C   11.742686  12.147511  10.388870  11.479051  12.370025
    30  C   12.567424  13.042875  10.971844  12.092797  13.002396
    31  C   12.235776  12.587330  11.033473  12.020308  12.932534
    32  C   13.740498  14.230482  12.073476  13.134254  14.082592
    33  H   12.386967  12.898942  10.687212  11.871849  12.753134
    34  C   13.427278  13.802955  12.121228  13.058622  14.009060
    35  H   11.804843  12.089329  10.825202  11.762931  12.649801
    36  C   14.149026  14.592797  12.616984  13.594487  14.563375
    37  H   14.432875  14.965409  12.624526  13.699084  14.651807
    38  O   15.340034  15.794323  13.757609  14.683978  15.677805
    39  H   15.795620  16.289245  14.086339  15.038076  16.035811
    40  O   14.012418  14.340137  12.846125  13.690406  14.647665
    41  C   15.169612  15.451612  14.108582  14.982466  15.916918
    42  H   14.962112  15.198553  14.035439  14.958946  15.852311
    43  H   15.610330  15.861420  14.640723  15.441919  16.379800
    44  H   15.926359  16.247214  14.730944  15.638905  16.588143
    45  C    8.610758   8.926416   7.716689   9.016329   9.648235
    46  H    9.638449   9.966118   8.648079   9.976280  10.612225
    47  H    8.192310   8.432939   7.581844   8.891110   9.417267
    48  O    5.622355   6.380359   3.442473   4.417861   5.391727
    49  O    4.399705   4.998366   3.187970   3.744089   4.667506
    50  N    4.557309   5.258882   2.800002   3.751084   4.668089
                   21         22         23         24         25
    21  H    0.000000
    22  H    1.783731   0.000000
    23  C   10.824300  10.363605   0.000000
    24  H   10.642858  10.326579   1.087360   0.000000
    25  C   10.420229   9.763274   1.342490   2.097669   0.000000
    26  H   10.743038   9.948993   2.127352   3.079186   1.085810
    27  C    9.752658   9.050932   2.488011   2.710527   1.471562
    28  O    9.639853   8.742592   3.567497   3.913963   2.333988
    29  C   11.708590  11.289261   1.461894   2.153868   2.504480
    30  C   12.224298  11.991051   2.460947   2.596847   3.729366
    31  C   12.269292  11.710912   2.518635   3.444736   3.025746
    32  C   13.203336  12.998783   3.747926   3.984770   4.922682
    33  H   11.980978  11.867268   2.656746   2.324959   3.998993
    34  C   13.236891  12.730896   3.780602   4.580268   4.404090
    35  H   12.084963  11.378470   2.782082   3.843835   2.773598
    36  C   13.687656  13.351937   4.269598   4.801629   5.203045
    37  H   13.704856  13.623546   4.613278   4.656282   5.861052
    38  O   14.727065  14.417783   5.620537   6.138309   6.522520
    39  H   15.032434  14.829393   6.043208   6.413314   7.068830
    40  O   13.885146  13.267637   4.895512   5.796229   5.263730
    41  C   15.216246  14.556574   5.733857   6.608903   6.083474
    42  H   15.261050  14.546076   5.406076   6.291035   5.651402
    43  H   15.681990  14.951014   6.619419   7.546984   6.837119
    44  H   15.825923  15.261886   6.149237   6.908185   6.691036
    45  C    9.509012   9.026419   2.984276   2.596915   2.589453
    46  H   10.422044  10.029624   2.805471   2.199689   2.793943
    47  H    9.476012   8.931645   4.019474   3.661053   3.452658
    48  O    4.503701   4.433293   6.398330   6.240779   6.166024
    49  O    4.173232   3.272311   7.221241   7.316611   6.616242
    50  N    4.100370   3.627286   6.792466   6.718710   6.325508
                   26         27         28         29         30
    26  H    0.000000
    27  C    2.152504   0.000000
    28  O    2.523567   1.215071   0.000000
    29  C    2.798212   3.867763   4.838251   0.000000
    30  C    4.171444   4.943021   6.022372   1.397031   0.000000
    31  C    2.779378   4.497208   5.221292   1.404414   2.404375
    32  C    5.170091   6.231673   7.252417   2.425718   1.389112
    33  H    4.669277   4.973359   6.141062   2.149604   1.084798
    34  C    4.116963   5.875241   6.591292   2.426500   2.781701
    35  H    2.158988   4.183052   4.681885   2.176695   3.401756
    36  C    5.157982   6.633245   7.505759   2.808386   2.408930
    37  H    6.194695   7.095603   8.169513   3.409309   2.152887
    38  O    6.399610   7.965479   8.803928   4.158874   3.666722
    39  H    7.066158   8.472059   9.387862   4.607202   3.834424
    40  O    4.726843   6.713590   7.249781   3.669309   4.146108
    41  C    5.529319   7.501453   8.001018   4.530004   4.916536
    42  H    5.088911   7.001125   7.455139   4.365128   4.900520
    43  H    6.163000   8.225680   8.611412   5.470441   5.930877
    44  H    6.272349   8.126949   8.736599   4.833756   4.915393
    45  C    3.532028   1.527868   2.384181   4.439857   5.176500
    46  H    3.814082   2.165705   3.159674   4.165849   4.719157
    47  H    4.263173   2.123411   2.479260   5.477751   6.239408
    48  O    6.587605   5.764494   5.987644   7.224155   7.725474
    49  O    6.753448   6.100121   5.899039   8.086397   8.873284
    50  N    6.653924   5.736091   5.714392   7.732597   8.399289
                   31         32         33         34         35
    31  C    0.000000
    32  C    2.778852   0.000000
    33  H    3.390635   2.141881   0.000000
    34  C    1.380317   2.417481   3.866484   0.000000
    35  H    1.084465   3.862719   4.307979   2.110667   0.000000
    36  C    2.412462   1.390341   3.387792   1.408125   3.379473
    37  H    3.864815   1.085981   2.471533   3.401065   4.948578
    38  O    3.621361   2.413547   4.549622   2.355676   4.465387
    39  H    4.318656   2.456502   4.547479   3.172832   5.250113
    40  O    2.377110   3.665127   5.230826   1.364733   2.569371
    41  C    3.311565   4.323130   5.972572   2.337552   3.448101
    42  H    3.214782   4.540926   5.907850   2.628810   3.211733
    43  H    4.165791   5.323426   7.000580   3.237316   4.114255
    44  H    3.812311   4.075164   5.920621   2.644819   4.199861
    45  C    5.407793   6.555984   4.877997   6.734056   5.340730
    46  H    5.261266   6.093346   4.315229   6.518313   5.350625
    47  H    6.379642   7.617351   5.922628   7.726065   6.217133
    48  O    7.864968   8.735006   7.522129   8.851286   7.799363
    49  O    8.447416   9.872558   8.864035   9.481214   8.108714
    50  N    8.285280   9.462891   8.254300   9.352947   8.070153
                   36         37         38         39         40
    36  C    0.000000
    37  H    2.144226   0.000000
    38  O    1.351839   2.673356   0.000000
    39  H    1.909737   2.296823   0.965948   0.000000
    40  O    2.403804   4.543658   2.712148   3.671365   0.000000
    41  C    3.056726   5.087439   3.038206   3.939417   1.427081
    42  H    3.478150   5.369193   3.744748   4.589358   2.078398
    43  H    4.000133   6.065863   3.798006   4.695908   2.025997
    44  H    2.829994   4.646662   2.450168   3.226685   2.086725
    45  C    7.237111   7.252938   8.588758   8.950742   7.749728
    46  H    6.880681   6.714409   8.219577   8.512692   7.620918
    47  H    8.279442   8.310360   9.630899  10.007246   8.688896
    48  O    9.258543   9.281537  10.360975  10.669779   9.628331
    49  O   10.157527  10.576683  11.249609  11.711037  10.026701
    50  N    9.906028  10.095587  11.043014  11.427845  10.048980
                   41         42         43         44         45
    41  C    0.000000
    42  H    1.094058   0.000000
    43  H    1.088634   1.782175   0.000000
    44  H    1.091599   1.787911   1.780159   0.000000
    45  C    8.537779   8.053709   9.358808   9.029907   0.000000
    46  H    8.298360   7.775967   9.193132   8.685670   1.089684
    47  H    9.427141   8.877732  10.217733   9.956354   1.090024
    48  O   10.934084  10.959952  11.511893  11.478735   5.605230
    49  O   11.301049  11.279919  11.726633  12.007657   6.320893
    50  N   11.318426  11.273509  11.845285  11.949986   5.685762
                   46         47         48         49         50
    46  H    0.000000
    47  H    1.771078   0.000000
    48  O    6.431593   5.939610   0.000000
    49  O    7.317118   6.467839   2.148156   0.000000
    50  N    6.634039   5.840724   1.207206   1.207267   0.000000
 Stoichiometry    C21H20NO8(2)
 Framework group  C1[X(C21H20NO8)]
 Deg. of freedom   144
 Full point group                 C1      NOp   1
 Largest Abelian subgroup         C1      NOp   1
 Largest concise Abelian subgroup C1      NOp   1
                         Standard orientation:                         
 ---------------------------------------------------------------------
 Center     Atomic      Atomic             Coordinates (Angstroms)
 Number     Number       Type             X           Y           Z
 ---------------------------------------------------------------------
      1          6           0        2.136650    1.356628    0.366938
      2          1           0        1.748629    2.215147   -0.174961
      3          6           0        1.399942    0.825343    1.369831
      4          1           0        1.730504   -0.042242    1.931462
      5          6           0        0.097448    1.351631    1.798475
      6          8           0       -0.506798    0.827276    2.714118
      7          6           0        3.421069    0.900890   -0.083211
      8          6           0        4.093355    1.578530   -1.078895
      9          6           0        4.063571   -0.311195    0.517394
     10          6           0        5.390674    1.240593   -1.468480
     11          1           0        3.613606    2.431781   -1.546306
     12          6           0        5.473069   -0.572349    0.111226
     13          1           0        3.961751   -0.357545    1.604132
     14          6           0        6.095991    0.189339   -0.845837
     15          1           0        5.889322    1.819435   -2.239100
     16          8           0        7.392121   -0.074137   -1.159239
     17          1           0        7.690445    0.530940   -1.849852
     18          8           0        5.972852   -1.635126    0.757730
     19          6           0        6.897808   -2.502173    0.086388
     20          1           0        7.903017   -2.087218    0.100141
     21          1           0        6.868770   -3.436949    0.641701
     22          1           0        6.574598   -2.670528   -0.941889
     23          6           0       -2.988889    1.033352    0.549855
     24          1           0       -2.655091    1.222425    1.567294
     25          6           0       -2.247127    1.486291   -0.473332
     26          1           0       -2.525715    1.310222   -1.507920
     27          6           0       -0.997669    2.247708   -0.316506
     28          8           0       -0.378105    2.618035   -1.293949
     29          6           0       -4.234415    0.274386    0.451004
     30          6           0       -4.862441   -0.144214    1.626610
     31          6           0       -4.837613   -0.047689   -0.775698
     32          6           0       -6.047597   -0.867761    1.587655
     33          1           0       -4.414082    0.093355    2.585422
     34          6           0       -6.013039   -0.769463   -0.827579
     35          1           0       -4.394936    0.250778   -1.719636
     36          6           0       -6.630163   -1.188595    0.366701
     37          1           0       -6.521973   -1.194784    2.508187
     38          8           0       -7.772939   -1.901899    0.253878
     39          1           0       -8.099510   -2.138968    1.131491
     40          8           0       -6.554923   -1.104585   -2.034456
     41          6           0       -7.726920   -0.359775   -2.363456
     42          1           0       -7.496490    0.708405   -2.416894
     43          1           0       -8.051815   -0.710309   -3.341562
     44          1           0       -8.520632   -0.530295   -1.633707
     45          6           0       -0.488345    2.571020    1.087217
     46          1           0       -1.298654    2.948166    1.710571
     47          1           0        0.265956    3.351253    0.985153
     48          8           0        2.567133   -2.123328    0.873294
     49          8           0        3.395195   -1.912121   -1.097563
     50          7           0        3.263408   -1.574423    0.053996
 ---------------------------------------------------------------------
 Rotational constants (GHZ):           0.3358879           0.0493949           0.0481819
 Standard basis: 6-311G(d) (5D, 7F)
 There are   630 symmetry adapted cartesian basis functions of A   symmetry.
 There are   600 symmetry adapted basis functions of A   symmetry.
   600 basis functions,  1060 primitive gaussians,   630 cartesian basis functions
   109 alpha electrons      108 beta electrons
       nuclear repulsion energy      2715.7640255779 Hartrees.
 NAtoms=   50 NActive=   50 NUniq=   50 SFac= 1.00D+00 NAtFMM=   60 NAOKFM=F Big=F
 Integral buffers will be    131072 words long.
 Raffenetti 2 integral format.
 Two-electron integral symmetry is turned on.
 Using the following non-standard input for PCM:
 Eps=7
 EpsInf=1.85341
 HbondAcidity=0
 HbondBasicity=0.48
 SurfaceTensionAtInterface=60.62
 CarbonAromaticity=0
 ElectronegativeHalogenicity=0
 --- end of non-standard input.
 ------------------------------------------------------------------------------
 Polarizable Continuum Model (PCM)
 =================================
 Model                : PCM.
 Atomic radii         : SMD-Coulomb.
 Polarization charges : Total charges.
 Charge compensation  : None.
 Solution method      : On-the-fly selection.
 Cavity type          : VdW (van der Waals Surface) (Alpha=1.000).
 Cavity algorithm     : GePol (No added spheres)
                        Default sphere list used, NSphG=   50.
                        Lebedev-Laikov grids with approx.  5.0 points / Ang**2.
                        Smoothing algorithm: York/Karplus (Gamma=1.0000).
                        Polarization charges: spherical gaussians, with
                                              point-specific exponents (IZeta= 3).
                        Self-potential: point-specific (ISelfS= 7).
                        Self-field    : sphere-specific E.n sum rule (ISelfD= 2).
 Solvent              : Generic,
                        Eps                           =   7.000000
                        Eps(infinity)                 =   1.853410
                        RSolv                         =   0.000000 Ang.
                        Molar volume                  =   0.000000 cm**3/mol
                        Thermal expansion coefficient =   0.000000 K**-1
                        Absolute temperature          = 298.150000 K
                        Numeral density               =   0.000000 Ang**-3
                        Hydrogen bond acidity         =   0.000000
                        Hydrogen bond basicity        =   0.480000
                        Surface tension at interface  =  60.620000 (cal/mol)*Ang**-2
                        Carbon aromaticity            =   0.000000
                        Electronegative halogenicity  =   0.000000
 ------------------------------------------------------------------------------
 ------------------------------------------------------------------------------
 Atomic radii for non-electrostatic terms: SMD-CDS.
 ------------------------------------------------------------------------------
 Nuclear repulsion after PCM non-electrostatic terms =     2715.7599400122 Hartrees.
 One-electron integrals computed using PRISM.
 NBasis=   600 RedAO= T EigKep=  1.71D-04  NBF=   600
 NBsUse=   600 1.00D-06 EigRej= -1.00D+00 NBFU=   600
 Initial guess from the checkpoint file:  "CURCUMIN-Reag-1-M062X-6-311G-D-363-NBO.chk"
 B after Tr=     0.000000   -0.000000   -0.000000
         Rot=    1.000000    0.000000   -0.000000    0.000000 Ang=   0.00 deg.
 Initial guess <Sx>= 0.0000 <Sy>= 0.0000 <Sz>= 0.5000 <S**2>= 0.7944 S= 0.5220
 Requested convergence on RMS density matrix=1.00D-08 within 128 cycles.
 Requested convergence on MAX density matrix=1.00D-06.
 Requested convergence on             energy=1.00D-06.
 No special actions if energy rises.
 Inv3:  Mode=1 IEnd=    49377747.
 Iteration    1 A*A^-1 deviation from unit magnitude is 3.33D-15 for   3854.
 Iteration    1 A*A^-1 deviation from orthogonality  is 1.82D-15 for   1373     86.
 Iteration    1 A^-1*A deviation from unit magnitude is 3.33D-15 for    956.
 Iteration    1 A^-1*A deviation from orthogonality  is 2.22D-15 for   3651    650.
 Error on total polarization charges =  0.03298
 SCF Done:  E(UM062X) =  -1468.40902725     A.U. after    1 cycles
            NFock=  1  Conv=0.41D-08     -V/T= 2.0031
 <Sx>= 0.0000 <Sy>= 0.0000 <Sz>= 0.5000 <S**2>= 0.7944 S= 0.5220
 <L.S>=  0.00000000000    
 SMD-CDS (non-electrostatic) energy       (kcal/mol) =      -2.56
 (included in total energy above)
 Annihilation of the first spin contaminant:
 S**2 before annihilation     0.7944,   after     0.7511

 **********************************************************************

            Population analysis using the SCF density.

 **********************************************************************

 Orbital symmetries:
 Alpha Orbitals:
       Occupied  (A) (A) (A) (A) (A) (A) (A) (A) (A) (A) (A) (A)
                 (A) (A) (A) (A) (A) (A) (A) (A) (A) (A) (A) (A)
                 (A) (A) (A) (A) (A) (A) (A) (A) (A) (A) (A) (A)
                 (A) (A) (A) (A) (A) (A) (A) (A) (A) (A) (A) (A)
                 (A) (A) (A) (A) (A) (A) (A) (A) (A) (A) (A) (A)
                 (A) (A) (A) (A) (A) (A) (A) (A) (A) (A) (A) (A)
                 (A) (A) (A) (A) (A) (A) (A) (A) (A) (A) (A) (A)
                 (A) (A) (A) (A) (A) (A) (A) (A) (A) (A) (A) (A)
                 (A) (A) (A) (A) (A) (A) (A) (A) (A) (A) (A) (A)
                 (A)
       Virtual   (A) (A) (A) (A) (A) (A) (A) (A) (A) (A) (A) (A)
                 (A) (A) (A) (A) (A) (A) (A) (A) (A) (A) (A) (A)
                 (A) (A) (A) (A) (A) (A) (A) (A) (A) (A) (A) (A)
                 (A) (A) (A) (A) (A) (A) (A) (A) (A) (A) (A) (A)
                 (A) (A) (A) (A) (A) (A) (A) (A) (A) (A) (A) (A)
                 (A) (A) (A) (A) (A) (A) (A) (A) (A) (A) (A) (A)
                 (A) (A) (A) (A) (A) (A) (A) (A) (A) (A) (A) (A)
                 (A) (A) (A) (A) (A) (A) (A) (A) (A) (A) (A) (A)
                 (A) (A) (A) (A) (A) (A) (A) (A) (A) (A) (A) (A)
                 (A) (A) (A) (A) (A) (A) (A) (A) (A) (A) (A) (A)
                 (A) (A) (A) (A) (A) (A) (A) (A) (A) (A) (A) (A)
                 (A) (A) (A) (A) (A) (A) (A) (A) (A) (A) (A) (A)
                 (A) (A) (A) (A) (A) (A) (A) (A) (A) (A) (A) (A)
                 (A) (A) (A) (A) (A) (A) (A) (A) (A) (A) (A) (A)
                 (A) (A) (A) (A) (A) (A) (A) (A) (A) (A) (A) (A)
                 (A) (A) (A) (A) (A) (A) (A) (A) (A) (A) (A) (A)
                 (A) (A) (A) (A) (A) (A) (A) (A) (A) (A) (A) (A)
                 (A) (A) (A) (A) (A) (A) (A) (A) (A) (A) (A) (A)
                 (A) (A) (A) (A) (A) (A) (A) (A) (A) (A) (A) (A)
                 (A) (A) (A) (A) (A) (A) (A) (A) (A) (A) (A) (A)
                 (A) (A) (A) (A) (A) (A) (A) (A) (A) (A) (A) (A)
                 (A) (A) (A) (A) (A) (A) (A) (A) (A) (A) (A) (A)
                 (A) (A) (A) (A) (A) (A) (A) (A) (A) (A) (A) (A)
                 (A) (A) (A) (A) (A) (A) (A) (A) (A) (A) (A) (A)
                 (A) (A) (A) (A) (A) (A) (A) (A) (A) (A) (A) (A)
                 (A) (A) (A) (A) (A) (A) (A) (A) (A) (A) (A) (A)
                 (A) (A) (A) (A) (A) (A) (A) (A) (A) (A) (A) (A)
                 (A) (A) (A) (A) (A) (A) (A) (A) (A) (A) (A) (A)
                 (A) (A) (A) (A) (A) (A) (A) (A) (A) (A) (A) (A)
                 (A) (A) (A) (A) (A) (A) (A) (A) (A) (A) (A) (A)
                 (A) (A) (A) (A) (A) (A) (A) (A) (A) (A) (A) (A)
                 (A) (A) (A) (A) (A) (A) (A) (A) (A) (A) (A) (A)
                 (A) (A) (A) (A) (A) (A) (A) (A) (A) (A) (A) (A)
                 (A) (A) (A) (A) (A) (A) (A) (A) (A) (A) (A) (A)
                 (A) (A) (A) (A) (A) (A) (A) (A) (A) (A) (A) (A)
                 (A) (A) (A) (A) (A) (A) (A) (A) (A) (A) (A) (A)
                 (A) (A) (A) (A) (A) (A) (A) (A) (A) (A) (A) (A)
                 (A) (A) (A) (A) (A) (A) (A) (A) (A) (A) (A) (A)
                 (A) (A) (A) (A) (A) (A) (A) (A) (A) (A) (A) (A)
                 (A) (A) (A) (A) (A) (A) (A) (A) (A) (A) (A) (A)
                 (A) (A) (A) (A) (A) (A) (A) (A) (A) (A) (A)
 Beta  Orbitals:
       Occupied  (A) (A) (A) (A) (A) (A) (A) (A) (A) (A) (A) (A)
                 (A) (A) (A) (A) (A) (A) (A) (A) (A) (A) (A) (A)
                 (A) (A) (A) (A) (A) (A) (A) (A) (A) (A) (A) (A)
                 (A) (A) (A) (A) (A) (A) (A) (A) (A) (A) (A) (A)
                 (A) (A) (A) (A) (A) (A) (A) (A) (A) (A) (A) (A)
                 (A) (A) (A) (A) (A) (A) (A) (A) (A) (A) (A) (A)
                 (A) (A) (A) (A) (A) (A) (A) (A) (A) (A) (A) (A)
                 (A) (A) (A) (A) (A) (A) (A) (A) (A) (A) (A) (A)
                 (A) (A) (A) (A) (A) (A) (A) (A) (A) (A) (A) (A)
       Virtual   (A) (A) (A) (A) (A) (A) (A) (A) (A) (A) (A) (A)
                 (A) (A) (A) (A) (A) (A) (A) (A) (A) (A) (A) (A)
                 (A) (A) (A) (A) (A) (A) (A) (A) (A) (A) (A) (A)
                 (A) (A) (A) (A) (A) (A) (A) (A) (A) (A) (A) (A)
                 (A) (A) (A) (A) (A) (A) (A) (A) (A) (A) (A) (A)
                 (A) (A) (A) (A) (A) (A) (A) (A) (A) (A) (A) (A)
                 (A) (A) (A) (A) (A) (A) (A) (A) (A) (A) (A) (A)
                 (A) (A) (A) (A) (A) (A) (A) (A) (A) (A) (A) (A)
                 (A) (A) (A) (A) (A) (A) (A) (A) (A) (A) (A) (A)
                 (A) (A) (A) (A) (A) (A) (A) (A) (A) (A) (A) (A)
                 (A) (A) (A) (A) (A) (A) (A) (A) (A) (A) (A) (A)
                 (A) (A) (A) (A) (A) (A) (A) (A) (A) (A) (A) (A)
                 (A) (A) (A) (A) (A) (A) (A) (A) (A) (A) (A) (A)
                 (A) (A) (A) (A) (A) (A) (A) (A) (A) (A) (A) (A)
                 (A) (A) (A) (A) (A) (A) (A) (A) (A) (A) (A) (A)
                 (A) (A) (A) (A) (A) (A) (A) (A) (A) (A) (A) (A)
                 (A) (A) (A) (A) (A) (A) (A) (A) (A) (A) (A) (A)
                 (A) (A) (A) (A) (A) (A) (A) (A) (A) (A) (A) (A)
                 (A) (A) (A) (A) (A) (A) (A) (A) (A) (A) (A) (A)
                 (A) (A) (A) (A) (A) (A) (A) (A) (A) (A) (A) (A)
                 (A) (A) (A) (A) (A) (A) (A) (A) (A) (A) (A) (A)
                 (A) (A) (A) (A) (A) (A) (A) (A) (A) (A) (A) (A)
                 (A) (A) (A) (A) (A) (A) (A) (A) (A) (A) (A) (A)
                 (A) (A) (A) (A) (A) (A) (A) (A) (A) (A) (A) (A)
                 (A) (A) (A) (A) (A) (A) (A) (A) (A) (A) (A) (A)
                 (A) (A) (A) (A) (A) (A) (A) (A) (A) (A) (A) (A)
                 (A) (A) (A) (A) (A) (A) (A) (A) (A) (A) (A) (A)
                 (A) (A) (A) (A) (A) (A) (A) (A) (A) (A) (A) (A)
                 (A) (A) (A) (A) (A) (A) (A) (A) (A) (A) (A) (A)
                 (A) (A) (A) (A) (A) (A) (A) (A) (A) (A) (A) (A)
                 (A) (A) (A) (A) (A) (A) (A) (A) (A) (A) (A) (A)
                 (A) (A) (A) (A) (A) (A) (A) (A) (A) (A) (A) (A)
                 (A) (A) (A) (A) (A) (A) (A) (A) (A) (A) (A) (A)
                 (A) (A) (A) (A) (A) (A) (A) (A) (A) (A) (A) (A)
                 (A) (A) (A) (A) (A) (A) (A) (A) (A) (A) (A) (A)
                 (A) (A) (A) (A) (A) (A) (A) (A) (A) (A) (A) (A)
                 (A) (A) (A) (A) (A) (A) (A) (A) (A) (A) (A) (A)
                 (A) (A) (A) (A) (A) (A) (A) (A) (A) (A) (A) (A)
                 (A) (A) (A) (A) (A) (A) (A) (A) (A) (A) (A) (A)
                 (A) (A) (A) (A) (A) (A) (A) (A) (A) (A) (A) (A)
                 (A) (A) (A) (A) (A) (A) (A) (A) (A) (A) (A) (A)
 The electronic state is 2-A.
 Alpha  occ. eigenvalues --  -19.66833 -19.66356 -19.66084 -19.65924 -19.65823
 Alpha  occ. eigenvalues --  -19.63397 -19.61006 -19.60977 -14.99438 -10.63305
 Alpha  occ. eigenvalues --  -10.63227 -10.62531 -10.61986 -10.61742 -10.61512
 Alpha  occ. eigenvalues --  -10.59936 -10.58236 -10.57315 -10.57246 -10.56538
 Alpha  occ. eigenvalues --  -10.56535 -10.56308 -10.56235 -10.55475 -10.55038
 Alpha  occ. eigenvalues --  -10.54799 -10.54731 -10.54574 -10.54355 -10.54119
 Alpha  occ. eigenvalues --   -1.37833  -1.21826  -1.20420  -1.19369  -1.19238
 Alpha  occ. eigenvalues --   -1.17335  -1.17090  -1.16657  -0.99422  -0.97257
 Alpha  occ. eigenvalues --   -0.92006  -0.90958  -0.90504  -0.87320  -0.85682
 Alpha  occ. eigenvalues --   -0.85009  -0.82544  -0.81006  -0.78669  -0.77857
 Alpha  occ. eigenvalues --   -0.74697  -0.73243  -0.71492  -0.70595  -0.68002
 Alpha  occ. eigenvalues --   -0.66674  -0.66021  -0.64285  -0.63361  -0.63229
 Alpha  occ. eigenvalues --   -0.62556  -0.60907  -0.60637  -0.59637  -0.58852
 Alpha  occ. eigenvalues --   -0.58662  -0.57352  -0.56536  -0.56053  -0.55455
 Alpha  occ. eigenvalues --   -0.54450  -0.54011  -0.53007  -0.52795  -0.52090
 Alpha  occ. eigenvalues --   -0.51947  -0.50735  -0.50536  -0.50076  -0.49774
 Alpha  occ. eigenvalues --   -0.49192  -0.48786  -0.48408  -0.46923  -0.46582
 Alpha  occ. eigenvalues --   -0.46064  -0.44889  -0.44557  -0.44219  -0.43770
 Alpha  occ. eigenvalues --   -0.43374  -0.43214  -0.43003  -0.42522  -0.41783
 Alpha  occ. eigenvalues --   -0.40369  -0.39503  -0.38696  -0.38548  -0.38342
 Alpha  occ. eigenvalues --   -0.35938  -0.35241  -0.34899  -0.33672  -0.31888
 Alpha  occ. eigenvalues --   -0.30701  -0.28738  -0.26755  -0.23466
 Alpha virt. eigenvalues --   -0.04288  -0.02855  -0.01359   0.02333   0.04398
 Alpha virt. eigenvalues --    0.05627   0.07050   0.07487   0.09344   0.09794
 Alpha virt. eigenvalues --    0.10005   0.10207   0.10429   0.11260   0.11589
 Alpha virt. eigenvalues --    0.11873   0.12235   0.12511   0.13603   0.14672
 Alpha virt. eigenvalues --    0.15356   0.15438   0.15945   0.16161   0.16398
 Alpha virt. eigenvalues --    0.17378   0.18110   0.18383   0.19572   0.20235
 Alpha virt. eigenvalues --    0.20811   0.22022   0.22364   0.22998   0.24053
 Alpha virt. eigenvalues --    0.25312   0.26557   0.26819   0.27211   0.27662
 Alpha virt. eigenvalues --    0.28853   0.29896   0.30728   0.31406   0.31694
 Alpha virt. eigenvalues --    0.32735   0.33060   0.34147   0.34725   0.35426
 Alpha virt. eigenvalues --    0.35996   0.36652   0.37083   0.37691   0.38443
 Alpha virt. eigenvalues --    0.39070   0.39593   0.40067   0.40189   0.40542
 Alpha virt. eigenvalues --    0.41000   0.41237   0.41781   0.41947   0.42366
 Alpha virt. eigenvalues --    0.42719   0.43213   0.43890   0.44025   0.44591
 Alpha virt. eigenvalues --    0.45068   0.45273   0.45894   0.46813   0.47138
 Alpha virt. eigenvalues --    0.47979   0.48257   0.48420   0.48685   0.49132
 Alpha virt. eigenvalues --    0.49501   0.50237   0.50371   0.50813   0.51171
 Alpha virt. eigenvalues --    0.51655   0.52116   0.52905   0.53365   0.53669
 Alpha virt. eigenvalues --    0.54117   0.55471   0.56256   0.56817   0.56986
 Alpha virt. eigenvalues --    0.57505   0.58142   0.58928   0.59435   0.59606
 Alpha virt. eigenvalues --    0.60436   0.60782   0.61505   0.61914   0.62306
 Alpha virt. eigenvalues --    0.62882   0.63199   0.63486   0.64101   0.64738
 Alpha virt. eigenvalues --    0.65033   0.65464   0.65725   0.65920   0.66020
 Alpha virt. eigenvalues --    0.66869   0.67248   0.67479   0.68024   0.68313
 Alpha virt. eigenvalues --    0.68679   0.69007   0.69675   0.70404   0.70994
 Alpha virt. eigenvalues --    0.71576   0.72235   0.72385   0.73775   0.73955
 Alpha virt. eigenvalues --    0.74258   0.75030   0.76538   0.76927   0.77499
 Alpha virt. eigenvalues --    0.79628   0.79788   0.81119   0.81317   0.82349
 Alpha virt. eigenvalues --    0.82754   0.83248   0.83697   0.84084   0.84645
 Alpha virt. eigenvalues --    0.85344   0.85654   0.86250   0.86554   0.86798
 Alpha virt. eigenvalues --    0.87944   0.88344   0.89121   0.89972   0.90743
 Alpha virt. eigenvalues --    0.91062   0.91547   0.92369   0.93833   0.94545
 Alpha virt. eigenvalues --    0.94812   0.94931   0.96531   0.97197   0.98145
 Alpha virt. eigenvalues --    0.98420   0.99170   0.99910   1.00278   1.00748
 Alpha virt. eigenvalues --    1.01369   1.01552   1.02973   1.03234   1.03696
 Alpha virt. eigenvalues --    1.04670   1.05523   1.06701   1.06863   1.08312
 Alpha virt. eigenvalues --    1.09240   1.09626   1.10639   1.11375   1.13138
 Alpha virt. eigenvalues --    1.13218   1.14868   1.15888   1.16715   1.17295
 Alpha virt. eigenvalues --    1.18085   1.19966   1.20244   1.21172   1.22262
 Alpha virt. eigenvalues --    1.23166   1.23653   1.24996   1.25752   1.26361
 Alpha virt. eigenvalues --    1.27615   1.28472   1.28869   1.29275   1.30746
 Alpha virt. eigenvalues --    1.32142   1.32609   1.33694   1.35256   1.37931
 Alpha virt. eigenvalues --    1.41172   1.41378   1.41899   1.43420   1.44850
 Alpha virt. eigenvalues --    1.46657   1.48413   1.49065   1.50546   1.51128
 Alpha virt. eigenvalues --    1.51870   1.52687   1.54121   1.54895   1.55249
 Alpha virt. eigenvalues --    1.56006   1.56802   1.56952   1.57390   1.58684
 Alpha virt. eigenvalues --    1.58771   1.59331   1.59750   1.60809   1.61430
 Alpha virt. eigenvalues --    1.61569   1.62936   1.63538   1.64106   1.65404
 Alpha virt. eigenvalues --    1.66986   1.67225   1.69197   1.69281   1.70037
 Alpha virt. eigenvalues --    1.71267   1.72139   1.72602   1.73178   1.73600
 Alpha virt. eigenvalues --    1.74324   1.75486   1.75880   1.76608   1.77388
 Alpha virt. eigenvalues --    1.78022   1.79811   1.80558   1.81128   1.81664
 Alpha virt. eigenvalues --    1.82118   1.83576   1.84134   1.84345   1.84837
 Alpha virt. eigenvalues --    1.86682   1.87041   1.87621   1.88893   1.89209
 Alpha virt. eigenvalues --    1.92165   1.92969   1.94805   1.95619   1.97540
 Alpha virt. eigenvalues --    1.99647   2.00115   2.01634   2.03633   2.04784
 Alpha virt. eigenvalues --    2.06449   2.06889   2.08302   2.09852   2.12545
 Alpha virt. eigenvalues --    2.12791   2.14019   2.14585   2.15664   2.16284
 Alpha virt. eigenvalues --    2.17747   2.19151   2.21105   2.22797   2.23239
 Alpha virt. eigenvalues --    2.25892   2.28621   2.29293   2.31037   2.31156
 Alpha virt. eigenvalues --    2.32539   2.33737   2.34976   2.35305   2.35776
 Alpha virt. eigenvalues --    2.37669   2.38115   2.38511   2.39369   2.39884
 Alpha virt. eigenvalues --    2.42428   2.43704   2.45053   2.45205   2.45963
 Alpha virt. eigenvalues --    2.48521   2.49264   2.51481   2.54537   2.56091
 Alpha virt. eigenvalues --    2.57562   2.58366   2.58797   2.61364   2.65434
 Alpha virt. eigenvalues --    2.65972   2.67182   2.68130   2.70718   2.72232
 Alpha virt. eigenvalues --    2.73187   2.73793   2.75066   2.76745   2.79063
 Alpha virt. eigenvalues --    2.81187   2.84011   2.84702   2.85466   2.87325
 Alpha virt. eigenvalues --    2.89209   2.89660   2.90401   2.90832   2.92060
 Alpha virt. eigenvalues --    2.92983   2.93224   2.94310   2.95920   2.97725
 Alpha virt. eigenvalues --    2.98828   3.00350   3.00730   3.00916   3.01500
 Alpha virt. eigenvalues --    3.01860   3.02805   3.03740   3.04433   3.05119
 Alpha virt. eigenvalues --    3.06357   3.07211   3.08609   3.09063   3.10504
 Alpha virt. eigenvalues --    3.11439   3.13215   3.14002   3.16558   3.18166
 Alpha virt. eigenvalues --    3.19344   3.19605   3.20306   3.21714   3.22078
 Alpha virt. eigenvalues --    3.22439   3.22877   3.24032   3.25080   3.25906
 Alpha virt. eigenvalues --    3.26225   3.26597   3.27162   3.31425   3.32975
 Alpha virt. eigenvalues --    3.34057   3.35897   3.36275   3.36668   3.37261
 Alpha virt. eigenvalues --    3.37673   3.38239   3.39440   3.39866   3.40005
 Alpha virt. eigenvalues --    3.40161   3.41846   3.43120   3.46471   3.46709
 Alpha virt. eigenvalues --    3.48465   3.51521   3.52183   3.52643   3.54643
 Alpha virt. eigenvalues --    3.54900   3.55975   3.57178   3.58916   3.60425
 Alpha virt. eigenvalues --    3.62689   3.63716   3.67035   3.69108   3.72577
 Alpha virt. eigenvalues --    3.76626   3.77313   3.80884   3.84300   3.93923
 Alpha virt. eigenvalues --    3.94611   3.95250   3.97183   3.98500   3.99319
 Alpha virt. eigenvalues --    4.00477   4.04594   4.11936   4.13364   4.14111
 Alpha virt. eigenvalues --    4.17197   4.46830   4.50314   4.51681   4.52697
 Alpha virt. eigenvalues --    4.72118   4.82225   4.94515   4.94583   4.96627
 Alpha virt. eigenvalues --    4.99150   5.00853   5.01683   5.06182   5.07955
 Alpha virt. eigenvalues --    5.09446   5.09698   5.18165   5.18534   5.24419
 Alpha virt. eigenvalues --    5.25883   5.29728   5.32097   5.57959   5.60150
 Alpha virt. eigenvalues --    5.60675   5.69743   5.70184   5.78045   5.79178
 Alpha virt. eigenvalues --    6.09262  23.33217  23.35946  23.52182  23.52555
 Alpha virt. eigenvalues --   23.64552  23.65252  23.80866  23.82295  23.84997
 Alpha virt. eigenvalues --   23.87649  23.88518  23.94562  23.98385  24.02062
 Alpha virt. eigenvalues --   24.08546  24.11735  24.14237  24.18346  24.20851
 Alpha virt. eigenvalues --   24.21380  24.24995  35.43107  49.93804  49.98701
 Alpha virt. eigenvalues --   49.98777  50.03051  50.04944  50.06728  50.08570
 Alpha virt. eigenvalues --   50.09936
  Beta  occ. eigenvalues --  -19.66627 -19.66331 -19.66071 -19.65978 -19.65823
  Beta  occ. eigenvalues --  -19.63397 -19.61005 -19.60863 -14.99269 -10.63305
  Beta  occ. eigenvalues --  -10.63248 -10.62281 -10.62091 -10.61791 -10.61512
  Beta  occ. eigenvalues --  -10.59936 -10.58234 -10.57246 -10.57121 -10.56607
  Beta  occ. eigenvalues --  -10.56357 -10.56308 -10.56266 -10.55475 -10.55038
  Beta  occ. eigenvalues --  -10.54799 -10.54731 -10.54463 -10.54356 -10.54119
  Beta  occ. eigenvalues --   -1.37626  -1.21421  -1.20420  -1.19286  -1.19105
  Beta  occ. eigenvalues --   -1.17335  -1.16982  -1.16464  -0.98885  -0.97257
  Beta  occ. eigenvalues --   -0.91718  -0.90877  -0.89957  -0.87076  -0.85679
  Beta  occ. eigenvalues --   -0.84822  -0.82435  -0.80753  -0.77896  -0.77857
  Beta  occ. eigenvalues --   -0.74687  -0.72916  -0.71213  -0.70555  -0.67695
  Beta  occ. eigenvalues --   -0.66672  -0.65772  -0.64142  -0.63285  -0.62818
  Beta  occ. eigenvalues --   -0.62350  -0.60656  -0.60446  -0.59343  -0.58766
  Beta  occ. eigenvalues --   -0.58623  -0.57210  -0.56173  -0.55789  -0.54697
  Beta  occ. eigenvalues --   -0.54442  -0.54010  -0.52789  -0.52667  -0.51958
  Beta  occ. eigenvalues --   -0.51613  -0.50725  -0.50334  -0.50028  -0.49643
  Beta  occ. eigenvalues --   -0.49132  -0.48586  -0.48372  -0.46694  -0.46292
  Beta  occ. eigenvalues --   -0.45764  -0.44743  -0.44416  -0.44145  -0.43666
  Beta  occ. eigenvalues --   -0.43198  -0.42882  -0.42552  -0.42368  -0.40989
  Beta  occ. eigenvalues --   -0.40353  -0.39024  -0.38496  -0.38428  -0.37622
  Beta  occ. eigenvalues --   -0.35283  -0.34926  -0.34318  -0.33482  -0.31747
  Beta  occ. eigenvalues --   -0.30701  -0.26833  -0.26750
  Beta virt. eigenvalues --   -0.09629  -0.03973  -0.02005  -0.00790   0.02340
  Beta virt. eigenvalues --    0.04990   0.06377   0.07073   0.07488   0.09380
  Beta virt. eigenvalues --    0.09968   0.10255   0.10373   0.10854   0.11381
  Beta virt. eigenvalues --    0.11774   0.11887   0.12385   0.12718   0.13726
  Beta virt. eigenvalues --    0.14830   0.15373   0.15467   0.15955   0.16161
  Beta virt. eigenvalues --    0.16409   0.17471   0.18045   0.18391   0.19756
  Beta virt. eigenvalues --    0.20252   0.20821   0.22022   0.22495   0.23567
  Beta virt. eigenvalues --    0.24414   0.25492   0.26797   0.26869   0.27652
  Beta virt. eigenvalues --    0.27748   0.29096   0.30121   0.30821   0.31428
  Beta virt. eigenvalues --    0.31830   0.32869   0.33271   0.34249   0.34783
  Beta virt. eigenvalues --    0.35500   0.36101   0.36813   0.37262   0.37830
  Beta virt. eigenvalues --    0.38594   0.39283   0.39703   0.40160   0.40343
  Beta virt. eigenvalues --    0.40780   0.41010   0.41386   0.41877   0.42117
  Beta virt. eigenvalues --    0.42680   0.42850   0.43244   0.44027   0.44222
  Beta virt. eigenvalues --    0.44643   0.45314   0.45453   0.46077   0.46975
  Beta virt. eigenvalues --    0.47172   0.48164   0.48335   0.48541   0.48906
  Beta virt. eigenvalues --    0.49237   0.49715   0.50247   0.50623   0.50927
  Beta virt. eigenvalues --    0.51253   0.51895   0.52219   0.53027   0.53669
  Beta virt. eigenvalues --    0.53825   0.54276   0.55612   0.56372   0.56903
  Beta virt. eigenvalues --    0.57043   0.57553   0.58378   0.59096   0.59558
  Beta virt. eigenvalues --    0.59679   0.60508   0.60998   0.61569   0.61958
  Beta virt. eigenvalues --    0.62410   0.62908   0.63283   0.63590   0.64144
  Beta virt. eigenvalues --    0.64994   0.65151   0.65554   0.65836   0.66080
  Beta virt. eigenvalues --    0.66293   0.67164   0.67382   0.67554   0.68140
  Beta virt. eigenvalues --    0.68452   0.68808   0.69146   0.69727   0.70535
  Beta virt. eigenvalues --    0.71190   0.71710   0.72352   0.72593   0.73983
  Beta virt. eigenvalues --    0.74180   0.74489   0.75303   0.76906   0.76967
  Beta virt. eigenvalues --    0.77650   0.79767   0.79811   0.81198   0.81397
  Beta virt. eigenvalues --    0.82441   0.82858   0.83463   0.83751   0.84147
  Beta virt. eigenvalues --    0.84698   0.85357   0.85811   0.86385   0.86668
  Beta virt. eigenvalues --    0.86915   0.88010   0.88388   0.89402   0.89988
  Beta virt. eigenvalues --    0.90834   0.91167   0.91716   0.92453   0.93962
  Beta virt. eigenvalues --    0.94638   0.94896   0.95008   0.96607   0.97290
  Beta virt. eigenvalues --    0.98212   0.98604   0.99330   1.00020   1.00422
  Beta virt. eigenvalues --    1.00833   1.01411   1.01773   1.03060   1.03280
  Beta virt. eigenvalues --    1.03711   1.04942   1.05784   1.06767   1.07054
  Beta virt. eigenvalues --    1.08719   1.09428   1.09768   1.10701   1.11471
  Beta virt. eigenvalues --    1.13204   1.13837   1.15016   1.15964   1.17171
  Beta virt. eigenvalues --    1.17496   1.18324   1.19971   1.20309   1.21271
  Beta virt. eigenvalues --    1.22633   1.23538   1.24326   1.25024   1.26053
  Beta virt. eigenvalues --    1.26519   1.27645   1.28551   1.28986   1.29456
  Beta virt. eigenvalues --    1.31113   1.32163   1.32957   1.33832   1.35662
  Beta virt. eigenvalues --    1.38010   1.41259   1.41395   1.42123   1.43832
  Beta virt. eigenvalues --    1.44944   1.47134   1.48584   1.49072   1.50583
  Beta virt. eigenvalues --    1.51616   1.51934   1.52980   1.54248   1.54944
  Beta virt. eigenvalues --    1.55321   1.56144   1.56824   1.57281   1.57495
  Beta virt. eigenvalues --    1.58778   1.58927   1.59466   1.59834   1.61006
  Beta virt. eigenvalues --    1.61514   1.61624   1.63041   1.63593   1.64306
  Beta virt. eigenvalues --    1.65547   1.67138   1.67409   1.69322   1.69593
  Beta virt. eigenvalues --    1.70463   1.71419   1.72216   1.73038   1.73439
  Beta virt. eigenvalues --    1.73801   1.74406   1.75490   1.76095   1.76811
[...]
   348. RY*(   8) O  28                  0.00001     4.99386   
   349. RY*(   9) O  28                  0.00000     3.09085   
   350. RY*(  10) O  28                  0.00001     2.87460   
   351. RY*(  11) O  28                  0.00000     2.88558   
   352. RY*(  12) O  28                  0.00000     3.02738   
   353. RY*(  13) O  28                  0.00000     3.20436   
   354. RY*(   1) C  29                  0.00306     1.63340   
   355. RY*(   2) C  29                  0.00228     1.66370   
   356. RY*(   3) C  29                  0.00075     0.71124   
   357. RY*(   4) C  29                  0.00032     1.68740   
   358. RY*(   5) C  29                  0.00024     1.10166   
   359. RY*(   6) C  29                  0.00019     1.63036   
   360. RY*(   7) C  29                  0.00010     2.74443   
   361. RY*(   8) C  29                  0.00006     3.33647   
   362. RY*(   9) C  29                  0.00004     4.84304   
   363. RY*(  10) C  29                  0.00002     3.28805   
   364. RY*(  11) C  29                  0.00002     2.35687   
   365. RY*(  12) C  29                  0.00000     2.77955   
   366. RY*(  13) C  29                  0.00001    19.97549   
   367. RY*(   1) C  30                  0.00264     1.38195   
   368. RY*(   2) C  30                  0.00099     1.38290   
   369. RY*(   3) C  30                  0.00051     0.81136   
   370. RY*(   4) C  30                  0.00035     1.49609   
   371. RY*(   5) C  30                  0.00027     1.38024   
   372. RY*(   6) C  30                  0.00006     3.44913   
   373. RY*(   7) C  30                  0.00004     3.02964   
   374. RY*(   8) C  30                  0.00002     2.83469   
   375. RY*(   9) C  30                  0.00002     1.86038   
   376. RY*(  10) C  30                  0.00001     2.59496   
   377. RY*(  11) C  30                  0.00002     2.64353   
   378. RY*(  12) C  30                  0.00000     2.98994   
   379. RY*(  13) C  30                  0.00000    20.15239   
   380. RY*(   1) C  31                  0.00237     1.43239   
   381. RY*(   2) C  31                  0.00132     1.31461   
   382. RY*(   3) C  31                  0.00071     1.00305   
   383. RY*(   4) C  31                  0.00039     1.21863   
   384. RY*(   5) C  31                  0.00026     1.55866   
   385. RY*(   6) C  31                  0.00011     3.16411   
   386. RY*(   7) C  31                  0.00006     2.69688   
   387. RY*(   8) C  31                  0.00003     1.96287   
   388. RY*(   9) C  31                  0.00004     4.17351   
   389. RY*(  10) C  31                  0.00002     1.95746   
   390. RY*(  11) C  31                  0.00000    21.01901   
   391. RY*(  12) C  31                  0.00000     2.64951   
   392. RY*(  13) C  31                  0.00001     2.35257   
   393. RY*(   1) C  32                  0.00244     1.43694   
   394. RY*(   2) C  32                  0.00109     1.44832   
   395. RY*(   3) C  32                  0.00045     0.73837   
   396. RY*(   4) C  32                  0.00035     1.14462   
   397. RY*(   5) C  32                  0.00024     1.58590   
   398. RY*(   6) C  32                  0.00010     3.34682   
   399. RY*(   7) C  32                  0.00005     4.80326   
   400. RY*(   8) C  32                  0.00003     2.98054   
   401. RY*(   9) C  32                  0.00002     2.08130   
   402. RY*(  10) C  32                  0.00002     1.88673   
   403. RY*(  11) C  32                  0.00002     3.07606   
   404. RY*(  12) C  32                  0.00000     2.91292   
   405. RY*(  13) C  32                  0.00000    18.47505   
   406. RY*(   1) H  33                  0.00075     0.47868   
   407. RY*(   2) H  33                  0.00012     2.29580   
   408. RY*(   1) C  34                  0.00306     1.52989   
   409. RY*(   2) C  34                  0.00195     1.33835   
   410. RY*(   3) C  34                  0.00172     1.30670   
   411. RY*(   4) C  34                  0.00087     2.61582   
   412. RY*(   5) C  34                  0.00077     1.21322   
   413. RY*(   6) C  34                  0.00029     1.71479   
   414. RY*(   7) C  34                  0.00025     1.71456   
   415. RY*(   8) C  34                  0.00008     2.98449   
   416. RY*(   9) C  34                  0.00005     2.45019   
   417. RY*(  10) C  34                  0.00002     2.66640   
   418. RY*(  11) C  34                  0.00002     2.69401   
   419. RY*(  12) C  34                  0.00001     2.76135   
   420. RY*(  13) C  34                  0.00001    21.52876   
   421. RY*(   1) H  35                  0.00115     0.49466   
   422. RY*(   2) H  35                  0.00015     2.28922   
   423. RY*(   1) C  36                  0.00322     1.34508   
   424. RY*(   2) C  36                  0.00166     1.60948   
   425. RY*(   3) C  36                  0.00136     1.51896   
   426. RY*(   4) C  36                  0.00077     2.33567   
   427. RY*(   5) C  36                  0.00042     2.02555   
   428. RY*(   6) C  36                  0.00035     1.69420   
   429. RY*(   7) C  36                  0.00026     0.63866   
   430. RY*(   8) C  36                  0.00012     3.85563   
   431. RY*(   9) C  36                  0.00004     2.31425   
   432. RY*(  10) C  36                  0.00002     4.05340   
   433. RY*(  11) C  36                  0.00003     3.67417   
   434. RY*(  12) C  36                  0.00000     3.24111   
   435. RY*(  13) C  36                  0.00001    17.35523   
   436. RY*(   1) H  37                  0.00106     0.42371   
   437. RY*(   2) H  37                  0.00010     2.27586   
   438. RY*(   1) O  38                  0.00103     0.98451   
   439. RY*(   2) O  38                  0.00064     1.42796   
   440. RY*(   3) O  38                  0.00011     1.85046   
   441. RY*(   4) O  38                  0.00006     1.38357   
   442. RY*(   5) O  38                  0.00000    49.72243   
   443. RY*(   6) O  38                  0.00000     4.98144   
   444. RY*(   7) O  38                  0.00001     5.10653   
   445. RY*(   8) O  38                  0.00000     5.08831   
   446. RY*(   9) O  38                  0.00001     3.31090   
   447. RY*(  10) O  38                  0.00000     2.79657   
   448. RY*(  11) O  38                  0.00000     2.89354   
   449. RY*(  12) O  38                  0.00000     3.05845   
   450. RY*(  13) O  38                  0.00000     3.17943   
   451. RY*(   1) H  39                  0.00038     1.19149   
   452. RY*(   2) H  39                  0.00019     1.47561   
   453. RY*(   1) O  40                  0.00186     1.13943   
   454. RY*(   2) O  40                  0.00117     1.20056   
   455. RY*(   3) O  40                  0.00021     1.77452   
   456. RY*(   4) O  40                  0.00010     2.20116   
   457. RY*(   5) O  40                  0.00006     3.06543   
   458. RY*(   6) O  40                  0.00003     2.97853   
   459. RY*(   7) O  40                  0.00000     5.22484   
   460. RY*(   8) O  40                  0.00001     5.16694   
   461. RY*(   9) O  40                  0.00000    49.77102   
   462. RY*(  10) O  40                  0.00000     3.18354   
   463. RY*(  11) O  40                  0.00001     3.09678   
   464. RY*(  12) O  40                  0.00000     3.11582   
   465. RY*(  13) O  40                  0.00000     5.05667   
   466. RY*(   1) C  41                  0.00119     1.41289   
   467. RY*(   2) C  41                  0.00111     1.41723   
   468. RY*(   3) C  41                  0.00071     0.94458   
   469. RY*(   4) C  41                  0.00025     1.04012   
   470. RY*(   5) C  41                  0.00011     1.17760   
   471. RY*(   6) C  41                  0.00004     2.21904   
   472. RY*(   7) C  41                  0.00000    23.21614   
   473. RY*(   8) C  41                  0.00000     2.82672   
   474. RY*(   9) C  41                  0.00000     1.91575   
   475. RY*(  10) C  41                  0.00000     1.47937   
   476. RY*(  11) C  41                  0.00000     1.79639   
   477. RY*(  12) C  41                  0.00000     2.75710   
   478. RY*(  13) C  41                  0.00000     1.69997   
   479. RY*(   1) H  42                  0.00083     0.44380   
   480. RY*(   2) H  42                  0.00006     2.13920   
   481. RY*(   1) H  43                  0.00042     0.43214   
   482. RY*(   2) H  43                  0.00005     2.05158   
   483. RY*(   1) H  44                  0.00084     0.52379   
   484. RY*(   2) H  44                  0.00007     2.07606   
   485. RY*(   1) C  45                  0.00263     1.23726   
   486. RY*(   2) C  45                  0.00093     1.38854   
   487. RY*(   3) C  45                  0.00060     0.71570   
   488. RY*(   4) C  45                  0.00037     0.85377   
   489. RY*(   5) C  45                  0.00009     3.08376   
   490. RY*(   6) C  45                  0.00010     2.12042   
   491. RY*(   7) C  45                  0.00005     2.27908   
   492. RY*(   8) C  45                  0.00005     2.19573   
   493. RY*(   9) C  45                  0.00003     3.39895   
   494. RY*(  10) C  45                  0.00002     2.09640   
   495. RY*(  11) C  45                  0.00001     1.66170   
   496. RY*(  12) C  45                  0.00000    22.39064   
   497. RY*(  13) C  45                  0.00001     2.90909   
   498. RY*(   1) H  46                  0.00086     0.87439   
   499. RY*(   2) H  46                  0.00007     1.81914   
   500. RY*(   1) H  47                  0.00086     0.87363   
   501. RY*(   2) H  47                  0.00007     1.82152   
   502. RY*(   1) O  48                  0.00171     0.99131   
   503. RY*(   2) O  48                  0.00148     1.06353   
   504. RY*(   3) O  48                  0.00080     1.81593   
   505. RY*(   4) O  48                  0.00003     2.40476   
   506. RY*(   5) O  48                  0.00000    49.79961   
   507. RY*(   6) O  48                  0.00000     4.96463   
   508. RY*(   7) O  48                  0.00001     4.93670   
   509. RY*(   8) O  48                  0.00001     4.78773   
   510. RY*(   9) O  48                  0.00001     3.14438   
   511. RY*(  10) O  48                  0.00000     2.77612   
   512. RY*(  11) O  48                  0.00000     2.69948   
   513. RY*(  12) O  48                  0.00000     2.98210   
   514. RY*(  13) O  48                  0.00000     3.03786   
   515. RY*(   1) O  49                  0.00169     0.96901   
   516. RY*(   2) O  49                  0.00148     1.04780   
   517. RY*(   3) O  49                  0.00082     1.93651   
   518. RY*(   4) O  49                  0.00004     1.42249   
   519. RY*(   5) O  49                  0.00002     5.53840   
   520. RY*(   6) O  49                  0.00000     4.92854   
   521. RY*(   7) O  49                  0.00000     4.89761   
   522. RY*(   8) O  49                  0.00000    49.37265   
   523. RY*(   9) O  49                  0.00000     2.89452   
   524. RY*(  10) O  49                  0.00000     3.15023   
   525. RY*(  11) O  49                  0.00000     3.19031   
   526. RY*(  12) O  49                  0.00001     2.93905   
   527. RY*(  13) O  49                  0.00001     3.17314   
   528. RY*(   1) N  50                  0.00863     1.05321   
   529. RY*(   2) N  50                  0.00492     1.23405   
   530. RY*(   3) N  50                  0.00339     2.20130   
   531. RY*(   4) N  50                  0.00202     2.11681   
   532. RY*(   5) N  50                  0.00150     1.00203   
   533. RY*(   6) N  50                  0.00119     2.94683   
   534. RY*(   7) N  50                  0.00082     1.76348   
   535. RY*(   8) N  50                  0.00009     2.04811   
   536. RY*(   9) N  50                  0.00002     4.04146   
   537. RY*(  10) N  50                  0.00001     3.94075   
   538. RY*(  11) N  50                  0.00001     3.82462   
   539. RY*(  12) N  50                  0.00000    33.34192   
   540. RY*(  13) N  50                  0.00001     4.18847   
   541. BD*(   1) C   1 - H   2          0.00974     0.51509   
   542. BD*(   1) C   1 - C   3          0.00746     0.69164   
   543. BD*(   2) C   1 - C   3          0.04368     0.08550   
   544. BD*(   1) C   1 - C   7          0.01221     0.58404   
   545. BD*(   1) C   3 - H   4          0.00834     0.51923   
   546. BD*(   1) C   3 - C   5          0.02587     0.53315   
   547. BD*(   1) C   5 - O   6          0.00630     0.67945   
   548. BD*(   2) C   5 - O   6          0.05909     0.07498   
   549. BD*(   1) C   5 - C  45          0.03091     0.43436   
   550. BD*(   1) C   7 - C   8          0.01091     0.64564   
   551. BD*(   2) C   7 - C   8          0.08187     0.07746   
   552. BD*(   1) C   7 - C   9          0.01572     0.47383   
   553. BD*(   1) C   8 - C  10          0.00685     0.62542   
   554. BD*(   1) C   8 - H  11          0.00697     0.51380   
   555. BD*(   1) C   9 - C  12          0.01379     0.46967   
   556. BD*(   1) C   9 - H  13          0.00639     0.47079   
   557. BD*(   1) C   9 - N  50          0.06283     0.22435   
   558. BD*(   1) C  10 - C  14          0.01284     0.58677   
   559. BD*(   1) C  10 - H  15          0.00548     0.51061   
   560. BD*(   1) C  12 - C  14          0.01908     0.63293   
   561. BD*(   1) C  12 - O  18          0.01229     0.45807   
   562. BD*(   1) C  14 - O  16          0.01108     0.41321   
   563. BD*(   1) O  16 - H  17          0.00347     0.46474   
   564. BD*(   1) O  18 - C  19          0.00549     0.34402   
   565. BD*(   1) C  19 - H  20          0.00660     0.47721   
   566. BD*(   1) C  19 - H  21          0.00481     0.48193   
   567. BD*(   1) C  19 - H  22          0.00537     0.46628   
   568. BD*(   1) C  23 - H  24          0.00922     0.51979   
   569. BD*(   1) C  23 - C  25          0.00723     0.71221   
   570. BD*(   2) C  23 - C  25          0.05379     0.08644   
   571. BD*(   1) C  23 - C  29          0.01311     0.55666   
   572. BD*(   1) C  25 - H  26          0.00814     0.51593   
   573. BD*(   1) C  25 - C  27          0.02620     0.52678   
   574. BD*(   1) C  27 - O  28          0.00632     0.67985   
   575. BD*(   2) C  27 - O  28          0.07662     0.07017   
   576. BD*(   1) C  27 - C  45          0.03068     0.43531   
   577. BD*(   1) C  29 - C  30          0.01162     0.63120   
   578. BD*(   2) C  29 - C  30          0.19321     0.06231  583(v),586(v),570(v),369(g)
                                                    356(g),395(v),357(g),300(v)
   579. BD*(   1) C  29 - C  31          0.01323     0.62393   
   580. BD*(   1) C  30 - C  32          0.00709     0.63923   
   581. BD*(   1) C  30 - H  33          0.00670     0.52452   
   582. BD*(   1) C  31 - C  34          0.01273     0.64649   
   583. BD*(   2) C  31 - C  34          0.15875     0.06549  578(v),586(v),384(g),592(v)
                                                    412(g),413(g)
   584. BD*(   1) C  31 - H  35          0.00642     0.51871   
   585. BD*(   1) C  32 - C  36          0.01308     0.62054   
   586. BD*(   2) C  32 - C  36          0.18574     0.05306  578(v),583(v),429(g),395(g)
                                                    397(g),438(v)
   587. BD*(   1) C  32 - H  37          0.00661     0.50908   
   588. BD*(   1) C  34 - C  36          0.02294     0.59070   
   589. BD*(   1) C  34 - O  40          0.01352     0.44159   
   590. BD*(   1) C  36 - O  38          0.01051     0.43042   
   591. BD*(   1) O  38 - H  39          0.00352     0.46613   
   592. BD*(   1) O  40 - C  41          0.00441     0.36628   
   593. BD*(   1) C  41 - H  42          0.00811     0.46802   
   594. BD*(   1) C  41 - H  43          0.00442     0.48479   
   595. BD*(   1) C  41 - H  44          0.00846     0.47668   
   596. BD*(   1) C  45 - H  46          0.00441     0.48102   
   597. BD*(   1) C  45 - H  47          0.00454     0.47993   
   598. BD (   1) O  48 - O  49          0.45402    -0.27382  535(v)
   599. BD*(   1) O  48 - N  50          0.02589     0.53995   
   600. BD*(   1) O  49 - N  50          0.02579     0.54398   
       -------------------------------
              Total Lewis  104.60591  ( 96.8573%)
        Valence non-Lewis    3.17586  (  2.9406%)
        Rydberg non-Lewis    0.21823  (  0.2021%)
       -------------------------------
            Total unit  1  108.00000  (100.0000%)
           Charge unit  1    0.50000
 1\1\GINC-N02\SP\UM062X\6-311G(d)\C21H20N1O8(2)\UNKNOWN\02-Dec-2024\0\\
 # pop=nbo M062X/6-311g(d) scrf=(smd,solvent=generic,read) temperature=
 363.15 Geom=Check Guess=Read\\Reagente 1\\0,2\C,0,2.1126207165,1.12891
 73595,0.9260603023\H,0,1.7136494119,2.1286474145,0.775623994\C,0,1.383
 5100819,0.2293575446,1.6260501542\H,0,1.7251577963,-0.7872975957,1.790
 6536188\C,0,0.0752340205,0.522626466,2.2257270732\O,0,-0.5216072629,-0
 .3338266031,2.849211129\C,0,3.4019467772,0.9086596451,0.3351383956\C,0
 ,4.0648813846,1.9384387854,-0.2993871447\C,0,4.0597176307,-0.43526694,
 0.3974445842\C,0,5.3657510337,1.8016199854,-0.7872737322\H,0,3.5743352
 788,2.9022059891,-0.3841651007\C,0,5.4718123241,-0.4938642836,-0.07416
 41349\H,0,3.9596834852,-0.9178171027,1.3724595248\C,0,6.0844135544,0.5
 96626448,-0.6396018718\H,0,5.8565051954,2.6481167031,-1.2564919866\O,0
 ,7.3832799872,0.4971293423,-1.0277247735\H,0,7.6734983433,1.333001459,
 -1.4139291114\O,0,5.9851221501,-1.721399908,0.0898887751\C,0,6.9197328
 328,-2.2326720677,-0.8709011443\H,0,7.9198694604,-1.8470998938,-0.6868
 338983\H,0,6.9026119959,-3.3123721764,-0.7406034253\H,0,6.597427427,-1
 .9750204196,-1.8808006711\C,0,-3.0084304768,0.7003602572,0.9430516333\
 H,0,-2.6758006471,0.4661595142,1.9514459181\C,0,-2.2733411758,1.536512
 3939,0.1928704448\H,0,-2.5509412865,1.7901704979,-0.8257452984\C,0,-1.
 0329979938,2.1840139077,0.6487060929\O,0,-0.4190486481,2.9247159918,-0
 .0934690032\C,0,-4.244805713,0.031727611,0.5412552692\C,0,-4.866411769
 2,-0.8332746434,1.4451752709\C,0,-4.8454438053,0.2257008349,-0.7133312
 97\C,0,-6.0427824438,-1.493010377,1.1127105968\H,0,-4.4198809751,-0.99
 81166468,2.4199692499\C,0,-6.0121213566,-0.4270794733,-1.0568664535\H,
 0,-4.4074624023,0.8851030762,-1.4545641157\C,0,-6.6227979695,-1.299985
 0428,-0.1360370215\H,0,-6.5121419492,-2.16944255,1.8208748469\O,0,-7.7
 569990208,-1.9200252914,-0.5317737496\H,0,-8.0796989076,-2.4951387755,
 0.1740340815\O,0,-6.5512691679,-0.2523421833,-2.2983506976\C,0,-7.7325
 467818,0.5483584231,-2.3029831045\H,0,-7.5150979077,1.5496720571,-1.91
 9512377\H,0,-8.0542786856,0.619083621,-3.3405813364\H,0,-8.5233228464,
 0.0884738478,-1.7073590204\C,0,-0.5260444429,1.9185847936,2.0653660225
 \H,0,-1.3401517195,2.0024430357,2.7848159163\H,0,0.2186607253,2.682179
 201,2.2900646009\O,0,2.58568109,-2.2538247313,-0.0147219767\O,0,3.4089
 218378,-1.2549894984,-1.7291241987\N,0,3.274355814,-1.4127750021,-0.53
 98008501\\Version=ES64L-G16RevA.03\State=2-A\HF=-1468.4090272\S2=0.794
 428\S2-1=0.\S2A=0.751143\RMSD=4.135e-09\Dipole=1.0068416,1.3003631,0.5
 370554\Quadrupole=48.1849827,-20.094874,-28.0901087,17.3231056,-18.111
 6207,-4.659512\PG=C01 [X(C21H20N1O8)]\\@


 SUCCESS-- IF YOU HAVE TRIED TO DO SOMETHING AND FAILED
           YOU ARE BETTER OFF THAN IF YOU HAD TRIED TO DO
           NOTHING AND SUCCEEDED.

                   -- FROM THE BACK OF A SUGAR PACKET
 Job cpu time:       0 days  0 hours  1 minutes 26.5 seconds.
 Elapsed time:       0 days  0 hours  1 minutes 27.0 seconds.
 File lengths (MBytes):  RWF=    612 Int=      0 D2E=      0 Chk=     49 Scr=      1
 Normal termination of Gaussian 16 at Mon Dec  2 12:54:46 2024.
