 Entering Gaussian System, Link 0=g16
 Initial command:
 /sw/cluster/pub/apps//g16/l1.exe "/data/natrosa/25340/Gau-888775.inp" -scrdir="/data/natrosa/25340/"
 Entering Link 1 = /sw/cluster/pub/apps//g16/l1.exe PID=    888780.
  
 Copyright (c) 1988,1990,1992,1993,1995,1998,2003,2009,2016,
            Gaussian, Inc.  All Rights Reserved.
  
 This is part of the Gaussian(R) 16 program.  It is based on
 the Gaussian(R) 09 system (copyright 2009, Gaussian, Inc.),
 the Gaussian(R) 03 system (copyright 2003, Gaussian, Inc.),
 the Gaussian(R) 98 system (copyright 1998, Gaussian, Inc.),
 the Gaussian(R) 94 system (copyright 1995, Gaussian, Inc.),
 the Gaussian 92(TM) system (copyright 1992, Gaussian, Inc.),
 the Gaussian 90(TM) system (copyright 1990, Gaussian, Inc.),
 the Gaussian 88(TM) system (copyright 1988, Gaussian, Inc.),
 the Gaussian 86(TM) system (copyright 1986, Carnegie Mellon
 University), and the Gaussian 82(TM) system (copyright 1983,
 Carnegie Mellon University). Gaussian is a federally registered
 trademark of Gaussian, Inc.
  
 This software contains proprietary and confidential information,
 including trade secrets, belonging to Gaussian, Inc.
  
 This software is provided under written license and may be
 used, copied, transmitted, or stored only in accord with that
 written license.
  
 The following legend is applicable only to US Government
 contracts under FAR:
  
                    RESTRICTED RIGHTS LEGEND
  
 Use, reproduction and disclosure by the US Government is
 subject to restrictions as set forth in subparagraphs (a)
 and (c) of the Commercial Computer Software - Restricted
 Rights clause in FAR 52.227-19.
  
 Gaussian, Inc.
 340 Quinnipiac St., Bldg. 40, Wallingford CT 06492
  
  
 ---------------------------------------------------------------
 Warning -- This program may not be used in any manner that
 competes with the business of Gaussian, Inc. or will provide
 assistance to any competitor of Gaussian, Inc.  The licensee
 of this program is prohibited from giving any competitor of
 Gaussian, Inc. access to this program.  By using this program,
 the user acknowledges that Gaussian, Inc. is engaged in the
 business of creating and licensing software in the field of
 computational chemistry and represents and warrants to the
 licensee that it is not a competitor of Gaussian, Inc. and that
 it will not use this program in any manner prohibited above.
 ---------------------------------------------------------------
  

 Cite this work as:
 Gaussian 16, Revision A.03,
 M. J. Frisch, G. W. Trucks, H. B. Schlegel, G. E. Scuseria, 
 M. A. Robb, J. R. Cheeseman, G. Scalmani, V. Barone, 
 G. A. Petersson, H. Nakatsuji, X. Li, M. Caricato, A. V. Marenich, 
 J. Bloino, B. G. Janesko, R. Gomperts, B. Mennucci, H. P. Hratchian, 
 J. V. Ortiz, A. F. Izmaylov, J. L. Sonnenberg, D. Williams-Young, 
 F. Ding, F. Lipparini, F. Egidi, J. Goings, B. Peng, A. Petrone, 
 T. Henderson, D. Ranasinghe, V. G. Zakrzewski, J. Gao, N. Rega, 
 G. Zheng, W. Liang, M. Hada, M. Ehara, K. Toyota, R. Fukuda, 
 J. Hasegawa, M. Ishida, T. Nakajima, Y. Honda, O. Kitao, H. Nakai, 
 T. Vreven, K. Throssell, J. A. Montgomery, Jr., J. E. Peralta, 
 F. Ogliaro, M. J. Bearpark, J. J. Heyd, E. N. Brothers, K. N. Kudin, 
 V. N. Staroverov, T. A. Keith, R. Kobayashi, J. Normand, 
 K. Raghavachari, A. P. Rendell, J. C. Burant, S. S. Iyengar, 
 J. Tomasi, M. Cossi, J. M. Millam, M. Klene, C. Adamo, R. Cammi, 
 J. W. Ochterski, R. L. Martin, K. Morokuma, O. Farkas, 
 J. B. Foresman, and D. J. Fox, Gaussian, Inc., Wallingford CT, 2016.
 
 ******************************************
 Gaussian 16:  ES64L-G16RevA.03 25-Dec-2016
                 1-Nov-2024 
 ******************************************
 %chk=CURCUMIN-OPT-FREQ-TS-M06-2X-6-311G-D-298.chk
 ----------------------------------------------------------------------
 # opt=(calcfc,noeigen,ts) freq=noraman M062X/6-311g(d) scrf=(smd,solve
 nt=generic,read) temperature=298.15
 ----------------------------------------------------------------------
 1/5=1,10=4,11=1,18=20,26=3,38=1,40=2,112=298150/1,3;
 2/9=110,12=2,17=6,18=5,40=1/2;
 3/5=4,6=6,7=1,11=2,25=1,30=1,70=32203,71=2,72=-2,74=-55,140=1/1,2,3;
 4//1;
 5/5=2,38=5/2;
 8/6=4,10=90,11=11/1;
 11/6=1,8=1,9=11,15=111,16=1/1,2,10;
 10/6=1,13=1/2;
 6/7=2,8=2,9=2,10=2,28=1/1;
 7/10=1,18=20,25=1/1,2,3,16;
 1/5=1,10=4,11=1,18=20,26=3/3(2);
 2/9=110/2;
 99//99;
 2/9=110/2;
 3/5=4,6=6,7=1,11=2,25=1,30=1,70=32205,71=1,72=-2,74=-55/1,2,3;
 4/5=5,16=3,69=1/1;
 5/5=2,38=5/2;
 7//1,2,3,16;
 1/5=1,11=1,18=20,26=3/3(-5);
 2/9=110/2;
 6/7=2,8=2,9=2,10=2,19=2,28=1/1;
 99/9=1/99;
 --------------
 TS1 - reacao 1
 --------------
 Symbolic Z-matrix:
 Charge =  0 Multiplicity = 2
 C                     2.14528   1.55194   0.14547 
 H                     1.88867   2.42397  -0.44947 
 C                     1.39764   1.22861   1.21161 
 H                     1.65211   0.40577   1.87464 
 C                     0.19423   1.97628   1.62861 
 O                    -0.35022   1.71114   2.68122 
 C                     3.36083   0.87051  -0.28787 
 C                     4.32595   1.58538  -0.99062 
 C                     3.70615  -0.45031   0.0848 
 C                     5.54871   1.02494  -1.34301 
 H                     4.1182    2.61575  -1.2567 
 C                     4.88719  -1.07052  -0.3437 
 H                     4.13991  -0.05337   1.82555 
 C                     5.8361   -0.29948  -1.02576 
 H                     6.27837   1.614    -1.88947 
 O                     6.98265  -0.92016  -1.36871 
 H                     7.55639  -0.32328  -1.86855 
 O                     5.08476  -2.38748  -0.11404 
 C                     5.9259   -2.65816   1.01869 
 H                     5.47537  -2.24855   1.92561 
 H                     5.99132  -3.74109   1.09545 
 H                     6.91996  -2.23551   0.8631 
 C                    -2.73191   1.32687   0.36489 
 H                    -2.47021   1.727     1.3412 
 C                    -1.98912   1.66946  -0.70117 
 H                    -2.2084    1.29969  -1.6983 
 C                    -0.82692   2.5672   -0.63403 
 O                    -0.24571   2.9021   -1.64878 
 C                    -3.89473   0.44142   0.37026 
 C                    -4.50705   0.14542   1.59145 
 C                    -4.42661  -0.12897  -0.79723 
 C                    -5.60644  -0.70129   1.65525 
 H                    -4.11217   0.57611   2.50563 
 C                    -5.52067  -0.97022  -0.74629 
 H                    -3.99322   0.06828  -1.77163 
 C                    -6.11697  -1.2691    0.49314 
 H                    -6.06638  -0.93304   2.61146 
 O                    -7.17133  -2.11667   0.48357 
 H                    -7.49669  -2.25719   1.38285 
 O                    -5.99296  -1.54571  -1.89043 
 C                    -7.22549  -0.98883  -2.3471 
 H                    -7.09519   0.07028  -2.58808 
 H                    -7.49914  -1.53614  -3.24756 
 H                    -8.01037  -1.10435  -1.59716 
 C                    -0.35163   3.07751   0.72622 
 H                    -1.17408   3.55708   1.25839 
 H                     0.42338   3.82327   0.54161 
 O                     2.7778   -2.02622   1.53173 
 O                     1.7172   -1.54458  -0.27294 
 N                     2.64029  -1.41428   0.49814 
 
 Add virtual bond connecting atoms H13        and C9         Dist= 3.47D+00.

 GradGradGradGradGradGradGradGradGradGradGradGradGradGradGradGradGradGrad
 Berny optimization.
 Initialization pass.
                           ----------------------------
                           !    Initial Parameters    !
                           ! (Angstroms and Degrees)  !
 --------------------------                            --------------------------
 ! Name  Definition              Value          Derivative Info.                !
 --------------------------------------------------------------------------------
 ! R1    R(1,2)                  1.0864         calculate D2E/DX2 analytically  !
 ! R2    R(1,3)                  1.3417         calculate D2E/DX2 analytically  !
 ! R3    R(1,7)                  1.4593         calculate D2E/DX2 analytically  !
 ! R4    R(3,4)                  1.0869         calculate D2E/DX2 analytically  !
 ! R5    R(3,5)                  1.4769         calculate D2E/DX2 analytically  !
 ! R6    R(5,6)                  1.2144         calculate D2E/DX2 analytically  !
 ! R7    R(5,45)                 1.5248         calculate D2E/DX2 analytically  !
 ! R8    R(7,8)                  1.3915         calculate D2E/DX2 analytically  !
 ! R9    R(7,9)                  1.4152         calculate D2E/DX2 analytically  !
 ! R10   R(8,10)                 1.3905         calculate D2E/DX2 analytically  !
 ! R11   R(8,11)                 1.0843         calculate D2E/DX2 analytically  !
 ! R12   R(9,12)                 1.4011         calculate D2E/DX2 analytically  !
 ! R13   R(9,13)                 1.8374         calculate D2E/DX2 analytically  !
 ! R14   R(9,50)                 1.4954         calculate D2E/DX2 analytically  !
 ! R15   R(10,14)                1.3919         calculate D2E/DX2 analytically  !
 ! R16   R(10,15)                1.0854         calculate D2E/DX2 analytically  !
 ! R17   R(12,14)                1.4            calculate D2E/DX2 analytically  !
 ! R18   R(12,18)                1.3514         calculate D2E/DX2 analytically  !
 ! R19   R(14,16)                1.3481         calculate D2E/DX2 analytically  !
 ! R20   R(16,17)                0.9671         calculate D2E/DX2 analytically  !
 ! R21   R(18,19)                1.4366         calculate D2E/DX2 analytically  !
 ! R22   R(19,20)                1.0924         calculate D2E/DX2 analytically  !
 ! R23   R(19,21)                1.0876         calculate D2E/DX2 analytically  !
 ! R24   R(19,22)                1.0913         calculate D2E/DX2 analytically  !
 ! R25   R(23,24)                1.0871         calculate D2E/DX2 analytically  !
 ! R26   R(23,25)                1.3437         calculate D2E/DX2 analytically  !
 ! R27   R(23,29)                1.4616         calculate D2E/DX2 analytically  !
 ! R28   R(25,26)                1.0858         calculate D2E/DX2 analytically  !
 ! R29   R(25,27)                1.4701         calculate D2E/DX2 analytically  !
 ! R30   R(27,28)                1.2164         calculate D2E/DX2 analytically  !
 ! R31   R(27,45)                1.5286         calculate D2E/DX2 analytically  !
 ! R32   R(29,30)                1.3978         calculate D2E/DX2 analytically  !
 ! R33   R(29,31)                1.404          calculate D2E/DX2 analytically  !
 ! R34   R(30,32)                1.3891         calculate D2E/DX2 analytically  !
 ! R35   R(30,33)                1.085          calculate D2E/DX2 analytically  !
 ! R36   R(31,34)                1.381          calculate D2E/DX2 analytically  !
 ! R37   R(31,35)                1.0845         calculate D2E/DX2 analytically  !
 ! R38   R(32,36)                1.3905         calculate D2E/DX2 analytically  !
 ! R39   R(32,37)                1.0861         calculate D2E/DX2 analytically  !
 ! R40   R(34,36)                1.4075         calculate D2E/DX2 analytically  !
 ! R41   R(34,40)                1.365          calculate D2E/DX2 analytically  !
 ! R42   R(36,38)                1.3528         calculate D2E/DX2 analytically  !
 ! R43   R(38,39)                0.9666         calculate D2E/DX2 analytically  !
 ! R44   R(40,41)                1.4275         calculate D2E/DX2 analytically  !
 ! R45   R(41,42)                1.094          calculate D2E/DX2 analytically  !
 ! R46   R(41,43)                1.0887         calculate D2E/DX2 analytically  !
 ! R47   R(41,44)                1.0917         calculate D2E/DX2 analytically  !
 ! R48   R(45,46)                1.0907         calculate D2E/DX2 analytically  !
 ! R49   R(45,47)                1.0913         calculate D2E/DX2 analytically  !
 ! R50   R(48,50)                1.209          calculate D2E/DX2 analytically  !
 ! R51   R(49,50)                1.2098         calculate D2E/DX2 analytically  !
 ! A1    A(2,1,3)              119.7995         calculate D2E/DX2 analytically  !
 ! A2    A(2,1,7)              114.1389         calculate D2E/DX2 analytically  !
 ! A3    A(3,1,7)              125.9845         calculate D2E/DX2 analytically  !
 ! A4    A(1,3,4)              122.459          calculate D2E/DX2 analytically  !
 ! A5    A(1,3,5)              123.8088         calculate D2E/DX2 analytically  !
 ! A6    A(4,3,5)              113.6895         calculate D2E/DX2 analytically  !
 ! A7    A(3,5,6)              119.9692         calculate D2E/DX2 analytically  !
 ! A8    A(3,5,45)             119.3562         calculate D2E/DX2 analytically  !
 ! A9    A(6,5,45)             120.6746         calculate D2E/DX2 analytically  !
 ! A10   A(1,7,8)              119.1943         calculate D2E/DX2 analytically  !
 ! A11   A(1,7,9)              124.1157         calculate D2E/DX2 analytically  !
 ! A12   A(8,7,9)              116.3107         calculate D2E/DX2 analytically  !
 ! A13   A(7,8,10)             122.0617         calculate D2E/DX2 analytically  !
 ! A14   A(7,8,11)             118.6363         calculate D2E/DX2 analytically  !
 ! A15   A(10,8,11)            119.2961         calculate D2E/DX2 analytically  !
 ! A16   A(7,9,12)             122.5674         calculate D2E/DX2 analytically  !
 ! A17   A(7,9,13)              96.0537         calculate D2E/DX2 analytically  !
 ! A18   A(7,9,50)             120.0348         calculate D2E/DX2 analytically  !
 ! A19   A(12,9,13)            100.7414         calculate D2E/DX2 analytically  !
 ! A20   A(12,9,50)            113.578          calculate D2E/DX2 analytically  !
 ! A21   A(13,9,50)             92.6169         calculate D2E/DX2 analytically  !
 ! A22   A(8,10,14)            120.4862         calculate D2E/DX2 analytically  !
 ! A23   A(8,10,15)            120.0017         calculate D2E/DX2 analytically  !
 ! A24   A(14,10,15)           119.4972         calculate D2E/DX2 analytically  !
 ! A25   A(9,12,14)            118.4583         calculate D2E/DX2 analytically  !
 ! A26   A(9,12,18)            120.1755         calculate D2E/DX2 analytically  !
 ! A27   A(14,12,18)           121.3597         calculate D2E/DX2 analytically  !
 ! A28   A(10,14,12)           119.6783         calculate D2E/DX2 analytically  !
 ! A29   A(10,14,16)           123.7591         calculate D2E/DX2 analytically  !
 ! A30   A(12,14,16)           116.5392         calculate D2E/DX2 analytically  !
 ! A31   A(14,16,17)           110.603          calculate D2E/DX2 analytically  !
 ! A32   A(12,18,19)           113.7793         calculate D2E/DX2 analytically  !
 ! A33   A(18,19,20)           110.0288         calculate D2E/DX2 analytically  !
 ! A34   A(18,19,21)           106.1683         calculate D2E/DX2 analytically  !
 ! A35   A(18,19,22)           110.361          calculate D2E/DX2 analytically  !
 ! A36   A(20,19,21)           109.8509         calculate D2E/DX2 analytically  !
 ! A37   A(20,19,22)           110.4155         calculate D2E/DX2 analytically  !
 ! A38   A(21,19,22)           109.9307         calculate D2E/DX2 analytically  !
 ! A39   A(24,23,25)           119.0522         calculate D2E/DX2 analytically  !
 ! A40   A(24,23,29)           114.2806         calculate D2E/DX2 analytically  !
 ! A41   A(25,23,29)           126.6669         calculate D2E/DX2 analytically  !
 ! A42   A(23,25,26)           122.0115         calculate D2E/DX2 analytically  !
 ! A43   A(23,25,27)           123.8117         calculate D2E/DX2 analytically  !
 ! A44   A(26,25,27)           114.1764         calculate D2E/DX2 analytically  !
 ! A45   A(25,27,28)           120.5142         calculate D2E/DX2 analytically  !
 ! A46   A(25,27,45)           119.362          calculate D2E/DX2 analytically  !
 ! A47   A(28,27,45)           120.1238         calculate D2E/DX2 analytically  !
 ! A48   A(23,29,30)           118.6864         calculate D2E/DX2 analytically  !
 ! A49   A(23,29,31)           122.987          calculate D2E/DX2 analytically  !
 ! A50   A(30,29,31)           118.3266         calculate D2E/DX2 analytically  !
 ! A51   A(29,30,32)           121.0571         calculate D2E/DX2 analytically  !
 ! A52   A(29,30,33)           119.5138         calculate D2E/DX2 analytically  !
 ! A53   A(32,30,33)           119.4266         calculate D2E/DX2 analytically  !
 ! A54   A(29,31,34)           121.1243         calculate D2E/DX2 analytically  !
 ! A55   A(29,31,35)           121.4552         calculate D2E/DX2 analytically  !
 ! A56   A(34,31,35)           117.4196         calculate D2E/DX2 analytically  !
 ! A57   A(30,32,36)           120.0718         calculate D2E/DX2 analytically  !
 ! A58   A(30,32,37)           120.3745         calculate D2E/DX2 analytically  !
 ! A59   A(36,32,37)           119.5505         calculate D2E/DX2 analytically  !
 ! A60   A(31,34,36)           119.8314         calculate D2E/DX2 analytically  !
 ! A61   A(31,34,40)           119.9992         calculate D2E/DX2 analytically  !
 ! A62   A(36,34,40)           120.1315         calculate D2E/DX2 analytically  !
 ! A63   A(32,36,34)           119.5831         calculate D2E/DX2 analytically  !
 ! A64   A(32,36,38)           123.2228         calculate D2E/DX2 analytically  !
 ! A65   A(34,36,38)           117.193          calculate D2E/DX2 analytically  !
 ! A66   A(36,38,39)           110.2935         calculate D2E/DX2 analytically  !
 ! A67   A(34,40,41)           113.7285         calculate D2E/DX2 analytically  !
 ! A68   A(40,41,42)           110.2005         calculate D2E/DX2 analytically  !
 ! A69   A(40,41,43)           106.5888         calculate D2E/DX2 analytically  !
 ! A70   A(40,41,44)           111.083          calculate D2E/DX2 analytically  !
 ! A71   A(42,41,43)           109.5389         calculate D2E/DX2 analytically  !
 ! A72   A(42,41,44)           109.8405         calculate D2E/DX2 analytically  !
 ! A73   A(43,41,44)           109.5276         calculate D2E/DX2 analytically  !
 ! A74   A(5,45,27)            113.3808         calculate D2E/DX2 analytically  !
 ! A75   A(5,45,46)            107.3823         calculate D2E/DX2 analytically  !
 ! A76   A(5,45,47)            109.8422         calculate D2E/DX2 analytically  !
 ! A77   A(27,45,46)           110.2741         calculate D2E/DX2 analytically  !
 ! A78   A(27,45,47)           107.3628         calculate D2E/DX2 analytically  !
 ! A79   A(46,45,47)           108.517          calculate D2E/DX2 analytically  !
 ! A80   A(9,50,48)            118.7846         calculate D2E/DX2 analytically  !
 ! A81   A(9,50,49)            115.9191         calculate D2E/DX2 analytically  !
 ! A82   A(48,50,49)           125.2508         calculate D2E/DX2 analytically  !
 ! D1    D(2,1,3,4)           -175.8574         calculate D2E/DX2 analytically  !
 ! D2    D(2,1,3,5)              1.615          calculate D2E/DX2 analytically  !
 ! D3    D(7,1,3,4)              0.7544         calculate D2E/DX2 analytically  !
 ! D4    D(7,1,3,5)            178.2268         calculate D2E/DX2 analytically  !
 ! D5    D(2,1,7,8)             24.557          calculate D2E/DX2 analytically  !
 ! D6    D(2,1,7,9)           -162.7835         calculate D2E/DX2 analytically  !
 ! D7    D(3,1,7,8)           -152.2213         calculate D2E/DX2 analytically  !
 ! D8    D(3,1,7,9)             20.4383         calculate D2E/DX2 analytically  !
 ! D9    D(1,3,5,6)           -172.2668         calculate D2E/DX2 analytically  !
 ! D10   D(1,3,5,45)             7.7404         calculate D2E/DX2 analytically  !
 ! D11   D(4,3,5,6)              5.4044         calculate D2E/DX2 analytically  !
 ! D12   D(4,3,5,45)          -174.5884         calculate D2E/DX2 analytically  !
 ! D13   D(3,5,45,27)           63.1403         calculate D2E/DX2 analytically  !
 ! D14   D(3,5,45,46)         -174.7924         calculate D2E/DX2 analytically  !
 ! D15   D(3,5,45,47)          -56.9688         calculate D2E/DX2 analytically  !
 ! D16   D(6,5,45,27)         -116.8524         calculate D2E/DX2 analytically  !
 ! D17   D(6,5,45,46)            5.2149         calculate D2E/DX2 analytically  !
 ! D18   D(6,5,45,47)          123.0385         calculate D2E/DX2 analytically  !
 ! D19   D(1,7,8,10)           175.0017         calculate D2E/DX2 analytically  !
 ! D20   D(1,7,8,11)            -4.1062         calculate D2E/DX2 analytically  !
 ! D21   D(9,7,8,10)             1.7785         calculate D2E/DX2 analytically  !
 ! D22   D(9,7,8,11)          -177.3294         calculate D2E/DX2 analytically  !
 ! D23   D(1,7,9,12)          -179.5741         calculate D2E/DX2 analytically  !
 ! D24   D(1,7,9,13)           -72.7084         calculate D2E/DX2 analytically  !
 ! D25   D(1,7,9,50)            23.8578         calculate D2E/DX2 analytically  !
 ! D26   D(8,7,9,12)            -6.7216         calculate D2E/DX2 analytically  !
 ! D27   D(8,7,9,13)           100.1441         calculate D2E/DX2 analytically  !
 ! D28   D(8,7,9,50)          -163.2897         calculate D2E/DX2 analytically  !
 ! D29   D(7,8,10,14)            1.548          calculate D2E/DX2 analytically  !
 ! D30   D(7,8,10,15)         -179.8594         calculate D2E/DX2 analytically  !
 ! D31   D(11,8,10,14)        -179.3498         calculate D2E/DX2 analytically  !
 ! D32   D(11,8,10,15)          -0.7572         calculate D2E/DX2 analytically  !
 ! D33   D(7,9,12,14)            8.1594         calculate D2E/DX2 analytically  !
 ! D34   D(7,9,12,18)         -170.9237         calculate D2E/DX2 analytically  !
 ! D35   D(13,9,12,14)         -96.2315         calculate D2E/DX2 analytically  !
 ! D36   D(13,9,12,18)          84.6854         calculate D2E/DX2 analytically  !
 ! D37   D(50,9,12,14)         166.0968         calculate D2E/DX2 analytically  !
 ! D38   D(50,9,12,18)         -12.9863         calculate D2E/DX2 analytically  !
 ! D39   D(7,9,50,48)         -129.6623         calculate D2E/DX2 analytically  !
 ! D40   D(7,9,50,49)           52.6596         calculate D2E/DX2 analytically  !
 ! D41   D(12,9,50,48)          71.7857         calculate D2E/DX2 analytically  !
 ! D42   D(12,9,50,49)        -105.8924         calculate D2E/DX2 analytically  !
 ! D43   D(13,9,50,48)         -31.1298         calculate D2E/DX2 analytically  !
 ! D44   D(13,9,50,49)         151.1922         calculate D2E/DX2 analytically  !
 ! D45   D(8,10,14,12)          -0.1676         calculate D2E/DX2 analytically  !
 ! D46   D(8,10,14,16)         178.0129         calculate D2E/DX2 analytically  !
 ! D47   D(15,10,14,12)       -178.7672         calculate D2E/DX2 analytically  !
 ! D48   D(15,10,14,16)         -0.5868         calculate D2E/DX2 analytically  !
 ! D49   D(9,12,14,10)          -4.5036         calculate D2E/DX2 analytically  !
 ! D50   D(9,12,14,16)         177.1872         calculate D2E/DX2 analytically  !
 ! D51   D(18,12,14,10)        174.5681         calculate D2E/DX2 analytically  !
 ! D52   D(18,12,14,16)         -3.7411         calculate D2E/DX2 analytically  !
 ! D53   D(9,12,18,19)         -99.6877         calculate D2E/DX2 analytically  !
 ! D54   D(14,12,18,19)         81.2564         calculate D2E/DX2 analytically  !
 ! D55   D(10,14,16,17)         -0.8252         calculate D2E/DX2 analytically  !
 ! D56   D(12,14,16,17)        177.4078         calculate D2E/DX2 analytically  !
 ! D57   D(12,18,19,20)         60.5489         calculate D2E/DX2 analytically  !
 ! D58   D(12,18,19,21)        179.3654         calculate D2E/DX2 analytically  !
 ! D59   D(12,18,19,22)        -61.5452         calculate D2E/DX2 analytically  !
 ! D60   D(24,23,25,26)       -179.8774         calculate D2E/DX2 analytically  !
 ! D61   D(24,23,25,27)         -0.1142         calculate D2E/DX2 analytically  !
 ! D62   D(29,23,25,26)          0.3272         calculate D2E/DX2 analytically  !
 ! D63   D(29,23,25,27)       -179.9095         calculate D2E/DX2 analytically  !
 ! D64   D(24,23,29,30)         -2.9372         calculate D2E/DX2 analytically  !
 ! D65   D(24,23,29,31)        177.1349         calculate D2E/DX2 analytically  !
 ! D66   D(25,23,29,30)        176.8665         calculate D2E/DX2 analytically  !
 ! D67   D(25,23,29,31)         -3.0614         calculate D2E/DX2 analytically  !
 ! D68   D(23,25,27,28)       -175.5095         calculate D2E/DX2 analytically  !
 ! D69   D(23,25,27,45)          4.5532         calculate D2E/DX2 analytically  !
 ! D70   D(26,25,27,28)          4.2705         calculate D2E/DX2 analytically  !
 ! D71   D(26,25,27,45)       -175.6669         calculate D2E/DX2 analytically  !
 ! D72   D(25,27,45,5)          65.9847         calculate D2E/DX2 analytically  !
 ! D73   D(25,27,45,46)        -54.4578         calculate D2E/DX2 analytically  !
 ! D74   D(25,27,45,47)       -172.5066         calculate D2E/DX2 analytically  !
 ! D75   D(28,27,45,5)        -113.9529         calculate D2E/DX2 analytically  !
 ! D76   D(28,27,45,46)        125.6046         calculate D2E/DX2 analytically  !
 ! D77   D(28,27,45,47)          7.5558         calculate D2E/DX2 analytically  !
 ! D78   D(23,29,30,32)       -179.3242         calculate D2E/DX2 analytically  !
 ! D79   D(23,29,30,33)          0.0955         calculate D2E/DX2 analytically  !
 ! D80   D(31,29,30,32)          0.6071         calculate D2E/DX2 analytically  !
 ! D81   D(31,29,30,33)       -179.9732         calculate D2E/DX2 analytically  !
 ! D82   D(23,29,31,34)        179.439          calculate D2E/DX2 analytically  !
 ! D83   D(23,29,31,35)         -0.2292         calculate D2E/DX2 analytically  !
 ! D84   D(30,29,31,34)         -0.4891         calculate D2E/DX2 analytically  !
 ! D85   D(30,29,31,35)        179.8426         calculate D2E/DX2 analytically  !
 ! D86   D(29,30,32,36)         -0.0698         calculate D2E/DX2 analytically  !
 ! D87   D(29,30,32,37)        179.2728         calculate D2E/DX2 analytically  !
 ! D88   D(33,30,32,36)       -179.49           calculate D2E/DX2 analytically  !
 ! D89   D(33,30,32,37)         -0.1474         calculate D2E/DX2 analytically  !
 ! D90   D(29,31,34,36)         -0.1618         calculate D2E/DX2 analytically  !
 ! D91   D(29,31,34,40)       -177.9253         calculate D2E/DX2 analytically  !
 ! D92   D(35,31,34,36)        179.5193         calculate D2E/DX2 analytically  !
 ! D93   D(35,31,34,40)          1.7559         calculate D2E/DX2 analytically  !
 ! D94   D(30,32,36,34)         -0.5926         calculate D2E/DX2 analytically  !
 ! D95   D(30,32,36,38)        179.0007         calculate D2E/DX2 analytically  !
 ! D96   D(37,32,36,34)       -179.9406         calculate D2E/DX2 analytically  !
 ! D97   D(37,32,36,38)         -0.3473         calculate D2E/DX2 analytically  !
 ! D98   D(31,34,36,32)          0.7075         calculate D2E/DX2 analytically  !
 ! D99   D(31,34,36,38)       -178.91           calculate D2E/DX2 analytically  !
 ! D100  D(40,34,36,32)        178.4679         calculate D2E/DX2 analytically  !
 ! D101  D(40,34,36,38)         -1.1496         calculate D2E/DX2 analytically  !
 ! D102  D(31,34,40,41)       -107.1183         calculate D2E/DX2 analytically  !
 ! D103  D(36,34,40,41)         75.1251         calculate D2E/DX2 analytically  !
 ! D104  D(32,36,38,39)         -0.0814         calculate D2E/DX2 analytically  !
 ! D105  D(34,36,38,39)        179.5209         calculate D2E/DX2 analytically  !
 ! D106  D(34,40,41,42)         61.9743         calculate D2E/DX2 analytically  !
 ! D107  D(34,40,41,43)       -179.2453         calculate D2E/DX2 analytically  !
 ! D108  D(34,40,41,44)        -59.9935         calculate D2E/DX2 analytically  !
 --------------------------------------------------------------------------------
 Trust Radius=3.00D-01 FncErr=1.00D-07 GrdErr=1.00D-06 EigMax=2.50D+02 EigMin=1.00D-04
 Number of steps in this run=    251 maximum allowed number of steps=    300.
 Search for a saddle point of order  1.
 GradGradGradGradGradGradGradGradGradGradGradGradGradGradGradGradGradGrad

                          Input orientation:                          
 ---------------------------------------------------------------------
 Center     Atomic      Atomic             Coordinates (Angstroms)
 Number     Number       Type             X           Y           Z
 ---------------------------------------------------------------------
      1          6           0        2.145284    1.551940    0.145465
      2          1           0        1.888668    2.423972   -0.449470
      3          6           0        1.397642    1.228607    1.211607
      4          1           0        1.652108    0.405765    1.874641
      5          6           0        0.194227    1.976280    1.628608
      6          8           0       -0.350215    1.711144    2.681215
      7          6           0        3.360833    0.870508   -0.287868
      8          6           0        4.325946    1.585382   -0.990615
      9          6           0        3.706147   -0.450309    0.084798
     10          6           0        5.548710    1.024936   -1.343008
     11          1           0        4.118202    2.615750   -1.256698
     12          6           0        4.887194   -1.070521   -0.343700
     13          1           0        4.139908   -0.053369    1.825550
     14          6           0        5.836098   -0.299484   -1.025759
     15          1           0        6.278371    1.614004   -1.889469
     16          8           0        6.982650   -0.920155   -1.368714
     17          1           0        7.556394   -0.323276   -1.868553
     18          8           0        5.084764   -2.387483   -0.114040
     19          6           0        5.925901   -2.658156    1.018692
     20          1           0        5.475374   -2.248551    1.925612
     21          1           0        5.991321   -3.741092    1.095447
     22          1           0        6.919963   -2.235507    0.863098
     23          6           0       -2.731911    1.326874    0.364885
     24          1           0       -2.470211    1.726995    1.341202
     25          6           0       -1.989124    1.669455   -0.701174
     26          1           0       -2.208403    1.299687   -1.698299
     27          6           0       -0.826921    2.567204   -0.634025
     28          8           0       -0.245713    2.902099   -1.648784
     29          6           0       -3.894733    0.441415    0.370258
     30          6           0       -4.507051    0.145415    1.591449
     31          6           0       -4.426609   -0.128968   -0.797234
     32          6           0       -5.606444   -0.701294    1.655249
     33          1           0       -4.112172    0.576106    2.505630
     34          6           0       -5.520668   -0.970224   -0.746291
     35          1           0       -3.993222    0.068279   -1.771629
     36          6           0       -6.116972   -1.269095    0.493143
     37          1           0       -6.066376   -0.933040    2.611459
     38          8           0       -7.171331   -2.116671    0.483567
     39          1           0       -7.496687   -2.257188    1.382849
     40          8           0       -5.992955   -1.545711   -1.890431
     41          6           0       -7.225489   -0.988825   -2.347100
     42          1           0       -7.095188    0.070282   -2.588081
     43          1           0       -7.499140   -1.536135   -3.247556
     44          1           0       -8.010375   -1.104345   -1.597161
     45          6           0       -0.351634    3.077510    0.726223
     46          1           0       -1.174078    3.557078    1.258390
     47          1           0        0.423376    3.823271    0.541610
     48          8           0        2.777801   -2.026222    1.531729
     49          8           0        1.717202   -1.544578   -0.272937
     50          7           0        2.640286   -1.414283    0.498137
 ---------------------------------------------------------------------
                    Distance matrix (angstroms):
                    1          2          3          4          5
     1  C    0.000000
     2  H    1.086388   0.000000
     3  C    1.341705   2.104562   0.000000
     4  H    2.132367   3.087169   1.086939   0.000000
     5  C    2.487248   2.718449   1.476859   2.156958   0.000000
     6  O    3.561304   3.914321   2.334008   2.522672   1.214370
     7  C    1.459345   2.146307   2.496153   2.795026   3.863031
     8  C    2.459082   2.633704   3.681309   4.092749   4.907569
     9  C    2.539483   3.442407   3.068819   2.855780   4.539302
    10  C    3.751879   4.018908   4.878412   5.091183   6.197261
    11  H    2.643891   2.378911   3.926594   4.557514   4.912382
    12  C    3.825527   4.605847   4.458917   4.191210   5.932700
    13  H    3.062389   4.047347   3.088756   2.530289   4.441470
    14  C    4.292044   4.830272   5.200073   5.139598   6.637430
    15  H    4.607300   4.690324   5.795405   6.085283   7.037394
    16  O    5.639513   6.162536   6.516713   6.379035   7.965925
    17  H    6.070652   6.456337   7.058750   7.028769   8.468742
    18  O    4.922087   5.785987   5.331821   4.851826   6.782079
    19  C    5.725426   6.654530   5.970701   5.327811   7.396086
    20  H    5.357439   6.351216   5.406323   4.654606   6.769632
    21  H    6.611403   7.564823   6.768551   6.052465   8.159590
    22  H    6.136555   6.981942   6.528214   5.979116   7.972495
    23  C    4.887313   4.818355   4.216610   4.727307   3.252846
    24  H    4.771082   4.763624   3.901983   4.361619   2.691463
    25  C    4.221840   3.958525   3.914494   4.635764   3.207654
    26  H    4.734732   4.428271   4.634238   5.335592   4.159173
    27  C    3.236104   2.725619   3.185417   4.136521   2.551753
    28  O    3.280111   2.494502   3.699058   4.716771   3.433946
    29  C    6.145372   6.168486   5.416343   5.747337   4.545201
    30  C    6.951456   7.089598   6.015229   6.171160   5.045341
    31  C    6.848643   6.820643   6.308752   6.661506   5.627513
    32  C    8.212539   8.388911   7.278637   7.345767   6.388889
    33  H    6.758579   6.939546   5.697219   5.801214   4.612453
    34  C    8.119320   8.155178   7.518726   7.759597   6.854346
    35  H    6.599830   6.472559   6.269567   6.728962   5.721609
    36  C    8.737505   8.866653   7.951360   8.066740   7.187000
    37  H    8.926792   9.160870   7.895813   7.868310   6.973184
    38  O   10.018599  10.177012   9.227580   9.281748   8.503812
    39  H   10.440698  10.646856   9.554537   9.541154   8.782529
    40  O    8.942664   8.941741   8.481769   8.742483   7.941617
    41  C   10.023959   9.915445   9.588524   9.928731   8.924701
    42  H    9.749559   9.530120   9.375900   9.825661   8.634168
    43  H   10.680061  10.566110  10.328633  10.665515   9.762271
    44  H   10.640959  10.571531  10.091711  10.377737   9.338701
    45  C    2.983160   2.613105   2.591140   3.531581   1.524785
    46  H    4.034519   3.685258   3.469540   4.277601   2.123262
    47  H    2.877645   2.255517   2.851381   3.868605   2.155331
    48  O    3.889094   4.951761   3.549821   2.701728   4.764899
    49  O    3.153845   3.976173   3.161731   2.901752   4.281561
    50  N    3.027851   4.024312   3.006338   2.486732   4.330945
                    6          7          8          9         10
     6  O    0.000000
     7  C    4.826386   0.000000
     8  C    5.946817   1.391525   0.000000
     9  C    5.278952   1.415161   2.384261   0.000000
    10  C    7.173742   2.433922   1.390479   2.758626   0.000000
    11  H    6.024303   2.134973   1.084258   3.371961   2.141143
    12  C    6.657193   2.469917   2.790577   1.401123   2.413951
    13  H    4.899681   2.434552   3.263572   1.837370   3.631422
    14  C    7.486972   2.835542   2.415474   2.406819   1.391879
    15  H    8.052251   3.410270   2.149586   3.843885   1.085369
    16  O    8.780465   4.182375   3.671342   3.615097   2.416655
    17  H    9.346321   4.639657   3.853511   4.319273   2.474807
    18  O    7.358749   3.690076   4.138580   2.385951   3.656530
    19  C    7.825880   4.553915   4.960321   3.267117   4.391477
    20  H    7.084321   4.370275   4.952233   3.122889   4.626551
    21  H    8.512145   5.486336   5.957890   4.131910   5.371870
    22  H    8.469775   4.862043   4.976381   3.757831   4.168660
    23  C    3.344477   6.144582   7.191492   6.684715   8.460304
    24  H    2.508041   6.114615   7.186458   6.668328   8.485338
    25  C    3.758765   5.425051   6.322259   6.127582   7.592516
    26  H    4.775176   5.761068   6.578765   6.420578   7.770104
    27  C    3.457008   4.531654   5.257677   5.492795   6.597721
    28  O    4.492014   4.357365   4.802811   5.464535   6.098572
    29  C    4.417730   7.297978   8.410719   7.658331   9.615321
    30  C    4.573662   8.121650   9.314633   8.371470  10.512037
    31  C    5.665916   7.867824   8.920965   8.186755  10.056657
    32  C    5.873705   9.309045  10.530045   9.447416  11.679335
    33  H    3.933378   7.983490   9.189353   8.248640  10.408943
    34  C    6.758041   9.081823  10.175786   9.278746  11.263564
    35  H    5.983170   7.545014   8.492358   7.936973   9.599342
    36  C    6.850180   9.747649  10.927219   9.865639  12.030053
    37  H    6.298498  10.026522  11.283516  10.105407  12.425043
    38  O    8.124620  10.974736  12.168229  11.011599  13.228965
    39  H    8.276803  11.421888  12.655960  11.421613  13.725342
    40  O    7.959118   9.792838  10.820958   9.958615  11.837142
    41  C    8.935501  10.943846  11.912273  11.211815  12.970875
    42  H    8.715077  10.735908  11.631411  11.139306  12.740868
    43  H    9.838815  11.510460  12.436652  11.740616  13.432527
    44  H    9.214637  11.615449  12.640702  11.854688  13.727608
    45  C    2.385152   4.436401   5.201320   5.415027   6.580945
    46  H    2.471974   5.493086   6.260661   6.422855   7.640346
    47  H    3.104422   4.246822   4.752464   5.408211   6.136083
    48  O    5.007365   3.470145   4.669331   2.332153   5.025098
    49  O    4.858081   2.921367   4.137301   2.298108   4.735811
    50  N    4.845330   2.521361   3.749110   1.495378   4.218831
                   11         12         13         14         15
    11  H    0.000000
    12  C    3.874727   0.000000
    13  H    4.077367   2.509717   0.000000
    14  C    3.391620   1.400043   3.326800   0.000000
    15  H    2.463783   3.395799   4.599405   2.145469   0.000000
    16  O    4.551948   2.337563   4.363006   1.348122   2.681260
    17  H    4.564362   3.163571   5.039010   1.915799   2.320955
    18  O    5.222284   1.351357   3.178498   2.399057   4.537482
    19  C    6.021566   2.335725   3.259710   3.122688   5.180057
    20  H    5.969124   2.623640   2.571440   3.555218   5.488076
    21  H    7.032112   3.228342   4.190475   4.045772   6.137522
    22  H    5.989833   2.635470   3.662888   2.913886   4.775668
    23  C    7.156450   8.018750   7.159644   8.831178   9.292456
    24  H    7.137658   8.049621   6.862796   8.871521   9.326719
    25  C    6.205120   7.410736   6.849634   8.075653   8.352640
    26  H    6.477111   7.602652   7.385751   8.229438   8.494744
    27  C    4.984408   6.780003   6.130767   7.264102   7.278043
    28  O    4.390841   6.620550   6.327674   6.901211   6.654381
    29  C    8.460606   8.939683   8.180351   9.858340  10.486819
    30  C    9.413261   9.668254   8.652411  10.678410  11.427986
    31  C    8.986567   9.372254   8.959348  10.266667  10.900804
    32  C   10.679464  10.688712   9.769349  11.759295  12.616436
    33  H    9.276547   9.582205   8.303949  10.592707  11.329497
    34  C   10.296968  10.416128  10.039010  11.379988  12.132700
    35  H    8.517627   9.066291   8.893947   9.864436  10.387915
    36  C   11.086602  11.037727  10.414264  12.088138  12.947341
    37  H   11.457844  11.346037  10.274225  12.461927  13.384266
    38  O   12.364380  12.132058  11.575935  13.220191  14.157815
    39  H   12.869280  12.559843  11.851715  13.689308  14.678093
    40  O   10.952391  10.999810  10.895435  11.925906  12.671592
    41  C   11.952458  12.277515  12.143242  13.146337  13.760028
    42  H   11.575496  12.244025  12.071570  13.030569  13.480475
    43  H   12.496572  12.730689  12.782896  13.575502  14.198154
    44  H   12.690839  12.958379  12.666842  13.881611  14.547960
    45  C    4.911683   6.767290   5.584342   7.263715   7.276033
    46  H    5.934644   7.792328   6.449453   8.320635   8.320069
    47  H    4.282961   6.682712   5.521725   6.982214   6.713566
    48  O    5.578522   2.979956   2.415329   4.344600   6.099986
    49  O    4.903154   3.206024   3.535089   4.368330   5.778761
    50  N    4.637332   2.423934   2.421359   3.711907   5.301589
                   16         17         18         19         20
    16  O    0.000000
    17  H    0.967102   0.000000
    18  O    2.707255   3.667182   0.000000
    19  C    3.136411   4.055411   1.436613   0.000000
    20  H    3.858640   4.736351   2.081360   1.092362   0.000000
    21  H    3.874598   4.787088   2.029030   1.087622   1.784112
    22  H    2.591344   3.394641   2.084670   1.091330   1.793305
    23  C   10.120632  10.656475   8.667539   9.553305   9.087302
    24  H   10.183694  10.725621   8.724924   9.477777   8.903866
    25  C    9.361860   9.820930   8.175779   9.183342   8.830034
    26  H    9.461067   9.900215   8.324385   9.445288   9.206691
    27  C    8.584337   8.953151   7.730933   8.696923   8.334396
    28  O    8.181522   8.445367   7.664796   8.724717   8.487422
    29  C   11.099340  11.692961   9.427013  10.318559   9.871877
    30  C   11.912650  12.558582  10.066140  10.818251  10.270908
    31  C   11.450928  12.032366   9.799687  10.810589  10.485981
    32  C   12.949036  13.631595  10.967021  11.714499  11.192577
    33  H   11.846705  12.493910  10.011452  10.650556  10.011800
    34  C   12.518901  13.141064  10.718375  11.704197  11.387982
    35  H   11.027652  11.556658   9.549251  10.658721  10.425526
    36  C   13.235874  13.908024  11.273791  12.134104  11.721510
    37  H   13.642545  14.353473  11.571157  12.219969  11.636707
    38  O   14.324726  15.021805  12.273644  13.119339  12.729338
    39  H   14.798985  15.521175  12.670855  13.433512  12.983414
    40  O   13.001147  13.604399  11.250778  12.319077  12.106971
    41  C   14.241951  14.804595  12.589088  13.677510  13.459380
    42  H   14.165216  14.674517  12.669361  13.784119  13.556159
    43  H   14.616146  15.167128  12.996090  14.131225  13.985965
    44  H   14.995897  15.588714  13.241177  14.264530  13.985155
    45  C    8.611725   8.990835   7.754135   8.508281   7.984953
    46  H    9.668480  10.052664   8.740393   9.439083   8.852442
    47  H    8.317061   8.595504   7.793066   8.515532   8.019050
    48  O    5.226539   6.107118   2.856771   3.251627   2.735228
    49  O    5.414386   6.175252   3.475084   4.541091   4.410561
    50  N    4.752412   5.564138   2.701361   3.551544   3.281983
                   21         22         23         24         25
    21  H    0.000000
    22  H    1.784138   0.000000
    23  C   10.114978  10.300361   0.000000
    24  H   10.077594  10.203204   1.087096   0.000000
    25  C    9.807618   9.852284   1.343717   2.099061   0.000000
    26  H   10.022472  10.118568   2.128739   3.080536   1.085850
    27  C    9.448497   9.236970   2.482987   2.703308   1.470095
    28  O    9.516480   9.167958   3.566143   3.907592   2.335992
    29  C   10.758872  11.151971   1.461582   2.150514   2.507468
    30  C   11.205658  11.695124   2.459965   2.590895   3.730787
    31  C   11.187625  11.659284   2.518332   3.441657   3.030658
    32  C   12.002579  12.644848   3.747192   3.978840   4.925260
    33  H   11.077337  11.502655   2.655478   2.318722   3.998292
    34  C   11.983138  12.607949   3.780018   4.575796   4.409279
    35  H   11.064472  11.460664   2.782024   3.841955   2.779577
    36  C   12.372724  13.077939   4.267803   4.795271   5.205823
    37  H   12.472831  13.168075   4.612262   4.649918   5.862636
    38  O   13.276617  14.096905   5.619656   6.132686   6.526380
    39  H   13.572433  14.426032   6.048540   6.414118   7.077777
    40  O   12.544243  13.221240   4.896182   5.793426   5.270891
    41  C   13.932343  14.558619   5.736686   6.602418   6.098774
    42  H   14.119195  14.616831   5.416384   6.290817   5.673593
    43  H   14.342805  15.009901   6.631216   7.549493   6.864411
    44  H   14.500002  15.173905   6.133729   6.880689   6.689710
    45  C    9.320018   9.006831   2.976745   2.586592   2.588717
    46  H   10.229017   9.961114   2.863390   2.244108   2.840301
    47  H    9.408950   8.889195   4.027290   3.661498   3.464620
    48  O    3.668492   4.200997   6.554518   6.454810   6.431754
    49  O    4.996523   5.369980   5.333541   5.553653   4.924454
    50  N    4.123137   4.373013   6.032595   6.057686   5.690274
                   26         27         28         29         30
    26  H    0.000000
    27  C    2.155869   0.000000
    28  O    2.534231   1.216426   0.000000
    29  C    2.803439   3.865105   4.842194   0.000000
    30  C    4.175951   4.935702   6.021413   1.397804   0.000000
    31  C    2.788084   4.500415   5.233775   1.404018   2.405736
    32  C    5.176571   6.226371   7.255240   2.426302   1.389119
    33  H    4.671287   4.961328   6.133425   2.150636   1.084966
    34  C    4.126732   5.878542   6.605644   2.425504   2.781564
    35  H    2.169636   4.190970   4.699942   2.176376   3.402979
    36  C    5.165072   6.631164   7.513880   2.807008   2.408103
    37  H    6.200245   7.087790   8.169338   3.410006   2.152900
    38  O    6.408018   7.964875   8.814713   4.158454   3.666446
    39  H    7.078897   8.475159   9.401365   4.613228   3.841086
    40  O    4.738780   6.721795   7.271327   3.669049   4.146240
    41  C    5.552421   7.518088   8.021484   4.530293   4.918188
    42  H    5.117012   7.024537   7.471062   4.374062   4.916561
    43  H    6.199515   8.257508   8.652525   5.476407   5.932637
    44  H    6.281121   8.124649   8.737519   4.816495   4.899226
    45  C    3.533632   1.528589   2.383830   4.430492   5.158807
    46  H    3.861043   2.163701   3.121301   4.230614   4.781117
    47  H    4.279244   2.126750   2.468616   5.487475   6.240024
    48  O    6.808596   6.227686   6.598913   7.208395   7.601884
    49  O    5.052908   4.848680   5.051626   5.987627   6.713668
    50  N    5.974927   5.399588   5.618667   6.794589   7.396784
                   31         32         33         34         35
    31  C    0.000000
    32  C    2.781050   0.000000
    33  H    3.391889   2.141903   0.000000
    34  C    1.381040   2.418073   3.866521   0.000000
    35  H    1.084517   3.864999   4.308942   2.112557   0.000000
    36  C    2.412942   1.390513   3.387343   1.407515   3.380544
    37  H    3.867112   1.086085   2.471363   3.402009   4.950966
    38  O    3.622832   2.413504   4.549532   2.356179   4.467694
    39  H    4.325212   2.463336   4.554463   3.177131   5.256691
    40  O    2.378167   3.665280   5.231138   1.365026   2.572549
    41  C    3.312879   4.326983   5.974173   2.338664   3.449085
    42  H    3.219961   4.562624   5.924537   2.637036   3.207615
    43  H    4.174284   5.321349   7.002304   3.238971   4.128434
    44  H    3.799292   4.064419   5.903626   2.634504   4.188437
    45  C    5.404428   6.538767   4.854375   6.728400   5.343772
    46  H    5.328366   6.159310   4.367402   6.588479   5.412976
    47  H    6.398051   7.620407   5.913768   7.743897   6.241585
    48  O    7.805585   8.489185   7.429154   8.670011   7.819582
    49  O    6.326551   7.620028   6.797009   7.276037   6.120157
    50  N    7.298700   8.357979   7.320339   8.267222   7.166119
                   36         37         38         39         40
    36  C    0.000000
    37  H    2.145403   0.000000
    38  O    1.352830   2.673917   0.000000
    39  H    1.916121   2.304049   0.966597   0.000000
    40  O    2.402774   4.543982   2.711168   3.671753   0.000000
    41  C    3.061755   5.092540   3.047564   3.949027   1.427518
    42  H    3.499254   5.394472   3.771417   4.620238   2.076792
    43  H    3.996815   6.061732   3.790219   4.686211   2.027430
    44  H    2.825153   4.639069   2.461347   3.236260   2.085856
    45  C    7.224017   7.231660   8.575935   8.941026   7.748907
    46  H    6.950522   6.776912   8.292094   8.590493   7.692536
    47  H    8.289191   8.308047   9.641880  10.020332   8.712640
    48  O    8.987151   8.976655  10.004602  10.278162   9.426995
    49  O    7.876360   8.323329   8.938994   9.388567   7.877995
    50  N    8.758463   8.972385   9.836737  10.210359   8.958537
                   41         42         43         44         45
    41  C    0.000000
    42  H    1.093964   0.000000
    43  H    1.088694   1.782880   0.000000
    44  H    1.091696   1.788641   1.780901   0.000000
    45  C    8.557469   8.093426   9.389541   9.030080   0.000000
    46  H    8.383577   7.874810   9.287130   8.753170   1.090688
    47  H    9.487152   8.967090  10.288210   9.999195   1.091275
    48  O   10.779022  10.901563  11.344482  11.270517   6.040719
    49  O    9.196887   9.253425   9.684492   9.827163   5.161599
    50  N   10.276668  10.320278  10.809858  10.859232   5.401834
                   46         47         48         49         50
    46  H    0.000000
    47  H    1.771014   0.000000
    48  O    6.845824   6.382807   0.000000
    49  O    6.060640   5.581333   2.147946   0.000000
    50  N    6.312035   5.687579   1.209005   1.209800   0.000000
 Stoichiometry    C21H20NO8(2)
 Framework group  C1[X(C21H20NO8)]
 Deg. of freedom   144
 Full point group                 C1      NOp   1
 Largest Abelian subgroup         C1      NOp   1
 Largest concise Abelian subgroup C1      NOp   1
                         Standard orientation:                         
 ---------------------------------------------------------------------
 Center     Atomic      Atomic             Coordinates (Angstroms)
 Number     Number       Type             X           Y           Z
 ---------------------------------------------------------------------
      1          6           0        2.145284    1.551940    0.145465
      2          1           0        1.888668    2.423972   -0.449470
      3          6           0        1.397642    1.228607    1.211607
      4          1           0        1.652108    0.405765    1.874641
      5          6           0        0.194227    1.976280    1.628608
      6          8           0       -0.350215    1.711144    2.681215
      7          6           0        3.360833    0.870508   -0.287868
      8          6           0        4.325946    1.585382   -0.990615
      9          6           0        3.706147   -0.450309    0.084798
     10          6           0        5.548710    1.024936   -1.343008
     11          1           0        4.118202    2.615750   -1.256698
     12          6           0        4.887194   -1.070521   -0.343700
     13          1           0        4.139908   -0.053369    1.825550
     14          6           0        5.836098   -0.299484   -1.025759
     15          1           0        6.278371    1.614004   -1.889469
     16          8           0        6.982650   -0.920155   -1.368714
     17          1           0        7.556394   -0.323276   -1.868553
     18          8           0        5.084764   -2.387483   -0.114040
     19          6           0        5.925901   -2.658156    1.018692
     20          1           0        5.475374   -2.248551    1.925612
     21          1           0        5.991321   -3.741092    1.095447
     22          1           0        6.919963   -2.235507    0.863098
     23          6           0       -2.731911    1.326874    0.364885
     24          1           0       -2.470211    1.726995    1.341202
     25          6           0       -1.989124    1.669455   -0.701174
     26          1           0       -2.208403    1.299687   -1.698299
     27          6           0       -0.826921    2.567204   -0.634025
     28          8           0       -0.245713    2.902099   -1.648784
     29          6           0       -3.894733    0.441415    0.370258
     30          6           0       -4.507051    0.145415    1.591449
     31          6           0       -4.426609   -0.128968   -0.797234
     32          6           0       -5.606444   -0.701294    1.655249
     33          1           0       -4.112172    0.576106    2.505630
     34          6           0       -5.520668   -0.970224   -0.746291
     35          1           0       -3.993222    0.068279   -1.771629
     36          6           0       -6.116972   -1.269095    0.493143
     37          1           0       -6.066376   -0.933040    2.611459
     38          8           0       -7.171331   -2.116671    0.483567
     39          1           0       -7.496687   -2.257188    1.382849
     40          8           0       -5.992955   -1.545711   -1.890431
     41          6           0       -7.225489   -0.988825   -2.347100
     42          1           0       -7.095188    0.070282   -2.588081
     43          1           0       -7.499140   -1.536135   -3.247556
     44          1           0       -8.010375   -1.104345   -1.597161
     45          6           0       -0.351634    3.077510    0.726223
     46          1           0       -1.174078    3.557078    1.258390
     47          1           0        0.423376    3.823271    0.541610
     48          8           0        2.777801   -2.026222    1.531729
     49          8           0        1.717202   -1.544578   -0.272937
     50          7           0        2.640286   -1.414283    0.498137
 ---------------------------------------------------------------------
 Rotational constants (GHZ):           0.2820504           0.0575758           0.0543509
 Standard basis: 6-311G(d) (5D, 7F)
 There are   630 symmetry adapted cartesian basis functions of A   symmetry.
 There are   600 symmetry adapted basis functions of A   symmetry.
   600 basis functions,  1060 primitive gaussians,   630 cartesian basis functions
   109 alpha electrons      108 beta electrons
       nuclear repulsion energy      2759.2280105423 Hartrees.
 NAtoms=   50 NActive=   50 NUniq=   50 SFac= 1.00D+00 NAtFMM=   60 NAOKFM=F Big=F
 Integral buffers will be    131072 words long.
 Raffenetti 2 integral format.
 Two-electron integral symmetry is turned on.
 Force inversion solution in PCM.
 Using the following non-standard input for PCM:
 Eps=7
 EpsInf=1.85341
 HbondAcidity=0
 HbondBasicity=0.48
 SurfaceTensionAtInterface=60.62
 CarbonAromaticity=0
 ElectronegativeHalogenicity=0
 --- end of non-standard input.
 Force inversion solution in PCM.
 ------------------------------------------------------------------------------
 Polarizable Continuum Model (PCM)
 =================================
 Model                : PCM.
 Atomic radii         : SMD-Coulomb.
 Polarization charges : Total charges.
 Charge compensation  : None.
 Solution method      : Matrix inversion.
 Cavity type          : VdW (van der Waals Surface) (Alpha=1.000).
 Cavity algorithm     : GePol (No added spheres)
                        Default sphere list used, NSphG=   50.
                        Lebedev-Laikov grids with approx.  5.0 points / Ang**2.
                        Smoothing algorithm: York/Karplus (Gamma=1.0000).
                        Polarization charges: spherical gaussians, with
                                              point-specific exponents (IZeta= 3).
                        Self-potential: point-specific (ISelfS= 7).
                        Self-field    : sphere-specific E.n sum rule (ISelfD= 2).
 1st derivatives      : Analytical E(r).r(x)/FMM algorithm (CHGder, D1EAlg=3).
                        Cavity 1st derivative terms included.
 2nd derivatives      : Analytical E(r).r(xy)/FMM algorithm (CHGder, D2EAlg=3).
                        Cavity 2nd derivative terms included.
 Solvent              : Generic,
                        Eps                           =   7.000000
                        Eps(infinity)                 =   1.853410
                        RSolv                         =   0.000000 Ang.
                        Molar volume                  =   0.000000 cm**3/mol
                        Thermal expansion coefficient =   0.000000 K**-1
                        Absolute temperature          = 298.150000 K
                        Numeral density               =   0.000000 Ang**-3
                        Hydrogen bond acidity         =   0.000000
                        Hydrogen bond basicity        =   0.480000
                        Surface tension at interface  =  60.620000 (cal/mol)*Ang**-2
                        Carbon aromaticity            =   0.000000
                        Electronegative halogenicity  =   0.000000
 ------------------------------------------------------------------------------
 ------------------------------------------------------------------------------
 Atomic radii for non-electrostatic terms: SMD-CDS.
 ------------------------------------------------------------------------------
 Nuclear repulsion after PCM non-electrostatic terms =     2759.2242545831 Hartrees.
 One-electron integrals computed using PRISM.
 NBasis=   600 RedAO= T EigKep=  1.67D-04  NBF=   600
 NBsUse=   600 1.00D-06 EigRej= -1.00D+00 NBFU=   600
 ExpMin= 1.03D-01 ExpMax= 8.59D+03 ExpMxC= 1.30D+03 IAcc=3 IRadAn=         5 AccDes= 0.00D+00
 Harris functional with IExCor= 1009 and IRadAn=       5 diagonalized for initial guess.
 HarFok:  IExCor= 1009 AccDes= 0.00D+00 IRadAn=         5 IDoV= 1 UseB2=F ITyADJ=14
 ICtDFT=  3500011 ScaDFX=  1.000000  1.000000  1.000000  1.000000
 FoFCou: FMM=F IPFlag=           0 FMFlag=      100000 FMFlg1=           0
         NFxFlg=           0 DoJE=T BraDBF=F KetDBF=T FulRan=T
         wScrn=  0.000000 ICntrl=       500 IOpCl=  0 I1Cent=   200000004 NGrid=           0
         NMat0=    1 NMatS0=      1 NMatT0=    0 NMatD0=    1 NMtDS0=    0 NMtDT0=    0
 Petite list used in FoFCou.
 Initial guess <Sx>= 0.0000 <Sy>= 0.0000 <Sz>= 0.5000 <S**2>= 0.7500 S= 0.5000
 Requested convergence on RMS density matrix=1.00D-08 within 128 cycles.
 Requested convergence on MAX density matrix=1.00D-06.
 Requested convergence on             energy=1.00D-06.
 No special actions if energy rises.
 Inv3:  Mode=1 IEnd=    49743552.
 Iteration    1 A*A^-1 deviation from unit magnitude is 3.66D-15 for   1666.
 Iteration    1 A*A^-1 deviation from orthogonality  is 1.69D-15 for   1480    159.
 Iteration    1 A^-1*A deviation from unit magnitude is 3.55D-15 for   2773.
 Iteration    1 A^-1*A deviation from orthogonality  is 4.44D-15 for    772    707.
 Restarting incremental Fock formation.
 Error on total polarization charges =  0.03583
 SCF Done:  E(UM062X) =  -1468.33535904     A.U. after   21 cycles
            NFock= 21  Conv=0.98D-08     -V/T= 2.0032
 <Sx>= 0.0000 <Sy>= 0.0000 <Sz>= 0.5000 <S**2>= 0.7675 S= 0.5087
 <L.S>=  0.00000000000    
 SMD-CDS (non-electrostatic) energy       (kcal/mol) =      -2.36
 (included in total energy above)
 Annihilation of the first spin contaminant:
 S**2 before annihilation     0.7675,   after     0.7501
 DoSCS=F DFT=T ScalE2(SS,OS)=  1.000000  1.000000
 Range of M.O.s used for correlation:     1   600
 NBasis=   600 NAE=   109 NBE=   108 NFC=     0 NFV=     0
 NROrb=    600 NOA=   109 NOB=   108 NVA=   491 NVB=   492

 **** Warning!!: The largest alpha MO coefficient is  0.15986796D+02


 **** Warning!!: The largest beta MO coefficient is  0.15984586D+02

 Symmetrizing basis deriv contribution to polar:
 IMax=3 JMax=2 DiffMx= 0.00D+00
 G2DrvN: will do    26 centers at a time, making    2 passes.
 Calling FoFCou, ICntrl=  3107 FMM=F I1Cent=   0 AccDes= 0.00D+00.
 Calling FoFCou, ICntrl=  3107 FMM=F I1Cent=   0 AccDes= 0.00D+00.
 NEqPCM:  Using equilibrium solvation (IEInf=0, Eps=   7.0000, EpsInf=   1.8534)
 G2PCM: DoFxE=T DoFxN=T DoGrad=T DoDP/DQ/DG/TGxP=FFFF NFrqRd=   0 IEInf=0 SqF1=F DoCFld=F IF1Alg=4.
 End of G2Drv F.D. properties file   721 does not exist.
 End of G2Drv F.D. properties file   722 does not exist.
 End of G2Drv F.D. properties file   788 does not exist.
          IDoAtm=11111111111111111111111111111111111111111111111111
 NEqPCM:  Using equilibrium solvation (IEInf=0, Eps=   7.0000, EpsInf=   1.8534)
          Differentiating once with respect to nuclear coordinates.
 CalDSu exits because no D1Ps are significant.
          There are   153 degrees of freedom in the 1st order CPHF.  IDoFFX=6 NUNeed=     0.
    150 vectors produced by pass  0 Test12= 1.07D-13 1.00D-09 XBig12= 2.23D-01 1.34D-01.
 AX will form    50 AO Fock derivatives at one time.
    150 vectors produced by pass  1 Test12= 1.07D-13 1.00D-09 XBig12= 2.96D-02 2.33D-02.
    148 vectors produced by pass  2 Test12= 1.07D-13 1.00D-09 XBig12= 9.40D-04 4.64D-03.
    147 vectors produced by pass  3 Test12= 1.07D-13 1.00D-09 XBig12= 1.26D-05 5.66D-04.
    147 vectors produced by pass  4 Test12= 1.07D-13 1.00D-09 XBig12= 1.24D-07 4.87D-05.
    147 vectors produced by pass  5 Test12= 1.07D-13 1.00D-09 XBig12= 1.42D-09 3.49D-06.
    139 vectors produced by pass  6 Test12= 1.07D-13 1.00D-09 XBig12= 1.17D-11 2.22D-07.
     75 vectors produced by pass  7 Test12= 1.07D-13 1.00D-09 XBig12= 8.70D-14 1.74D-08.
      8 vectors produced by pass  8 Test12= 1.07D-13 1.00D-09 XBig12= 1.29D-15 1.77D-09.
      6 vectors produced by pass  9 Test12= 1.07D-13 1.00D-09 XBig12= 1.14D-15 1.33D-09.
      6 vectors produced by pass 10 Test12= 1.07D-13 1.00D-09 XBig12= 1.48D-15 1.94D-09.
      2 vectors produced by pass 11 Test12= 1.07D-13 1.00D-09 XBig12= 5.98D-16 1.30D-09.
 InvSVY:  IOpt=1 It=  1 EMax= 6.11D-16
 Solved reduced A of dimension  1125 with   153 vectors.
 End of Minotr F.D. properties file   721 does not exist.
 End of Minotr F.D. properties file   722 does not exist.
 End of Minotr F.D. properties file   788 does not exist.

 **********************************************************************

            Population analysis using the SCF density.

 **********************************************************************

 Orbital symmetries:
 Alpha Orbitals:
       Occupied  (A) (A) (A) (A) (A) (A) (A) (A) (A) (A) (A) (A)
                 (A) (A) (A) (A) (A) (A) (A) (A) (A) (A) (A) (A)
                 (A) (A) (A) (A) (A) (A) (A) (A) (A) (A) (A) (A)
                 (A) (A) (A) (A) (A) (A) (A) (A) (A) (A) (A) (A)
                 (A) (A) (A) (A) (A) (A) (A) (A) (A) (A) (A) (A)
                 (A) (A) (A) (A) (A) (A) (A) (A) (A) (A) (A) (A)
                 (A) (A) (A) (A) (A) (A) (A) (A) (A) (A) (A) (A)
                 (A) (A) (A) (A) (A) (A) (A) (A) (A) (A) (A) (A)
                 (A) (A) (A) (A) (A) (A) (A) (A) (A) (A) (A) (A)
                 (A)
       Virtual   (A) (A) (A) (A) (A) (A) (A) (A) (A) (A) (A) (A)
                 (A) (A) (A) (A) (A) (A) (A) (A) (A) (A) (A) (A)
                 (A) (A) (A) (A) (A) (A) (A) (A) (A) (A) (A) (A)
                 (A) (A) (A) (A) (A) (A) (A) (A) (A) (A) (A) (A)
                 (A) (A) (A) (A) (A) (A) (A) (A) (A) (A) (A) (A)
                 (A) (A) (A) (A) (A) (A) (A) (A) (A) (A) (A) (A)
                 (A) (A) (A) (A) (A) (A) (A) (A) (A) (A) (A) (A)
                 (A) (A) (A) (A) (A) (A) (A) (A) (A) (A) (A) (A)
                 (A) (A) (A) (A) (A) (A) (A) (A) (A) (A) (A) (A)
                 (A) (A) (A) (A) (A) (A) (A) (A) (A) (A) (A) (A)
                 (A) (A) (A) (A) (A) (A) (A) (A) (A) (A) (A) (A)
                 (A) (A) (A) (A) (A) (A) (A) (A) (A) (A) (A) (A)
                 (A) (A) (A) (A) (A) (A) (A) (A) (A) (A) (A) (A)
                 (A) (A) (A) (A) (A) (A) (A) (A) (A) (A) (A) (A)
                 (A) (A) (A) (A) (A) (A) (A) (A) (A) (A) (A) (A)
                 (A) (A) (A) (A) (A) (A) (A) (A) (A) (A) (A) (A)
                 (A) (A) (A) (A) (A) (A) (A) (A) (A) (A) (A) (A)
                 (A) (A) (A) (A) (A) (A) (A) (A) (A) (A) (A) (A)
                 (A) (A) (A) (A) (A) (A) (A) (A) (A) (A) (A) (A)
                 (A) (A) (A) (A) (A) (A) (A) (A) (A) (A) (A) (A)
                 (A) (A) (A) (A) (A) (A) (A) (A) (A) (A) (A) (A)
                 (A) (A) (A) (A) (A) (A) (A) (A) (A) (A) (A) (A)
                 (A) (A) (A) (A) (A) (A) (A) (A) (A) (A) (A) (A)
                 (A) (A) (A) (A) (A) (A) (A) (A) (A) (A) (A) (A)
                 (A) (A) (A) (A) (A) (A) (A) (A) (A) (A) (A) (A)
                 (A) (A) (A) (A) (A) (A) (A) (A) (A) (A) (A) (A)
                 (A) (A) (A) (A) (A) (A) (A) (A) (A) (A) (A) (A)
                 (A) (A) (A) (A) (A) (A) (A) (A) (A) (A) (A) (A)
                 (A) (A) (A) (A) (A) (A) (A) (A) (A) (A) (A) (A)
                 (A) (A) (A) (A) (A) (A) (A) (A) (A) (A) (A) (A)
                 (A) (A) (A) (A) (A) (A) (A) (A) (A) (A) (A) (A)
                 (A) (A) (A) (A) (A) (A) (A) (A) (A) (A) (A) (A)
                 (A) (A) (A) (A) (A) (A) (A) (A) (A) (A) (A) (A)
                 (A) (A) (A) (A) (A) (A) (A) (A) (A) (A) (A) (A)
                 (A) (A) (A) (A) (A) (A) (A) (A) (A) (A) (A) (A)
                 (A) (A) (A) (A) (A) (A) (A) (A) (A) (A) (A) (A)
                 (A) (A) (A) (A) (A) (A) (A) (A) (A) (A) (A) (A)
                 (A) (A) (A) (A) (A) (A) (A) (A) (A) (A) (A) (A)
                 (A) (A) (A) (A) (A) (A) (A) (A) (A) (A) (A) (A)
                 (A) (A) (A) (A) (A) (A) (A) (A) (A) (A) (A) (A)
                 (A) (A) (A) (A) (A) (A) (A) (A) (A) (A) (A)
 Beta  Orbitals:
       Occupied  (A) (A) (A) (A) (A) (A) (A) (A) (A) (A) (A) (A)
                 (A) (A) (A) (A) (A) (A) (A) (A) (A) (A) (A) (A)
                 (A) (A) (A) (A) (A) (A) (A) (A) (A) (A) (A) (A)
                 (A) (A) (A) (A) (A) (A) (A) (A) (A) (A) (A) (A)
                 (A) (A) (A) (A) (A) (A) (A) (A) (A) (A) (A) (A)
                 (A) (A) (A) (A) (A) (A) (A) (A) (A) (A) (A) (A)
                 (A) (A) (A) (A) (A) (A) (A) (A) (A) (A) (A) (A)
                 (A) (A) (A) (A) (A) (A) (A) (A) (A) (A) (A) (A)
                 (A) (A) (A) (A) (A) (A) (A) (A) (A) (A) (A) (A)
       Virtual   (A) (A) (A) (A) (A) (A) (A) (A) (A) (A) (A) (A)
                 (A) (A) (A) (A) (A) (A) (A) (A) (A) (A) (A) (A)
                 (A) (A) (A) (A) (A) (A) (A) (A) (A) (A) (A) (A)
                 (A) (A) (A) (A) (A) (A) (A) (A) (A) (A) (A) (A)
                 (A) (A) (A) (A) (A) (A) (A) (A) (A) (A) (A) (A)
                 (A) (A) (A) (A) (A) (A) (A) (A) (A) (A) (A) (A)
                 (A) (A) (A) (A) (A) (A) (A) (A) (A) (A) (A) (A)
                 (A) (A) (A) (A) (A) (A) (A) (A) (A) (A) (A) (A)
                 (A) (A) (A) (A) (A) (A) (A) (A) (A) (A) (A) (A)
                 (A) (A) (A) (A) (A) (A) (A) (A) (A) (A) (A) (A)
                 (A) (A) (A) (A) (A) (A) (A) (A) (A) (A) (A) (A)
                 (A) (A) (A) (A) (A) (A) (A) (A) (A) (A) (A) (A)
                 (A) (A) (A) (A) (A) (A) (A) (A) (A) (A) (A) (A)
                 (A) (A) (A) (A) (A) (A) (A) (A) (A) (A) (A) (A)
                 (A) (A) (A) (A) (A) (A) (A) (A) (A) (A) (A) (A)
                 (A) (A) (A) (A) (A) (A) (A) (A) (A) (A) (A) (A)
                 (A) (A) (A) (A) (A) (A) (A) (A) (A) (A) (A) (A)
                 (A) (A) (A) (A) (A) (A) (A) (A) (A) (A) (A) (A)
                 (A) (A) (A) (A) (A) (A) (A) (A) (A) (A) (A) (A)
                 (A) (A) (A) (A) (A) (A) (A) (A) (A) (A) (A) (A)
                 (A) (A) (A) (A) (A) (A) (A) (A) (A) (A) (A) (A)
                 (A) (A) (A) (A) (A) (A) (A) (A) (A) (A) (A) (A)
                 (A) (A) (A) (A) (A) (A) (A) (A) (A) (A) (A) (A)
                 (A) (A) (A) (A) (A) (A) (A) (A) (A) (A) (A) (A)
                 (A) (A) (A) (A) (A) (A) (A) (A) (A) (A) (A) (A)
                 (A) (A) (A) (A) (A) (A) (A) (A) (A) (A) (A) (A)
                 (A) (A) (A) (A) (A) (A) (A) (A) (A) (A) (A) (A)
                 (A) (A) (A) (A) (A) (A) (A) (A) (A) (A) (A) (A)
                 (A) (A) (A) (A) (A) (A) (A) (A) (A) (A) (A) (A)
                 (A) (A) (A) (A) (A) (A) (A) (A) (A) (A) (A) (A)
                 (A) (A) (A) (A) (A) (A) (A) (A) (A) (A) (A) (A)
                 (A) (A) (A) (A) (A) (A) (A) (A) (A) (A) (A) (A)
                 (A) (A) (A) (A) (A) (A) (A) (A) (A) (A) (A) (A)
                 (A) (A) (A) (A) (A) (A) (A) (A) (A) (A) (A) (A)
                 (A) (A) (A) (A) (A) (A) (A) (A) (A) (A) (A) (A)
                 (A) (A) (A) (A) (A) (A) (A) (A) (A) (A) (A) (A)
                 (A) (A) (A) (A) (A) (A) (A) (A) (A) (A) (A) (A)
                 (A) (A) (A) (A) (A) (A) (A) (A) (A) (A) (A) (A)
                 (A) (A) (A) (A) (A) (A) (A) (A) (A) (A) (A) (A)
                 (A) (A) (A) (A) (A) (A) (A) (A) (A) (A) (A) (A)
                 (A) (A) (A) (A) (A) (A) (A) (A) (A) (A) (A) (A)
 The electronic state is 2-A.
 Alpha  occ. eigenvalues --  -19.66876 -19.66690 -19.66638 -19.65790 -19.65264
 Alpha  occ. eigenvalues --  -19.63364 -19.61590 -19.61057 -15.00801 -10.63860
 Alpha  occ. eigenvalues --  -10.63408 -10.63178 -10.62909 -10.62818 -10.61533
 Alpha  occ. eigenvalues --  -10.59948 -10.58182 -10.58052 -10.57376 -10.57247
 Alpha  occ. eigenvalues --  -10.56818 -10.56551 -10.56484 -10.55515 -10.55407
 Alpha  occ. eigenvalues --  -10.55077 -10.54831 -10.54748 -10.54666 -10.54247
 Alpha  occ. eigenvalues --   -1.38540  -1.21815  -1.20332  -1.19788  -1.19132
 Alpha  occ. eigenvalues --   -1.17482  -1.17280  -1.16773  -1.00591  -0.97283
 Alpha  occ. eigenvalues --   -0.92600  -0.91364  -0.91046  -0.87576  -0.85689
 Alpha  occ. eigenvalues --   -0.85228  -0.82730  -0.81147  -0.78762  -0.77848
 Alpha  occ. eigenvalues --   -0.74888  -0.74417  -0.71241  -0.70638  -0.69648
 Alpha  occ. eigenvalues --   -0.66723  -0.66720  -0.65192  -0.63607  -0.62877
 Alpha  occ. eigenvalues --   -0.61557  -0.60989  -0.60591  -0.59579  -0.58811
 Alpha  occ. eigenvalues --   -0.58627  -0.57869  -0.56474  -0.55781  -0.55511
 Alpha  occ. eigenvalues --   -0.54500  -0.53985  -0.52913  -0.52574  -0.52093
 Alpha  occ. eigenvalues --   -0.51264  -0.50731  -0.50479  -0.50270  -0.49735
 Alpha  occ. eigenvalues --   -0.49187  -0.48537  -0.48038  -0.47487  -0.46881
 Alpha  occ. eigenvalues --   -0.46621  -0.45508  -0.45153  -0.44335  -0.44153
 Alpha  occ. eigenvalues --   -0.43253  -0.43208  -0.42682  -0.42550  -0.40374
 Alpha  occ. eigenvalues --   -0.40110  -0.39635  -0.39037  -0.36876  -0.36308
 Alpha  occ. eigenvalues --   -0.35917  -0.35277  -0.34917  -0.34047  -0.32028
 Alpha  occ. eigenvalues --   -0.30714  -0.29091  -0.26857  -0.26747
 Alpha virt. eigenvalues --   -0.05177  -0.03722  -0.02718   0.00987   0.02305
 Alpha virt. eigenvalues --    0.03594   0.05160   0.06889   0.07479   0.08865
 Alpha virt. eigenvalues --    0.09740   0.10068   0.10433   0.11081   0.11779
 Alpha virt. eigenvalues --    0.11904   0.12220   0.12930   0.14502   0.14669
 Alpha virt. eigenvalues --    0.15543   0.15982   0.16179   0.16318   0.16450
 Alpha virt. eigenvalues --    0.17469   0.18067   0.18324   0.18932   0.20186
 Alpha virt. eigenvalues --    0.20497   0.21354   0.21975   0.23138   0.24541
 Alpha virt. eigenvalues --    0.26131   0.26571   0.26714   0.27267   0.28970
 Alpha virt. eigenvalues --    0.29956   0.30393   0.30827   0.31511   0.31938
 Alpha virt. eigenvalues --    0.32589   0.33575   0.34014   0.34391   0.34570
 Alpha virt. eigenvalues --    0.35431   0.35928   0.36056   0.37132   0.38044
 Alpha virt. eigenvalues --    0.38461   0.38570   0.39303   0.40008   0.40209
 Alpha virt. eigenvalues --    0.40423   0.40842   0.41338   0.41684   0.42382
 Alpha virt. eigenvalues --    0.42734   0.43123   0.43642   0.43974   0.44453
 Alpha virt. eigenvalues --    0.45022   0.45390   0.46236   0.46854   0.46963
 Alpha virt. eigenvalues --    0.47272   0.47849   0.48250   0.48709   0.49166
 Alpha virt. eigenvalues --    0.49488   0.49894   0.50145   0.50695   0.50897
 Alpha virt. eigenvalues --    0.51370   0.51541   0.52638   0.52911   0.53598
 Alpha virt. eigenvalues --    0.53855   0.54612   0.55338   0.56643   0.57134
 Alpha virt. eigenvalues --    0.57435   0.57794   0.57889   0.59081   0.59546
 Alpha virt. eigenvalues --    0.60059   0.60340   0.61615   0.61790   0.62180
 Alpha virt. eigenvalues --    0.62441   0.63174   0.63965   0.64230   0.64629
 Alpha virt. eigenvalues --    0.65174   0.65431   0.65757   0.66178   0.66488
 Alpha virt. eigenvalues --    0.66656   0.67165   0.67706   0.68251   0.68494
 Alpha virt. eigenvalues --    0.68667   0.69199   0.69700   0.69824   0.70849
 Alpha virt. eigenvalues --    0.72173   0.72350   0.73036   0.73750   0.73946
 Alpha virt. eigenvalues --    0.75446   0.75711   0.76856   0.78350   0.79529
 Alpha virt. eigenvalues --    0.79548   0.80203   0.80731   0.81234   0.82295
 Alpha virt. eigenvalues --    0.82668   0.83339   0.83894   0.84116   0.84430
 Alpha virt. eigenvalues --    0.85345   0.85552   0.85823   0.86741   0.87090
 Alpha virt. eigenvalues --    0.87713   0.88790   0.89229   0.89649   0.89848
 Alpha virt. eigenvalues --    0.90694   0.91480   0.92139   0.93171   0.93926
 Alpha virt. eigenvalues --    0.94386   0.94863   0.95641   0.96244   0.96644
 Alpha virt. eigenvalues --    0.97884   0.99862   1.00186   1.00441   1.00852
 Alpha virt. eigenvalues --    1.01581   1.02302   1.02856   1.03224   1.03924
 Alpha virt. eigenvalues --    1.04299   1.05506   1.06562   1.07229   1.08552
 Alpha virt. eigenvalues --    1.09945   1.10248   1.11051   1.11741   1.13197
 Alpha virt. eigenvalues --    1.13657   1.14323   1.15915   1.16780   1.17393
 Alpha virt. eigenvalues --    1.18005   1.19489   1.19760   1.20131   1.20510
 Alpha virt. eigenvalues --    1.22026   1.23526   1.24792   1.25236   1.25388
 Alpha virt. eigenvalues --    1.27776   1.28392   1.28610   1.29240   1.30844
 Alpha virt. eigenvalues --    1.32190   1.32514   1.33871   1.36214   1.36432
 Alpha virt. eigenvalues --    1.39225   1.41007   1.41454   1.42374   1.43437
 Alpha virt. eigenvalues --    1.45643   1.47444   1.48925   1.49371   1.50578
 Alpha virt. eigenvalues --    1.51856   1.52380   1.53547   1.54682   1.55213
 Alpha virt. eigenvalues --    1.56189   1.56514   1.56872   1.57321   1.57625
 Alpha virt. eigenvalues --    1.58089   1.58882   1.59339   1.60766   1.61311
 Alpha virt. eigenvalues --    1.61672   1.62543   1.62793   1.63709   1.65539
 Alpha virt. eigenvalues --    1.66352   1.67142   1.67450   1.68867   1.70166
 Alpha virt. eigenvalues --    1.71790   1.72303   1.72891   1.73984   1.74409
 Alpha virt. eigenvalues --    1.75363   1.75644   1.76107   1.76658   1.78168
 Alpha virt. eigenvalues --    1.79307   1.80234   1.80706   1.81280   1.81957
 Alpha virt. eigenvalues --    1.82544   1.83819   1.84314   1.84963   1.86979
 Alpha virt. eigenvalues --    1.87345   1.88143   1.88789   1.89124   1.91973
 Alpha virt. eigenvalues --    1.92776   1.93520   1.94818   1.95665   1.97908
 Alpha virt. eigenvalues --    1.98344   1.99734   2.02856   2.04248   2.04979
 Alpha virt. eigenvalues --    2.06635   2.07316   2.08686   2.09885   2.12153
 Alpha virt. eigenvalues --    2.13006   2.14608   2.14997   2.17343   2.17634
 Alpha virt. eigenvalues --    2.18838   2.20058   2.21172   2.24356   2.25249
 Alpha virt. eigenvalues --    2.28688   2.28715   2.29525   2.30463   2.30962
 Alpha virt. eigenvalues --    2.32184   2.33551   2.34886   2.35315   2.35509
 Alpha virt. eigenvalues --    2.37162   2.37557   2.37954   2.39712   2.40563
 Alpha virt. eigenvalues --    2.42034   2.44757   2.44964   2.45990   2.46549
 Alpha virt. eigenvalues --    2.49058   2.50941   2.51372   2.53819   2.55141
 Alpha virt. eigenvalues --    2.57662   2.58510   2.58811   2.61002   2.65553
 Alpha virt. eigenvalues --    2.67859   2.68336   2.70757   2.71143   2.72300
 Alpha virt. eigenvalues --    2.73220   2.73539   2.73988   2.76208   2.79389
 Alpha virt. eigenvalues --    2.80740   2.83601   2.84226   2.85031   2.87331
 Alpha virt. eigenvalues --    2.87794   2.89487   2.89919   2.90260   2.91081
 Alpha virt. eigenvalues --    2.92271   2.92888   2.93832   2.95407   2.95686
 Alpha virt. eigenvalues --    2.99420   2.99657   3.00793   3.01121   3.01640
 Alpha virt. eigenvalues --    3.02658   3.03246   3.03737   3.04555   3.05035
 Alpha virt. eigenvalues --    3.06251   3.06727   3.08585   3.08833   3.10265
 Alpha virt. eigenvalues --    3.10711   3.11542   3.15601   3.16670   3.17599
 Alpha virt. eigenvalues --    3.18268   3.19140   3.20907   3.21650   3.21869
 Alpha virt. eigenvalues --    3.21948   3.22655   3.24224   3.24699   3.25883
 Alpha virt. eigenvalues --    3.25991   3.27206   3.31272   3.32948   3.33147
 Alpha virt. eigenvalues --    3.33913   3.35932   3.36200   3.36637   3.37333
 Alpha virt. eigenvalues --    3.37839   3.39331   3.39578   3.39862   3.40105
 Alpha virt. eigenvalues --    3.40729   3.41703   3.45360   3.46131   3.46537
 Alpha virt. eigenvalues --    3.47552   3.49114   3.52523   3.53872   3.54819
 Alpha virt. eigenvalues --    3.55115   3.56143   3.58299   3.59107   3.61569
 Alpha virt. eigenvalues --    3.62207   3.64588   3.65685   3.68408   3.71711
 Alpha virt. eigenvalues --    3.76070   3.77273   3.78799   3.90804   3.92793
 Alpha virt. eigenvalues --    3.93077   3.93718   3.93929   3.95254   3.98407
 Alpha virt. eigenvalues --    3.99877   4.03953   4.11935   4.12702   4.13413
 Alpha virt. eigenvalues --    4.18318   4.44942   4.50259   4.50961   4.62894
 Alpha virt. eigenvalues --    4.78652   4.82170   4.93362   4.94481   4.97383
 Alpha virt. eigenvalues --    4.98893   5.00894   5.01765   5.05998   5.08003
 Alpha virt. eigenvalues --    5.09397   5.12576   5.16846   5.17392   5.24341
 Alpha virt. eigenvalues --    5.24378   5.29602   5.30868   5.57485   5.60606
 Alpha virt. eigenvalues --    5.61560   5.69041   5.70987   5.77564   5.78034
 Alpha virt. eigenvalues --    6.08647  23.32932  23.34289  23.52264  23.52532
 Alpha virt. eigenvalues --   23.63168  23.64911  23.80681  23.86611  23.87634
 Alpha virt. eigenvalues --   23.88515  23.92010  23.94397  23.96536  24.06656
 Alpha virt. eigenvalues --   24.07748  24.08473  24.14090  24.17853  24.20741
 Alpha virt. eigenvalues --   24.23950  24.24403  35.45150  49.95052  49.98222
 Alpha virt. eigenvalues --   49.98683  50.03116  50.04996  50.07704  50.08933
 Alpha virt. eigenvalues --   50.09590
  Beta  occ. eigenvalues --  -19.66901 -19.66678 -19.66631 -19.65790 -19.65233
  Beta  occ. eigenvalues --  -19.63364 -19.61570 -19.61057 -15.00770 -10.63864
  Beta  occ. eigenvalues --  -10.63408 -10.63219 -10.62969 -10.62713 -10.61533
  Beta  occ. eigenvalues --  -10.59948 -10.58092 -10.58038 -10.57393 -10.57247
  Beta  occ. eigenvalues --  -10.56854 -10.56487 -10.56484 -10.55515 -10.55382
  Beta  occ. eigenvalues --  -10.55077 -10.54831 -10.54748 -10.54666 -10.54247
  Beta  occ. eigenvalues --   -1.38507  -1.21815  -1.20332  -1.19768  -1.19064
  Beta  occ. eigenvalues --   -1.17435  -1.17280  -1.16768  -1.00431  -0.97283
  Beta  occ. eigenvalues --   -0.92512  -0.91321  -0.91024  -0.87491  -0.85688
  Beta  occ. eigenvalues --   -0.85178  -0.82697  -0.80985  -0.78621  -0.77848
  Beta  occ. eigenvalues --   -0.74865  -0.74351  -0.71179  -0.70629  -0.69530
  Beta  occ. eigenvalues --   -0.66720  -0.66632  -0.65098  -0.63583  -0.62851
  Beta  occ. eigenvalues --   -0.61491  -0.60919  -0.60438  -0.59522  -0.58788
  Beta  occ. eigenvalues --   -0.58574  -0.57789  -0.56428  -0.55467  -0.55302
  Beta  occ. eigenvalues --   -0.54497  -0.53985  -0.52871  -0.52560  -0.52075
  Beta  occ. eigenvalues --   -0.51220  -0.50729  -0.50459  -0.50192  -0.49676
  Beta  occ. eigenvalues --   -0.49172  -0.48526  -0.47631  -0.47366  -0.46539
  Beta  occ. eigenvalues --   -0.45826  -0.45427  -0.45014  -0.44313  -0.44124
[...]
 0.00003290,0.00000576,-0.00003693,-0.00001699,-0.00002816,0.00000488,-
 0.00000582,0.00000168,-0.00000320,-0.00001543,0.00007851,-0.00000099,0
 .00001687,0.00001060,0.00005707,0.00003124,-0.00000256,-0.00000419,-0.
 00000209,0.00000227,-0.00007415,-0.00004294,0.00000719,0.00000612,0.00
 000441,-0.00000806,-0.00001874,-0.00000189,-0.00002581,0.00001394,-0.0
 0000691,0.00000542,-0.00000059,0.00000152,-0.00000025,-0.00000158,0.00
 000019,-0.00000247,-0.00000035,-0.00000009,0.00000205,-0.13119487,-0.1
 7783613,0.03582250,0.01042866,0.01220366,-0.00233963,0.14372833,0.1861
 1444,0.00024368,-0.00057761,-0.00002827,0.00068965,-0.00087011,0.00003
 154,-0.00080170,-0.00083755,-0.00036713,0.00004457,-0.00002884,-0.0000
 6835,0.01657717,0.01027826,-0.00429734,-0.00336929,0.00294471,-0.00377
 316,-0.00017187,0.00005681,0.00008291,0.00003219,0.00001247,-0.0000323
 7,0.00004743,-0.00004639,0.00001470,-0.00002655,0.00004141,-0.00002125
 ,0.00001656,0.00000613,0.00000551,-0.00003336,-0.00005008,0.00004180,0
 .00000059,-0.00001366,-0.00001842,0.00007027,-0.00000928,-0.00001900,-
 0.00000177,-0.00000006,0.00000562,-0.00008901,0.00002330,0.00001772,0.
 00001006,0.00000710,-0.00000210,-0.00001712,0.00002367,-0.00002024,0.0
 0001388,-0.00000172,0.00001931,0.00000213,0.00000048,-0.00000177,-0.00
 000106,0.00000093,-0.00000213,-0.00000197,-0.00000061,0.00000150,0.000
 49273,0.00014766,-0.00068010,-0.00010853,0.00020311,0.00016625,-0.0008
 2184,-0.00065278,-0.00490922,-0.00119592,-0.00043969,0.00001173,-0.024
 49609,-0.02373298,0.00183763,0.00042351,0.00174724,0.00320101,0.000029
 38,-0.00003436,0.00020551,-0.00002002,-0.00001884,0.00000020,0.0000222
 2,-0.00000640,-0.00006123,-0.00000803,-0.00000198,0.00000028,-0.000005
 21,-0.00000359,0.00000809,0.00000304,0.00000540,0.00005336,-0.00000923
 ,0.00000793,0.00003312,0.00000778,-0.00000083,-0.00000551,-0.00000314,
 -0.00000018,0.00000040,-0.00002173,-0.00001158,0.00000632,0.00000011,0
 .00000115,-0.00000263,-0.00000314,0.00000299,-0.00000429,0.00000563,-0
 .00000214,0.00000196,-0.00000017,0.00000055,-0.00000027,-0.00000055,0.
 00000006,-0.00000065,-0.00000036,0.00000002,0.00000061,0.04602424,0.04
 105865,-0.05248866,0.00962173,0.01226974,-0.00299223,-0.04317152,-0.04
 149555,0.06406419,-0.00067992,0.00062168,0.00028151,0.00013462,-0.0000
 8376,-0.00009405,-0.00010528,0.00019820,0.00032201,-0.00031990,-0.0004
 3950,-0.00030278,-0.00048300,0.00023332,0.00005854,0.00029884,0.000083
 41,-0.00023319,-0.00478156,0.00030955,0.00181956,0.00023172,-0.0019536
 2,0.00055052,0.02133934,-0.01489896,0.01562582,0.00031662,-0.00026723,
 0.00004963,-0.00035903,-0.00031839,0.00017047,0.00077425,0.00327207,-0
 .00318665,-0.00068522,-0.00344840,-0.00080860,0.00079821,-0.00058973,-
 0.00009742,-0.00005895,-0.00003170,-0.00001803,-0.00047986,0.00010554,
 0.00026218,0.00015185,-0.00002933,-0.00005490,-0.00569668,-0.00120173,
 0.00286962,0.00055042,-0.00067336,0.00018217,-0.00017999,0.00022481,0.
 00078675,-0.00011475,0.00020445,0.00006370,-0.00027923,0.00019224,0.00
 039471,0.00001207,0.00001012,-0.00001540,-0.00000906,-0.00001370,-0.00
 000182,-0.00000672,0.00006934,0.00001451,0.00002546,-0.00001238,0.0000
 1382,-0.00008352,-0.00012269,-0.00010917,0.00002865,0.00007188,0.00004
 987,0.00000056,0.00000288,0.00000146,-0.00000350,0.00000993,-0.0000072
 1,-0.00000421,0.00001536,0.00000204,-0.00000946,0.00001070,-0.00000731
 ,0.00000574,-0.00001327,-0.00000216,0.00001085,0.00001068,0.00003014,0
 .00000727,-0.00001503,0.00000437,0.00003732,0.00001178,-0.00000767,0.0
 0000252,-0.00000633,-0.00000021,-0.00004033,-0.00000956,0.00000382,0.0
 0001242,-0.00000464,-0.00000265,-0.00003705,0.00000664,-0.00002558,0.0
 0002976,-0.00001803,0.00001041,-0.00000128,0.00000408,-0.00000152,-0.0
 0000114,0.00000033,-0.00000228,-0.00000324,0.00000052,0.00000280,0.000
 00969,-0.00005866,0.00008379,0.00000262,0.00000629,-0.00000769,0.00000
 945,0.00001078,-0.00000680,0.11745582,-0.00108367,0.00029995,0.0015755
 2,0.00022862,-0.00014434,-0.00014106,0.00137783,-0.00070083,-0.0005004
 2,0.00050912,-0.00066336,0.00022537,-0.00126215,0.00070430,0.00043824,
 0.00062672,0.00002698,-0.00054795,-0.00313861,0.00014340,0.00161341,-0
 .00057757,-0.00195735,-0.00045603,-0.00547654,-0.00882855,0.04056853,0
 .00036415,-0.00047741,0.00043970,-0.00034366,-0.00043834,0.00014538,0.
 00275215,-0.01056419,0.00401160,-0.00245213,-0.00411096,0.00123442,-0.
 00029150,0.00094954,-0.00218126,-0.00004663,0.00006884,0.00013139,-0.0
 0145656,-0.00020189,0.00067855,0.00005601,0.00012281,-0.00001697,0.003
 06524,0.00508829,-0.00283572,-0.00067658,0.00038994,0.00109631,-0.0006
 7397,-0.00062807,-0.00068328,-0.00029036,0.00001692,-0.00011699,0.0002
 3419,-0.00013810,-0.00032601,-0.00009177,-0.00007254,0.00006226,-0.000
 03742,0.00000605,0.00000469,0.00013410,0.00007497,-0.00005397,0.000000
 06,0.00001188,0.00000308,-0.00029175,-0.00014655,-0.00005537,0.0001933
 4,0.00000711,-0.00000937,0.00004502,0.00003018,0.00000769,-0.00001766,
 -0.00000467,0.00002849,-0.00000864,-0.00000605,-0.00002273,0.00002224,
 0.00002297,0.00001433,-0.00000171,-0.00000734,0.00000161,0.00001080,0.
 00000255,-0.00003563,-0.00000403,0.00000022,-0.00000274,-0.00004990,-0
 .00003645,0.00000844,0.00000848,-0.00000112,-0.00000151,0.00006285,0.0
 0004778,-0.00001045,-0.00000267,-0.00000907,0.00000854,0.00001903,0.00
 000899,0.00001084,-0.00001054,-0.00000064,-0.00000063,0.00000108,0.000
 00200,0.00000069,-0.00000031,-0.00000094,0.00000207,0.00000100,-0.0000
 0001,-0.00000284,0.00007618,-0.00005919,0.00004915,0.00002375,-0.00001
 055,-0.00000259,0.00002122,0.00001152,0.00002234,-0.00948423,0.2006660
 8,0.00128237,-0.00052671,-0.00021863,-0.00019505,0.00013021,0.00026521
 ,-0.00044919,0.00123849,-0.00132076,-0.00077229,0.00101355,0.00078238,
 0.00127406,-0.00094078,-0.00010783,-0.00063707,-0.00006172,0.00069989,
 0.00625818,0.00177618,-0.00148854,-0.00194040,0.00187608,0.00013543,-0
 .00351315,0.02942030,-0.01512594,0.00033171,0.00011292,-0.00019479,0.0
 0039386,0.00030791,-0.00048228,-0.00088395,0.00428575,-0.00225541,-0.0
 0090447,-0.00141388,-0.00273002,-0.00073579,-0.00062778,0.00055724,0.0
 0011190,-0.00005248,-0.00001138,0.00106400,-0.00012533,-0.00028795,-0.
 00010059,-0.00008799,0.00001501,0.00055346,-0.00258987,0.00101169,0.00
 031435,-0.00097907,-0.00145459,0.00047304,0.00059943,0.00102783,0.0002
 2150,0.00004949,0.00020429,-0.00036973,0.00015625,0.00037520,0.0001586
 6,0.00011191,-0.00012328,0.00002912,-0.00002066,-0.00000535,-0.0002099
 4,-0.00000618,0.00010710,0.00004319,-0.00003280,0.00002230,0.00029393,
 -0.00004972,-0.00023732,-0.00025234,0.00012488,0.00020403,-0.00006012,
 -0.00003669,-0.00000466,0.00002181,0.00001170,-0.00005381,0.00000740,0
 .00002932,0.00002898,-0.00003990,-0.00002351,-0.00001643,0.00000468,0.
 00000424,-0.00000273,-0.00000748,0.00000386,0.00005934,0.00001698,-0.0
 0002281,0.00001189,0.00010052,0.00005597,-0.00002320,-0.00001326,-0.00
 000501,-0.00000021,-0.00012340,-0.00006865,0.00002536,0.00001456,0.000
 00501,-0.00001817,-0.00006237,0.00000531,-0.00001721,0.00004912,-0.000
 01916,0.00001059,-0.00000287,0.00000105,-0.00000450,0.00000146,0.00000
 232,-0.00000364,-0.00000662,-0.00000047,0.00000803,0.00012238,0.000010
 91,-0.00007140,0.00000032,-0.00003250,0.00004193,-0.00004340,-0.000007
 81,-0.00001935,0.12887670,-0.26418702,0.59491117,-0.00262707,0.0004495
 3,0.00136089,0.00020709,-0.00022402,-0.00012695,0.00202465,0.00199303,
 0.00017746,-0.00104979,0.00067663,-0.00099871,0.00023870,0.00047854,-0
 .00011252,0.00009045,0.00003440,-0.00000897,-0.00412697,0.00132702,-0.
 00252833,-0.00124205,-0.00051385,0.00287350,-0.03411997,-0.03266527,-0
 .02245062,0.00047041,-0.00198994,0.00040215,-0.00011090,-0.00022712,0.
 00039231,0.00416825,-0.00593526,0.00012022,-0.00032634,0.00012659,0.00
 122469,0.00129100,0.00124970,0.00047744,-0.00006760,-0.00009229,-0.000
 14536,-0.00073763,-0.00023991,0.00062316,0.00011639,-0.00002629,-0.000
 13007,-0.00159254,0.00201071,-0.00120796,0.00126239,0.00006999,0.00025
 559,0.00037820,0.00017062,0.00029293,-0.00011193,0.00007718,-0.0001874
 1,-0.00011644,0.00000614,0.00024914,0.00014528,0.00010275,-0.00012078,
 0.00001680,-0.00004474,-0.00001375,-0.00016540,0.00010292,0.00009896,0
 .00006404,-0.00004608,0.00003669,0.00006963,-0.00020737,-0.00018726,-0
 .00009828,0.00020880,0.00011307,-0.00004569,-0.00002172,-0.00000010,0.
 00000474,0.00002444,-0.00005439,-0.00000084,0.00004463,0.00002805,-0.0
 0003993,0.00000266,-0.00003470,0.00001593,-0.00001927,-0.00000526,0.00
 001160,0.00002018,0.00011083,0.00002312,-0.00003607,0.00001578,0.00013
 233,0.00005558,-0.00002807,-0.00000505,-0.00001470,0.00000474,-0.00015
 483,-0.00006545,0.00002408,0.00003063,-0.00000173,-0.00001917,-0.00010
 470,0.00001021,-0.00007114,0.00008076,-0.00004543,0.00002648,-0.000003
 31,0.00000986,-0.00000387,-0.00000341,0.00000149,-0.00000766,-0.000008
 73,0.00000140,0.00000878,-0.00012230,-0.00007942,-0.00004076,-0.000019
 78,0.00000645,-0.00000219,-0.00001096,-0.00001250,-0.00000255,-0.00401
 789,0.01618684,-0.07179395,0.43375889,-0.00012470,-0.00111265,-0.00053
 458,0.00012353,-0.00010444,-0.00012756,0.00122230,-0.00273387,-0.00021
 496,0.00023168,0.00014958,-0.00023140,-0.00199946,0.00058607,0.0003623
 8,0.00088389,0.00004595,-0.00068965,-0.00111844,-0.00141215,-0.0018913
 4,0.00127717,0.00089375,-0.00052607,-0.04107744,0.00282584,-0.01313706
 ,-0.00166960,0.00057102,0.00027891,-0.00001546,-0.00017291,-0.00002943
 ,0.00206849,-0.00922303,-0.00038434,-0.00091503,-0.00055006,0.00036258
 ,-0.00036549,-0.00002677,0.00123889,-0.00006352,0.00000670,0.00002804,
 -0.00132905,-0.00015830,0.00083960,0.00008219,0.00009709,-0.00006892,-
 0.00135231,0.00222637,-0.00106568,0.00082344,0.00004539,0.00077152,0.0
 0000782,-0.00001725,0.00003501,-0.00014581,0.00008875,-0.00011621,-0.0
 0004317,-0.00003882,0.00001434,-0.00007052,-0.00006274,0.00004235,-0.0
 0005296,0.00000409,0.00000653,0.00011269,0.00011853,-0.00003638,0.0000
 2667,0.00000529,0.00001774,-0.00033687,-0.00024548,-0.00026035,0.00018
 043,0.00004200,0.00012408,0.00004273,0.00002886,0.00001200,-0.00001507
 ,-0.00000147,0.00001889,-0.00000835,0.00000773,-0.00002653,0.00001625,
 0.00002372,0.00001501,-0.00000052,-0.00000828,0.00000231,0.00001358,0.
 00000627,-0.00003123,0.00000201,-0.00001376,0.00000199,-0.00002737,-0.
 00002843,-0.00000115,0.00000515,-0.00000367,-0.00000112,0.00003697,0.0
 0003830,-0.00000115,0.00000222,-0.00000960,0.00000320,-0.00000040,0.00
 001700,0.00001576,0.00000738,-0.00000901,0.00000296,0.00000029,0.00000
 277,-0.00000163,0.00000123,0.00000017,0.00000154,-0.00000221,-0.000000
 22,-0.00000014,0.00019684,-0.00008948,0.00026441,0.00003635,-0.0000075
 0,-0.00000372,0.00003014,0.00002953,0.00000375,0.02832426,0.03910405,0
 .01502827,0.14471624,0.11884039,0.00057696,-0.00043826,0.00047474,0.00
 004196,-0.00003238,-0.00000520,0.00000750,0.00039993,-0.00011673,-0.00
 062987,0.00065482,-0.00066610,0.00056709,-0.00026507,-0.00036164,-0.00
 028381,-0.00003016,0.00036390,0.00123656,0.00282957,-0.00030912,-0.001
 05302,-0.00047027,0.00090401,-0.01149574,-0.00080987,0.01487716,0.0006
 1805,-0.00030884,-0.00021924,-0.00006366,-0.00012913,-0.00014255,0.001
 43956,-0.00094279,-0.00035549,-0.00014117,-0.00031252,-0.00147524,-0.0
 0108340,0.00042730,-0.00027206,0.00004144,-0.00003934,0.00002481,0.000
 19751,-0.00035805,0.00022545,-0.00007815,-0.00000340,-0.00000505,-0.00
 111917,-0.00032885,0.00169634,0.00080004,-0.00071931,-0.00095613,0.000
 64569,0.00051096,0.00077297,0.00009407,0.00002603,0.00006980,-0.000194
 25,0.00012334,0.00041442,0.00010054,0.00007223,-0.00008054,0.00001730,
 -0.00001281,-0.00000298,-0.00013355,-0.00000845,0.00006398,0.00003118,
 -0.00002226,0.00001617,0.00018449,-0.00002460,-0.00014149,-0.00014908,
 0.00008967,0.00013671,-0.00003941,-0.00002382,-0.00000102,0.00001268,0
 .00000651,-0.00003439,0.00000552,0.00002047,0.00001477,-0.00002395,-0.
 00001390,-0.00001079,0.00000323,0.00000312,-0.00000071,-0.00000557,0.0
 0000170,0.00003587,0.00001119,-0.00001633,0.00000805,0.00006349,0.0000
 3306,-0.00001586,-0.00000891,-0.00000348,0.00000095,-0.00007864,-0.000
 04206,0.00001860,0.00000963,0.00000319,-0.00001329,-0.00004072,0.00000
 616,-0.00000812,0.00003330,-0.00001389,0.00000708,-0.00000152,0.000001
 04,-0.00000320,0.00000118,0.00000169,-0.00000247,-0.00000489,-0.000000
 32,0.00000565,-0.00002627,0.00002351,0.00000810,-0.00001622,0.00000520
 ,0.00000428,-0.00002050,-0.00000618,-0.00001761,-0.08220978,0.00343438
 ,-0.09517787,0.32203382,0.06177968,0.36392709,0.00312459,0.00007591,-0
 .00241298,-0.00042960,0.00027444,0.00031167,-0.00320009,0.00037138,0.0
 0098578,0.00025898,0.00218055,0.00204965,0.00049166,-0.00060661,-0.000
 17863,-0.00043090,-0.00014602,0.00033875,0.01711855,-0.00190989,-0.001
 44151,0.00150530,0.00611988,-0.00483613,-0.12255476,-0.00202928,0.0260
 5129,-0.00187431,0.00364609,-0.00075390,0.00087458,0.00099732,-0.00091
 628,-0.02902409,-0.02578932,0.01299576,-0.00383366,-0.00585791,-0.0078
 4088,-0.00492865,0.00243152,0.00263207,0.00007687,0.00000192,-0.000013
 39,0.00110710,-0.00115260,-0.00000472,-0.00055328,0.00018633,0.0002190
 6,0.00544184,-0.00412297,0.00114878,-0.00343668,0.00057912,-0.00227095
 ,-0.00050497,-0.00000713,-0.00022694,0.00029525,-0.00017418,0.00030457
 ,0.00052032,0.00001335,0.00000502,-0.00012043,-0.00008084,0.00010494,-
 0.00000195,0.00004957,0.00001019,0.00012812,-0.00016662,-0.00008118,-0
 .00007740,0.00004627,-0.00004454,0.00008394,0.00029434,0.00028242,0.00
 001790,-0.00023784,-0.00015573,0.00003083,0.00000856,-0.00000374,0.000
 00102,-0.00002779,0.00004689,0.00000513,-0.00005005,-0.00001878,0.0000
 3680,-0.00001504,0.00003149,-0.00001724,0.00002699,0.00000568,-0.00001
 978,-0.00002570,-0.00010711,-0.00002452,0.00004462,-0.00001686,-0.0001
 3198,-0.00004775,0.00002992,0.00000184,0.00001801,-0.00000390,0.000150
 80,0.00005271,-0.00002290,-0.00003444,0.00000720,0.00001724,0.00011413
 ,-0.00001780,0.00007293,-0.00009020,0.00005343,-0.00003032,0.00000347,
 -0.00001166,0.00000488,0.00000315,-0.00000180,0.00000753,0.00001022,-0
 .00000146,-0.00000921,0.00006607,0.00011979,-0.00001568,-0.00000577,-0
 .00000591,-0.00000313,-0.00000152,-0.00000947,0.00000998,-0.12380527,0
 .00175056,-0.05890200,-0.39357089,-0.12973821,-0.22987275,0.65720388,0
 .00183765,-0.00010955,-0.00227517,-0.00052363,0.00057521,0.00040614,-0
 .00158526,-0.00184647,-0.00055728,0.00204972,-0.00227752,-0.00111522,0
 .00275913,-0.00152570,-0.00103979,-0.00150414,-0.00003634,0.00123855,-
 0.02136089,-0.01624674,0.01130114,0.00414364,-0.00292653,-0.00005204,-
 0.00907478,-0.12451535,0.02475024,0.00132432,0.00110615,-0.00131165,-0
 .00051238,0.00045771,0.00083723,-0.00492853,0.02639322,-0.00879317,-0.
 00470070,-0.00686678,-0.00992882,0.00263165,-0.00281262,0.00262199,-0.
 00006350,-0.00003896,-0.00020831,0.00355129,0.00094820,-0.00208929,-0.
 00002698,-0.00032003,0.00001623,0.00127152,-0.00837147,0.00348382,-0.0
 0053107,-0.00061211,-0.00280106,0.00040164,0.00061774,0.00067327,0.000
 39873,-0.00014690,0.00032322,-0.00014128,0.00022411,0.00031863,0.00012
 290,0.00010656,-0.00007548,0.00008615,-0.00000515,-0.00000861,-0.00020
 741,-0.00020115,0.00006994,-0.00003506,-0.00001129,-0.00002520,0.00060
 610,0.00040793,0.00035378,-0.00034531,-0.00007858,-0.00013285,-0.00007
 399,-0.00004829,-0.00002190,0.00003062,0.00000103,-0.00003615,0.000013
 86,-0.00000799,0.00004327,-0.00003168,-0.00004437,-0.00001585,-0.00000
 151,0.00001826,-0.00000358,-0.00002441,-0.00001192,0.00003498,-0.00000
 066,0.00001514,-0.00000088,0.00005266,0.00005310,-0.00000238,-0.000012
 21,0.00000695,-0.00000182,-0.00007079,-0.00006847,0.00000879,-0.000002
 80,0.00001554,-0.00000883,-0.00000474,-0.00002031,-0.00000690,-0.00000
 341,0.00001405,-0.00000585,-0.00000148,-0.00000597,0.00000048,0.000000
 52,0.00000047,-0.00000166,0.00000121,-0.00000045,0.00000282,-0.0003040
 4,0.00029010,-0.00020561,-0.00006541,0.00004002,-0.00000047,-0.0000565
 9,-0.00003693,-0.00002904,-0.00031662,-0.21859883,0.21555731,-0.127656
 12,-0.14977529,-0.06507723,0.15288403,0.50627658,-0.00082965,-0.000859
 66,-0.00396133,0.00021032,-0.00005456,-0.00026077,0.00068089,-0.003411
 34,0.00231890,0.00321376,-0.00424359,-0.00070002,-0.00201383,0.0013572
 8,0.00027479,0.00089513,0.00003405,-0.00110933,0.00130859,0.01012421,-
 0.00965032,-0.00092551,0.00300658,0.00452318,0.01777839,0.00323014,-0.
 07660223,-0.00027839,-0.00125126,-0.00008052,0.00053126,0.00042562,0.0
 0079571,0.01638523,0.00119885,-0.00025675,-0.00449231,-0.00380297,0.00
 002800,0.00452657,-0.00023721,0.00490447,-0.00022119,-0.00005621,-0.00
 037184,-0.00091260,0.00105786,-0.00016707,0.00022866,-0.00004567,-0.00
 021335,0.00160151,0.00429243,-0.00959721,-0.00253784,0.00228332,0.0023
 2553,-0.00170967,-0.00100924,-0.00184344,-0.00045802,-0.00005456,-0.00
 048365,0.00047305,-0.00021449,-0.00089823,-0.00024751,-0.00017021,0.00
 019089,-0.00004351,0.00003362,0.00001016,0.00032031,0.00000771,-0.0001
 6137,-0.00006635,0.00005108,-0.00003461,-0.00042618,0.00007710,0.00034
 484,0.00037166,-0.00020137,-0.00031364,0.00009206,0.00005399,0.0000086
 7,-0.00003336,-0.00001750,0.00008052,-0.00001194,-0.00004544,-0.000046
 58,0.00006067,0.00003608,0.00002390,-0.00000696,-0.00000591,0.00000569
 ,0.00001143,-0.00000548,-0.00008775,-0.00002570,0.00003507,-0.00001848
 ,-0.00015701,-0.00008676,0.00003573,0.00002047,0.00000684,0.00000170,0
 .00019148,0.00010675,-0.00004067,-0.00002252,-0.00000809,0.00002919,0.
 00009868,-0.00000946,0.00002527,-0.00007923,0.00003010,-0.00001638,0.0
 0000503,-0.00000146,0.00000740,-0.00000234,-0.00000368,0.00000576,0.00
 001091,0.00000086,-0.00001344,-0.00013034,-0.00000501,0.00014355,0.000
 01360,0.00005469,-0.00005436,0.00008102,0.00002423,0.00002202,-0.06532
 804,0.21637355,-0.47904766,-0.23066829,-0.06189113,-0.28367602,0.26251
 764,-0.16620974,0.85360119\\-0.00000118,0.00000080,0.00000234,0.000000
 81,0.00000402,0.00000521,0.00000070,-0.00000023,0.00000232,-0.00000034
 ,-0.00000132,0.00000154,-0.00000008,-0.00000264,0.00000236,-0.00000301
 ,-0.00000724,-0.00000085,-0.00000047,0.00000188,0.00000149,-0.00000066
 ,0.00000350,0.00000296,0.00000099,0.00000283,0.00000075,-0.00000059,0.
 00000494,0.00000266,-0.00000079,0.00000409,0.00000490,0.00000193,0.000
 00278,-0.00000170,-0.00000078,-0.00000069,0.00000127,0.00000046,0.0000
 0460,0.00000102,0.00000061,0.00000583,0.00000364,0.00000014,0.00000626
 ,0.00000139,0.00000017,0.00000645,0.00000128,-0.00000161,0.00000234,-0
 .00000166,0.00000168,0.00000088,-0.00000298,0.00000037,-0.00000136,-0.
 00000212,0.00000191,0.00000084,-0.00000479,0.00000040,0.00000202,-0.00
 000122,0.00000015,-0.00000216,0.00000097,-0.00000116,-0.00000187,0.000
 00187,-0.00000117,0.00000157,0.00000201,-0.00000093,0.00000317,0.00000
 065,-0.00000192,-0.00000051,0.00000431,0.00000098,0.00000005,0.0000042
 2,0.00000018,-0.00000318,0.00000010,-0.00000018,-0.00000466,-0.0000016
 9,-0.00000070,0.00000097,-0.00000175,0.00000067,-0.00000603,-0.0000022
 6,-0.00000061,-0.00000649,-0.00000004,0.00000147,-0.00000110,-0.000002
 96,0.00000043,0.00000092,-0.00000087,0.00000051,-0.00000382,-0.0000037
 8,0.00000023,-0.00000622,-0.00000260,-0.00000051,-0.00000564,-0.000004
 83,0.00000067,-0.00000572,-0.00000518,-0.00000020,-0.00000019,-0.00000
 213,0.00000174,0.00000109,-0.00000344,0.00000028,0.00000090,-0.0000007
 2,0.00000134,0.00000186,-0.00000416,0.00000069,-0.00000140,-0.00000330
 ,-0.00000217,0.00000079,0.00000446,-0.00000027,-0.00000206,0.00000610,
 -0.00000243,-0.00000130,0.00000319,0.00000028,-0.00000096,-0.00000310,
 0.00000127,0.00000072,-0.00000336,0.00000072,0.00000072,-0.00000154\\\
 @


  THE LARGE PRINT GIVETH,
  AND THE SMALL PRINT TAKETH AWAY.

                     -- TOM WAITS
 Job cpu time:       0 days  3 hours 54 minutes  3.1 seconds.
 Elapsed time:       0 days  3 hours 54 minutes 22.7 seconds.
 File lengths (MBytes):  RWF=   3720 Int=      0 D2E=      0 Chk=     62 Scr=      1
 Normal termination of Gaussian 16 at Sat Nov  2 07:26:38 2024.
