
                                 *****************
                                 * O   R   C   A *
                                 *****************

                                            #,                                       
                                            ###                                      
                                            ####                                     
                                            #####                                    
                                            ######                                   
                                           ########,                                 
                                     ,,################,,,,,                         
                               ,,#################################,,                 
                          ,,##########################################,,             
                       ,#########################################, ''#####,          
                    ,#############################################,,   '####,        
                  ,##################################################,,,,####,       
                ,###########''''           ''''###############################       
              ,#####''   ,,,,##########,,,,          '''####'''          '####       
            ,##' ,,,,###########################,,,                        '##       
           ' ,,###''''                  '''############,,,                           
         ,,##''                                '''############,,,,        ,,,,,,###''
      ,#''                                            '''#######################'''  
     '                                                          ''''####''''         
             ,#######,   #######,   ,#######,      ##                                
            ,#'     '#,  ##    ##  ,#'     '#,    #''#        ######   ,####,        
            ##       ##  ##   ,#'  ##            #'  '#       #        #'  '#        
            ##       ##  #######   ##           ,######,      #####,   #    #        
            '#,     ,#'  ##    ##  '#,     ,#' ,#      #,         ##   #,  ,#        
             '#######'   ##     ##  '#######'  #'      '#     #####' # '####'        



                  #######################################################
                  #                        -***-                        #
                  #          Department of theory and spectroscopy      #
                  #    Directorship and core code : Frank Neese         #
                  #        Max Planck Institute fuer Kohlenforschung    #
                  #                Kaiser Wilhelm Platz 1               #
                  #                 D-45470 Muelheim/Ruhr               #
                  #                      Germany                        #
                  #                                                     #
                  #                  All rights reserved                #
                  #                        -***-                        #
                  #######################################################


                         Program Version 5.0.4 -  RELEASE  -


 With contributions from (in alphabetic order):
   Daniel Aravena         : Magnetic Suceptibility
   Michael Atanasov       : Ab Initio Ligand Field Theory (pilot matlab implementation)
   Alexander A. Auer      : GIAO ZORA, VPT2 properties, NMR spectrum
   Ute Becker             : Parallelization
   Giovanni Bistoni       : ED, misc. LED, open-shell LED, HFLD
   Martin Brehm           : Molecular dynamics
   Dmytro Bykov           : SCF Hessian
   Vijay G. Chilkuri      : MRCI spin determinant printing, contributions to CSF-ICE
   Dipayan Datta          : RHF DLPNO-CCSD density
   Achintya Kumar Dutta   : EOM-CC, STEOM-CC
   Dmitry Ganyushin       : Spin-Orbit,Spin-Spin,Magnetic field MRCI
   Miquel Garcia          : C-PCM and meta-GGA Hessian, CC/C-PCM, Gaussian charge scheme
   Yang Guo               : DLPNO-NEVPT2, F12-NEVPT2, CIM, IAO-localization
   Andreas Hansen         : Spin unrestricted coupled pair/coupled cluster methods
   Benjamin Helmich-Paris : MC-RPA, TRAH-SCF, COSX integrals
   Lee Huntington         : MR-EOM, pCC
   Robert Izsak           : Overlap fitted RIJCOSX, COSX-SCS-MP3, EOM
   Marcus Kettner         : VPT2
   Christian Kollmar      : KDIIS, OOCD, Brueckner-CCSD(T), CCSD density, CASPT2, CASPT2-K
   Simone Kossmann        : Meta GGA functionals, TD-DFT gradient, OOMP2, MP2 Hessian
   Martin Krupicka        : Initial AUTO-CI
   Lucas Lang             : DCDCAS
   Marvin Lechner         : AUTO-CI (C++ implementation), FIC-MRCC
   Dagmar Lenk            : GEPOL surface, SMD
   Dimitrios Liakos       : Extrapolation schemes; Compound Job, initial MDCI parallelization
   Dimitrios Manganas     : Further ROCIS development; embedding schemes
   Dimitrios Pantazis     : SARC Basis sets
   Anastasios Papadopoulos: AUTO-CI, single reference methods and gradients
   Taras Petrenko         : DFT Hessian,TD-DFT gradient, ASA, ECA, R-Raman, ABS, FL, XAS/XES, NRVS
   Peter Pinski           : DLPNO-MP2, DLPNO-MP2 Gradient
   Christoph Reimann      : Effective Core Potentials
   Marius Retegan         : Local ZFS, SOC
   Christoph Riplinger    : Optimizer, TS searches, QM/MM, DLPNO-CCSD(T), (RO)-DLPNO pert. Triples
   Tobias Risthaus        : Range-separated hybrids, TD-DFT gradient, RPA, STAB
   Michael Roemelt        : Original ROCIS implementation
   Masaaki Saitow         : Open-shell DLPNO-CCSD energy and density
   Barbara Sandhoefer     : DKH picture change effects
   Avijit Sen             : IP-ROCIS
   Kantharuban Sivalingam : CASSCF convergence, NEVPT2, FIC-MRCI
   Bernardo de Souza      : ESD, SOC TD-DFT
   Georgi Stoychev        : AutoAux, RI-MP2 NMR, DLPNO-MP2 response
   Willem Van den Heuvel  : Paramagnetic NMR
   Boris Wezisla          : Elementary symmetry handling
   Frank Wennmohs         : Technical directorship


 We gratefully acknowledge several colleagues who have allowed us to
 interface, adapt or use parts of their codes:
   Stefan Grimme, W. Hujo, H. Kruse, P. Pracht,  : VdW corrections, initial TS optimization,
                  C. Bannwarth, S. Ehlert          DFT functionals, gCP, sTDA/sTD-DF
   Ed Valeev, F. Pavosevic, A. Kumar             : LibInt (2-el integral package), F12 methods
   Garnet Chan, S. Sharma, J. Yang, R. Olivares  : DMRG
   Ulf Ekstrom                                   : XCFun DFT Library
   Mihaly Kallay                                 : mrcc  (arbitrary order and MRCC methods)
   Jiri Pittner, Ondrej Demel                    : Mk-CCSD
   Frank Weinhold                                : gennbo (NPA and NBO analysis)
   Christopher J. Cramer and Donald G. Truhlar   : smd solvation model
   Lars Goerigk                                  : TD-DFT with DH, B97 family of functionals
   V. Asgeirsson, H. Jonsson                     : NEB implementation
   FAccTs GmbH                                   : IRC, NEB, NEB-TS, DLPNO-Multilevel, CI-OPT
                                                   MM, QMMM, 2- and 3-layer-ONIOM, Crystal-QMMM,
                                                   LR-CPCM, SF, NACMEs, symmetry and pop. for TD-DFT,
                                                   nearIR, NL-DFT gradient (VV10), updates on ESD,
                                                   ML-optimized integration grids
   S Lehtola, MJT Oliveira, MAL Marques          : LibXC Library
   Liviu Ungur et al                             : ANISO software


 Your calculation uses the libint2 library for the computation of 2-el integrals
 For citations please refer to: http://libint.valeyev.net

 Your ORCA version has been built with support for libXC version: 5.1.0
 For citations please refer to: https://tddft.org/programs/libxc/

 This ORCA versions uses:
   CBLAS   interface :  Fast vector & matrix operations
   LAPACKE interface :  Fast linear algebra routines
   SCALAPACK package :  Parallel linear algebra routines
   Shared memory     :  Shared parallel matrices
   BLAS/LAPACK       :  OpenBLAS 0.3.15  USE64BITINT DYNAMIC_ARCH NO_AFFINITY Sandybridge SINGLE_THREADED
        Core in use  :  Sandybridge
   Copyright (c) 2011-2014, The OpenBLAS Project


Your calculation utilizes the DFT-NL dispersion correction.
Cite in your paper:
Vydrov, O. A.; Van Voorhis, T. J. Chem. Phys. 2010, 133, 244103
Hujo, W.; Grimme, S. J. Chem. Theory Comput. 2011, 7, 3866 
   

================================================================================

----- Orbital basis set information -----
Your calculation utilizes the basis: 6-311G(d)
   H, Li - Ne  : R. Krishnan, J. S. Binkley, R. Seeger and J. A. Pople, J. Chem. Phys. 72, 650 (1980).
   Na - Ar     : A. D. McLean and G. S. Chandler J. Chem. Phys. 72, 5639, (1980).
   K  - Ca     : J.-P. Blaudeau, M. P. McGrath, L. A. Curtiss and L. Radom, J. Chem. Phys. 107, 5016 (1997).
   Ga - Kr     : L. A. Curtiss, M. P. McGrath, J.-P. Blandeau, N. E. Davis, R. C. Binning and L. Radom, J. Chem. Phys. 103, 6104 (1995).
   Pol./Diff.
   H, Li - Cl  : T. Clark, J. Chandrasekhar and P. v. R. Schleyer, J. Comp. Chem. 4, 294 (1983).
   H - Ne      : M. J. Frisch, J. A. Pople and J. S. Binkley, J. Chem. Phys. 80, 3265 (1984).

----- AuxJ basis set information -----
Your calculation utilizes the auxiliary basis: def2/J
   F. Weigend, Phys. Chem. Chem. Phys. 8, 1057 (2006).

================================================================================
                                        WARNINGS
                       Please study these warnings very carefully!
================================================================================

Using LibXC functional ID 531 : wB97M-V exchange-correlation functional
[ 1]  N. Mardirossian and M. Head-Gordon, J. Chem. Phys. 144, 214110 (2016)
Using LibXC functional ID 531 : wB97M-V exchange-correlation functional
[ 1]  N. Mardirossian and M. Head-Gordon, J. Chem. Phys. 144, 214110 (2016)

WARNING: B97M-V or wB97M-V functional requested.
  ===> : libXC variant has now been activated.
         Any manually given DFX/HFX/RangeSep scaling parameters are IGNORED!

Your calculation utilizes LibXC
 by S Lehtola, C Steigemann, MJT Oliveira & MAL Marques
Please cite in your paper:
 S Lehtola, C Steigemann, MJT Oliveira & MAL Marques, SoftwareX, 7, (2018), 1.
   


WARNING: your system is open-shell and RHF/RKS was chosen
  ===> : WILL SWITCH to UHF/UKS


WARNING: Geometry Optimization
  ===> : Switching off AutoStart
         For restart on a previous wavefunction, please use MOREAD

WARNING: Analytic gradients for DFT-NL dispersion can only be done using the self-consistent method,
  ===>   Switching to SCNL

WARNING: Self-consistent DFT-NL dispersion not compatible with AutoTRAH.
  ===>   Switching AutoTRAH off


INFO   : the flag for use of the SHARK integral package has been found!

================================================================================
                                       INPUT FILE
================================================================================
NAME = CURCUMIN-OPT-FREQ-TS2-WB97M-V-6-311G-D-298.inp
|  1> ! Opt NumFreq wb97M-V 6-311G(d) CPCM RIJDX
|  2> %maxcore 2000
|  3> %cpcm
|  4> epsilon 7 # Dielectric constant
|  5> refrac 1.85341 # Refractive index
|  6> end
|  7> 
|  8> * xyz 0 2
|  9> C     -2.706063    0.255079   -0.199328
| 10> H     -2.413647    0.953447   -0.979154
| 11> C     -1.832525   -0.022744    0.792593
| 12> H     -2.091485   -0.724356    1.580170
| 13> C     -0.467715    0.508197    0.941029
| 14> O      0.251613    0.097224    1.860741
| 15> C     -4.044642   -0.291176   -0.370933
| 16> C     -4.807618    0.126191   -1.473548
| 17> C     -4.619859   -1.229182    0.510014
| 18> C     -6.091430   -0.359650   -1.682865
| 19> H     -4.390562    0.845057   -2.171226
| 20> C     -5.898547   -1.721223    0.315258
| 21> H     -4.080067   -1.586109    1.379766
| 22> C     -6.652908   -1.277794   -0.794985
| 23> H     -6.672929   -0.018250   -2.534810
| 24> O     -7.910772   -1.764431   -0.936055
| 25> H     -8.323230   -1.382950   -1.724018
| 26> O     -6.432848   -2.578340    1.239615
| 27> C     -6.646625   -3.926444    0.791993
| 28> H     -5.706524   -4.373609    0.452807
| 29> H     -7.015406   -4.475895    1.657622
| 30> H     -7.386988   -3.970264   -0.008702
| 31> C      2.695606    0.060859   -0.022810
| 32> H      1.786470   -0.526532   -0.090764
| 33> C      2.586543    1.408258    0.050277
| 34> H      3.464509    2.045912    0.085717
| 35> C      1.342031    2.150652   -0.021029
| 36> O      1.384803    3.391378   -0.160254
| 37> C      3.915058   -0.724381   -0.036111
| 38> C      3.812047   -2.122765   -0.133519
| 39> C      5.206478   -0.161500    0.035858
| 40> C      4.943503   -2.925505   -0.146594
| 41> H      2.831461   -2.583220   -0.191924
| 42> C      6.343265   -0.948854    0.025795
| 43> H      5.348594    0.909989    0.115219
| 44> C      6.214632   -2.354729   -0.061623
| 45> H      4.846963   -4.005805   -0.210855
| 46> O      7.351444   -3.090582   -0.044242
| 47> H      7.134844   -4.032121   -0.103107
| 48> O      7.569150   -0.356935    0.167124
| 49> C      8.420854   -0.399991   -0.989296
| 50> H      7.933525    0.078878   -1.844700
| 51> H      9.316487    0.160809   -0.724072
| 52> H      8.696302   -1.424360   -1.246130
| 53> C      0.002617    1.536218    0.012995
| 54> H     -0.727169    2.051671   -0.600355
| 55> H      0.074762    4.430422   -0.390325
| 56> O     -0.678967    5.055408   -0.568489
| 57> O     -2.105655    6.090339    0.628115
| 58> N     -1.192038    5.342529    0.685339
| 59> *
| 60> 
| 61>                          ****END OF INPUT****
================================================================================

                       *****************************
                       * Geometry Optimization Run *
                       *****************************

Geometry optimization settings:
Update method            Update   .... BFGS
Choice of coordinates    CoordSys .... Z-matrix Internals
Initial Hessian          InHess   .... Almoef's Model

Convergence Tolerances:
Energy Change            TolE     ....  5.0000e-06 Eh
Max. Gradient            TolMAXG  ....  3.0000e-04 Eh/bohr
RMS Gradient             TolRMSG  ....  1.0000e-04 Eh/bohr
Max. Displacement        TolMAXD  ....  4.0000e-03 bohr
RMS Displacement         TolRMSD  ....  2.0000e-03 bohr
Strict Convergence                ....  False
------------------------------------------------------------------------------
                        ORCA OPTIMIZATION COORDINATE SETUP
------------------------------------------------------------------------------

The optimization will be done in new redundant internal coordinates
Making redundant internal coordinates   ...  (new redundants) done
Evaluating the initial hessian          ...  (Almloef) done
Evaluating the coordinates              ...  done
Calculating the B-matrix                .... done
Calculating the G-matrix                .... done
Diagonalizing the G-matrix              .... done
Small eigenvalue found = 4.985e-04
Small eigenvalue found = 1.504e-03
Small eigenvalue found = 3.239e-03
Small eigenvalue found = 4.568e-03
Small eigenvalue found = 6.409e-03
Small eigenvalue found = 7.129e-03
Small eigenvalue found = 1.042e-02
Small eigenvalue found = 1.658e-02
Small eigenvalue found = 2.021e-02
Small eigenvalue found = 2.764e-02
Small eigenvalue found = 2.785e-02
The first mode is                       ....   83
The number of degrees of freedom        ....  144

    -----------------------------------------------------------------
                    Redundant Internal Coordinates


    -----------------------------------------------------------------
         Definition                    Initial Value    Approx d2E/dq
    -----------------------------------------------------------------
      1. B(H   1,C   0)                  1.0869         0.364223   
      2. B(C   2,C   0)                  1.3506         0.722062   
      3. B(H   3,C   2)                  1.0861         0.365306   
      4. B(C   4,C   2)                  1.4720         0.462372   
      5. B(O   5,C   4)                  1.2378         0.978739   
      6. B(C   6,C   0)                  1.4559         0.490460   
      7. B(C   7,C   6)                  1.4043         0.592799   
      8. B(C   8,C   6)                  1.4095         0.581523   
      9. B(C   9,C   7)                  1.3885         0.628169   
     10. B(H  10,C   7)                  1.0851         0.366630   
     11. B(C  11,C   8)                  1.3839         0.639042   
     12. B(H  12,C   8)                  1.0841         0.368010   
     13. B(C  13,C  11)                  1.4136         0.572862   
     14. B(C  13,C   9)                  1.3952         0.612979   
     15. B(H  14,C   9)                  1.0865         0.364746   
     16. B(O  15,C  13)                  1.3561         0.633872   
     17. B(H  16,O  15)                  0.9677         0.505366   
     18. B(O  17,C  11)                  1.3691         0.604151   
     19. B(C  18,O  17)                  1.4365         0.471773   
     20. B(H  19,C  18)                  1.0949         0.353683   
     21. B(H  20,C  18)                  1.0896         0.360641   
     22. B(H  21,C  18)                  1.0914         0.358243   
     23. B(H  23,C  22)                  1.0845         0.367429   
     24. B(C  24,C  22)                  1.3538         0.713715   
     25. B(H  25,C  24)                  1.0857         0.365872   
     26. B(C  26,C  24)                  1.4509         0.499590   
     27. B(O  27,C  26)                  1.2492         0.938513   
     28. B(C  28,C  22)                  1.4505         0.500350   
     29. B(C  29,C  28)                  1.4056         0.590100   
     30. B(C  30,C  28)                  1.4106         0.579268   
     31. B(C  31,C  29)                  1.3874         0.630896   
     32. B(H  32,C  29)                  1.0849         0.366928   
     33. B(C  33,C  30)                  1.3829         0.641393   
     34. B(H  34,C  30)                  1.0838         0.368420   
     35. B(C  35,C  33)                  1.4145         0.571121   
     36. B(C  35,C  31)                  1.3960         0.611209   
     37. B(H  36,C  31)                  1.0865         0.364751   
     38. B(O  37,C  35)                  1.3543         0.638022   
     39. B(H  38,O  37)                  0.9679         0.505039   
     40. B(O  39,C  33)                  1.3686         0.605309   
     41. B(C  40,O  39)                  1.4369         0.471104   
     42. B(H  41,C  40)                  1.0948         0.353845   
     43. B(H  42,C  40)                  1.0895         0.360769   
     44. B(H  43,C  40)                  1.0914         0.358245   
     45. B(C  44,C  26)                  1.4740         0.458881   
     46. B(C  44,C   4)                  1.4626         0.478478   
     47. B(H  45,C  44)                  1.0837         0.368486   
     48. B(H  46,O  27)                  1.6878         0.035873   
     49. B(O  47,H  46)                  0.9952         0.456857   
     50. B(N  49,O  48)                  1.1820         1.076015   
     51. B(N  49,O  47)                  1.3848         0.510804   
     52. A(H   1,C   0,C   6)          113.8202         0.339920   
     53. A(C   2,C   0,C   6)          127.1597         0.427722   
     54. A(H   1,C   0,C   2)          119.0187         0.362875   
     55. A(C   0,C   2,H   3)          120.7461         0.363059   
     56. A(C   0,C   2,C   4)          126.8382         0.423231   
     57. A(H   3,C   2,C   4)          112.3935         0.336759   
     58. A(O   5,C   4,C  44)          121.1932         0.446867   
     59. A(C   2,C   4,C  44)          119.1895         0.393507   
     60. A(C   2,C   4,O   5)          119.6034         0.444104   
     61. A(C   0,C   6,C   8)          123.4510         0.411527   
     62. A(C   0,C   6,C   7)          118.7223         0.412932   
     63. A(C   7,C   6,C   8)          117.8256         0.425662   
     64. A(C   9,C   7,H  10)          119.3560         0.354771   
     65. A(C   6,C   7,H  10)          119.5315         0.351308   
     66. A(C   6,C   7,C   9)          121.1115         0.431593   
     67. A(C   6,C   8,H  12)          121.1532         0.350392   
     68. A(C   6,C   8,C  11)          121.7173         0.431435   
     69. A(C  11,C   8,H  12)          117.1245         0.356032   
     70. A(C   7,C   9,C  13)          120.4249         0.434199   
     71. A(C  13,C   9,H  14)          119.3662         0.352994   
     72. A(C   7,C   9,H  14)          120.2049         0.354461   
     73. A(C   8,C  11,C  13)          119.4773         0.430274   
     74. A(C  13,C  11,O  17)          121.2227         0.423192   
     75. A(C   8,C  11,O  17)          119.2195         0.431564   
     76. A(C  11,C  13,O  15)          117.6536         0.426844   
     77. A(C   9,C  13,O  15)          122.9047         0.432059   
     78. A(C   9,C  13,C  11)          119.4379         0.427073   
     79. A(C  13,O  15,H  16)          109.7904         0.369713   
     80. A(C  11,O  17,C  18)          115.7985         0.406193   
     81. A(O  17,C  18,H  21)          111.5457         0.334754   
     82. A(H  19,C  18,H  20)          109.3156         0.290088   
     83. A(O  17,C  18,H  20)          106.0252         0.335125   
     84. A(O  17,C  18,H  19)          110.6120         0.334043   
     85. A(H  20,C  18,H  21)          109.4508         0.290672   
     86. A(H  19,C  18,H  21)          109.8027         0.289785   
     87. A(C  24,C  22,C  28)          127.3762         0.428362   
     88. A(H  23,C  22,C  28)          114.2668         0.341557   
     89. A(H  23,C  22,C  24)          118.3536         0.362698   
     90. A(H  25,C  24,C  26)          113.2494         0.341227   
     91. A(C  22,C  24,C  26)          125.1504         0.428245   
     92. A(C  22,C  24,H  25)          121.4115         0.362435   
     93. A(C  24,C  26,O  27)          118.9670         0.446965   
     94. A(O  27,C  26,C  44)          116.5953         0.440144   
     95. A(C  24,C  26,C  44)          124.4030         0.395970   
     96. A(C  26,O  27,H  46)          126.8720         0.257583   
     97. A(C  29,C  28,C  30)          117.8809         0.425019   
     98. A(C  22,C  28,C  30)          123.5873         0.412703   
     99. A(C  22,C  28,C  29)          118.5308         0.414063   
    100. A(C  31,C  29,H  32)          119.4100         0.355081   
    101. A(C  28,C  29,H  32)          119.4876         0.351085   
    102. A(C  28,C  29,C  31)          121.1007         0.431575   
    103. A(C  33,C  30,H  34)          117.1064         0.356321   
    104. A(C  28,C  30,H  34)          121.2182         0.350228   
    105. A(C  28,C  30,C  33)          121.6704         0.431418   
    106. A(C  35,C  31,H  36)          119.4090         0.352822   
    107. A(C  29,C  31,H  36)          120.2251         0.354722   
    108. A(C  29,C  31,C  35)          120.3616         0.434311   
    109. A(C  35,C  33,O  39)          121.1787         0.423106   
    110. A(C  30,C  33,O  39)          119.2959         0.431998   
    111. A(C  30,C  33,C  35)          119.4460         0.430322   
    112. A(C  33,C  35,O  37)          117.5758         0.427110   
    113. A(C  31,C  35,O  37)          122.8852         0.432342   
    114. A(C  31,C  35,C  33)          119.5354         0.426619   
    115. A(C  35,O  37,H  38)          109.8716         0.370087   
    116. A(C  33,O  39,C  40)          115.7767         0.406228   
    117. A(H  41,C  40,H  42)          109.3291         0.290125   
    118. A(O  39,C  40,H  42)          106.0176         0.335066   
    119. A(O  39,C  40,H  41)          110.6028         0.333989   
    120. A(H  42,C  40,H  43)          109.4469         0.290688   
    121. A(H  41,C  40,H  43)          109.8172         0.289806   
    122. A(O  39,C  40,H  43)          111.5380         0.334675   
    123. A(C  26,C  44,H  45)          113.6146         0.336820   
    124. A(C   4,C  44,H  45)          118.4803         0.339177   
    125. A(C   4,C  44,C  26)          126.8577         0.392985   
    126. L(O  27,H  46,O  47,N  49, 2) 178.4689         0.212454   
    127. L(O  27,H  46,O  47,N  49, 1) 182.5563         0.212454   
    128. A(H  46,O  47,N  49)          104.4012         0.348098   
    129. A(O  47,N  49,O  48)          111.9440         0.450870   
    130. D(C   4,C   2,C   0,H   1)     -1.1918         0.036920   
    131. D(H   3,C   2,C   0,H   1)   -179.3439         0.036920   
    132. D(C   4,C   2,C   0,C   6)    178.3495         0.036920   
    133. D(H   3,C   2,C   0,C   6)      0.1973         0.036920   
    134. D(C  44,C   4,C   2,C   0)      5.9050         0.014562   
    135. D(O   5,C   4,C   2,C   0)   -175.4351         0.014562   
    136. D(O   5,C   4,C   2,H   3)      2.8473         0.014562   
    137. D(C  44,C   4,C   2,H   3)   -175.8126         0.014562   
    138. D(C   8,C   6,C   0,C   2)     -0.5522         0.016380   
    139. D(C   8,C   6,C   0,H   1)    179.0093         0.016380   
    140. D(C   7,C   6,C   0,C   2)    179.8456         0.016380   
    141. D(C   7,C   6,C   0,H   1)     -0.5928         0.016380   
    142. D(H  10,C   7,C   6,C   0)     -0.1779         0.024195   
    143. D(C   9,C   7,C   6,C   0)   -179.7967         0.024195   
    144. D(C   9,C   7,C   6,C   8)      0.5786         0.024195   
    145. D(H  10,C   7,C   6,C   8)   -179.8026         0.024195   
    146. D(H  12,C   8,C   6,C   7)   -179.8177         0.023239   
    147. D(H  12,C   8,C   6,C   0)      0.5768         0.023239   
    148. D(C  11,C   8,C   6,C   0)    179.7434         0.023239   
    149. D(C  11,C   8,C   6,C   7)     -0.6511         0.023239   
    150. D(H  14,C   9,C   7,H  10)     -0.3052         0.027349   
    151. D(H  14,C   9,C   7,C   6)    179.3143         0.027349   
    152. D(C  13,C   9,C   7,H  10)   -179.5723         0.027349   
    153. D(C  13,C   9,C   7,C   6)      0.0472         0.027349   
    154. D(O  17,C  11,C   8,H  12)      2.5165         0.028368   
    155. D(O  17,C  11,C   8,C   6)   -176.6822         0.028368   
    156. D(C  13,C  11,C   8,H  12)    179.2951         0.028368   
    157. D(C  13,C  11,C   8,C   6)      0.0964         0.028368   
    158. D(O  15,C  13,C   9,C   7)    178.6549         0.025965   
    159. D(C  11,C  13,C   9,H  14)   -179.8901         0.025965   
    160. D(C  11,C  13,C   9,C   7)     -0.6169         0.025965   
    161. D(O  15,C  13,C  11,O  17)     -2.0533         0.022521   
    162. D(O  15,C  13,C  11,C   8)   -178.7655         0.022521   
    163. D(C   9,C  13,C  11,O  17)    177.2565         0.022521   
    164. D(C   9,C  13,C  11,C   8)      0.5442         0.022521   
    165. D(O  15,C  13,C   9,H  14)     -0.6184         0.025965   
    166. D(H  16,O  15,C  13,C  11)    179.5540         0.029576   
    167. D(H  16,O  15,C  13,C   9)      0.2700         0.029576   
    168. D(C  18,O  17,C  11,C  13)     70.6296         0.026682   
    169. D(C  18,O  17,C  11,C   8)   -112.6498         0.026682   
    170. D(H  21,C  18,O  17,C  11)    -64.1392         0.017546   
    171. D(H  20,C  18,O  17,C  11)    176.7898         0.017546   
    172. D(H  19,C  18,O  17,C  11)     58.3843         0.017546   
    173. D(C  26,C  24,C  22,C  28)    176.0652         0.035996   
    174. D(C  26,C  24,C  22,H  23)     -3.2249         0.035996   
    175. D(H  25,C  24,C  22,C  28)      1.4015         0.035996   
    176. D(H  25,C  24,C  22,H  23)   -177.8885         0.035996   
    177. D(C  44,C  26,C  24,H  25)   -175.6354         0.017000   
    178. D(C  44,C  26,C  24,C  22)      9.3204         0.017000   
    179. D(O  27,C  26,C  24,H  25)      6.5833         0.017000   
    180. D(O  27,C  26,C  24,C  22)   -168.4610         0.017000   
    181. D(H  46,O  27,C  26,C  44)     -3.2821         0.070803   
    182. D(H  46,O  27,C  26,C  24)    174.6708         0.070803   
    183. D(C  30,C  28,C  22,C  24)      0.3677         0.017053   
    184. D(C  30,C  28,C  22,H  23)    179.6824         0.017053   
    185. D(C  29,C  28,C  22,C  24)   -179.2555         0.017053   
    186. D(C  29,C  28,C  22,H  23)      0.0592         0.017053   
    187. D(H  32,C  29,C  28,C  30)   -179.9080         0.023964   
    188. D(H  32,C  29,C  28,C  22)     -0.2632         0.023964   
    189. D(C  31,C  29,C  28,C  30)      0.5598         0.023964   
    190. D(C  31,C  29,C  28,C  22)   -179.7953         0.023964   
    191. D(C  33,C  30,C  28,C  29)     -0.6539         0.023051   
    192. D(C  33,C  30,C  28,C  22)    179.7206         0.023051   
    193. D(H  34,C  30,C  28,C  29)   -179.8109         0.023051   
    194. D(H  34,C  30,C  28,C  22)      0.5637         0.023051   
    195. D(H  36,C  31,C  29,H  32)     -0.2384         0.027603   
    196. D(H  36,C  31,C  29,C  28)    179.2940         0.027603   
    197. D(C  35,C  31,C  29,H  32)   -179.4858         0.027603   
    198. D(C  35,C  31,C  29,C  28)      0.0467         0.027603   
    199. D(O  39,C  33,C  30,H  34)      2.5315         0.028591   
    200. D(O  39,C  33,C  30,C  28)   -176.6586         0.028591   
    201. D(C  35,C  33,C  30,H  34)    179.3294         0.028591   
    202. D(C  35,C  33,C  30,C  28)      0.1394         0.028591   
    203. D(O  37,C  35,C  33,O  39)     -2.1024         0.022379   
    204. D(O  37,C  35,C  33,C  30)   -178.8383         0.022379   
    205. D(C  31,C  35,C  33,O  39)    177.2189         0.022379   
    206. D(C  31,C  35,C  33,C  30)      0.4829         0.022379   
    207. D(O  37,C  35,C  31,H  36)     -0.5462         0.025807   
    208. D(O  37,C  35,C  31,C  29)    178.7072         0.025807   
    209. D(C  33,C  35,C  31,H  36)   -179.8298         0.025807   
    210. D(C  33,C  35,C  31,C  29)     -0.5763         0.025807   
    211. D(H  38,O  37,C  35,C  33)    179.5908         0.029995   
    212. D(H  38,O  37,C  35,C  31)      0.2940         0.029995   
    213. D(C  40,O  39,C  33,C  35)     71.0059         0.026792   
    214. D(C  40,O  39,C  33,C  30)   -112.2534         0.026792   
    215. D(H  43,C  40,O  39,C  33)    -64.2563         0.017496   
    216. D(H  42,C  40,O  39,C  33)    176.6863         0.017496   
    217. D(H  41,C  40,O  39,C  33)     58.2740         0.017496   
    218. D(H  45,C  44,C  26,O  27)     32.4040         0.014345   
    219. D(H  45,C  44,C  26,C  24)   -145.4252         0.014345   
    220. D(C   4,C  44,C  26,O  27)   -135.6081         0.014345   
    221. D(C   4,C  44,C  26,C  24)     46.5627         0.014345   
    222. D(H  45,C  44,C   4,O   5)   -164.0015         0.015587   
    223. D(H  45,C  44,C   4,C   2)     14.6364         0.015587   
    224. D(C  26,C  44,C   4,O   5)      3.4942         0.015587   
    225. D(C  26,C  44,C   4,C   2)   -177.8679         0.015587   
    226. D(N  49,O  47,O  27,C  26)     84.3617         0.001501   
    227. D(O  48,N  49,O  47,H  46)    179.7479         0.019450   
    -----------------------------------------------------------------

Number of atoms                         .... 50
Number of degrees of freedom            .... 227

         *************************************************************
         *                GEOMETRY OPTIMIZATION CYCLE   1            *
         *************************************************************
---------------------------------
CARTESIAN COORDINATES (ANGSTROEM)
---------------------------------
  C     -2.706063    0.255079   -0.199328
  H     -2.413647    0.953447   -0.979154
  C     -1.832525   -0.022744    0.792593
  H     -2.091485   -0.724356    1.580170
  C     -0.467715    0.508197    0.941029
  O      0.251613    0.097224    1.860741
  C     -4.044642   -0.291176   -0.370933
  C     -4.807618    0.126191   -1.473548
  C     -4.619859   -1.229182    0.510014
  C     -6.091430   -0.359650   -1.682865
  H     -4.390562    0.845057   -2.171226
  C     -5.898547   -1.721223    0.315258
  H     -4.080067   -1.586109    1.379766
  C     -6.652908   -1.277794   -0.794985
  H     -6.672929   -0.018250   -2.534810
  O     -7.910772   -1.764431   -0.936055
  H     -8.323230   -1.382950   -1.724018
  O     -6.432848   -2.578340    1.239615
  C     -6.646625   -3.926444    0.791993
  H     -5.706524   -4.373609    0.452807
  H     -7.015406   -4.475895    1.657622
  H     -7.386988   -3.970264   -0.008702
  C      2.695606    0.060859   -0.022810
  H      1.786470   -0.526532   -0.090764
  C      2.586543    1.408258    0.050277
  H      3.464509    2.045912    0.085717
  C      1.342031    2.150652   -0.021029
  O      1.384803    3.391378   -0.160254
  C      3.915058   -0.724381   -0.036111
  C      3.812047   -2.122765   -0.133519
  C      5.206478   -0.161500    0.035858
  C      4.943503   -2.925505   -0.146594
  H      2.831461   -2.583220   -0.191924
  C      6.343265   -0.948854    0.025795
  H      5.348594    0.909989    0.115219
  C      6.214632   -2.354729   -0.061623
  H      4.846963   -4.005805   -0.210855
  O      7.351444   -3.090582   -0.044242
  H      7.134844   -4.032121   -0.103107
  O      7.569150   -0.356935    0.167124
  C      8.420854   -0.399991   -0.989296
  H      7.933525    0.078878   -1.844700
  H      9.316487    0.160809   -0.724072
  H      8.696302   -1.424360   -1.246130
  C      0.002617    1.536218    0.012995
  H     -0.727169    2.051671   -0.600355
  H      0.074762    4.430422   -0.390325
  O     -0.678967    5.055408   -0.568489
  O     -2.105655    6.090339    0.628115
  N     -1.192038    5.342529    0.685339

----------------------------
CARTESIAN COORDINATES (A.U.)
----------------------------
  NO LB      ZA    FRAG     MASS         X           Y           Z
   0 C     6.0000    0    12.011   -5.113718    0.482029   -0.376675
   1 H     1.0000    0     1.008   -4.561132    1.801754   -1.850333
   2 C     6.0000    0    12.011   -3.462970   -0.042980    1.497784
   3 H     1.0000    0     1.008   -3.952334   -1.368834    2.986089
   4 C     6.0000    0    12.011   -0.883853    0.960353    1.778287
   5 O     8.0000    0    15.999    0.475480    0.183727    3.516291
   6 C     6.0000    0    12.011   -7.643266   -0.550243   -0.700962
   7 C     6.0000    0    12.011   -9.085081    0.238466   -2.784602
   8 C     6.0000    0    12.011   -8.730268   -2.322817    0.963787
   9 C     6.0000    0    12.011  -11.511134   -0.679640   -3.180154
  10 H     1.0000    0     1.008   -8.296960    1.596926   -4.103023
  11 C     6.0000    0    12.011  -11.146638   -3.252640    0.595751
  12 H     1.0000    0     1.008   -7.710209   -2.997312    2.607380
  13 C     6.0000    0    12.011  -12.572174   -2.414681   -1.502304
  14 H     1.0000    0     1.008  -12.610008   -0.034488   -4.790097
  15 O     8.0000    0    15.999  -14.949193   -3.334291   -1.768888
  16 H     1.0000    0     1.008  -15.728625   -2.613397   -3.257922
  17 O     8.0000    0    15.999  -12.156321   -4.872356    2.342533
  18 C     6.0000    0    12.011  -12.560301   -7.419904    1.496650
  19 H     1.0000    0     1.008  -10.783768   -8.264923    0.855681
  20 H     1.0000    0     1.008  -13.257196   -8.458216    3.132452
  21 H     1.0000    0     1.008  -13.959384   -7.502712   -0.016444
  22 C     6.0000    0    12.011    5.093957    0.115007   -0.043105
  23 H     1.0000    0     1.008    3.375939   -0.995001   -0.171519
  24 C     6.0000    0    12.011    4.887858    2.661222    0.095010
  25 H     1.0000    0     1.008    6.546973    3.866213    0.161982
  26 C     6.0000    0    12.011    2.536071    4.064143   -0.039739
  27 O     8.0000    0    15.999    2.616898    6.408776   -0.302836
  28 C     6.0000    0    12.011    7.398387   -1.368882   -0.068240
  29 C     6.0000    0    12.011    7.203725   -4.011444   -0.252314
  30 C     6.0000    0    12.011    9.838818   -0.305191    0.067762
  31 C     6.0000    0    12.011    9.341867   -5.528403   -0.277023
  32 H     1.0000    0     1.008    5.350686   -4.881578   -0.362684
  33 C     6.0000    0    12.011   11.987034   -1.793074    0.048745
  34 H     1.0000    0     1.008   10.107378    1.719630    0.217732
  35 C     6.0000    0    12.011   11.743953   -4.449793   -0.116451
  36 H     1.0000    0     1.008    9.159433   -7.569874   -0.398458
  37 O     8.0000    0    15.999   13.892216   -5.840354   -0.083605
  38 H     1.0000    0     1.008   13.482901   -7.619604   -0.194844
  39 O     8.0000    0    15.999   14.303621   -0.674509    0.315819
  40 C     6.0000    0    12.011   15.913108   -0.755873   -1.869499
  41 H     1.0000    0     1.008   14.992190    0.149058   -3.485978
  42 H     1.0000    0     1.008   17.605609    0.303885   -1.368298
  43 H     1.0000    0     1.008   16.433629   -2.691650   -2.354844
  44 C     6.0000    0    12.011    0.004945    2.903031    0.024557
  45 H     1.0000    0     1.008   -1.374150    3.877096   -1.134507
  46 H     1.0000    0     1.008    0.141280    8.372284   -0.737607
  47 O     8.0000    0    15.999   -1.283062    9.553337   -1.074289
  48 O     8.0000    0    15.999   -3.979111   11.509073    1.186965
  49 N     7.0000    0    14.007   -2.252625   10.095917    1.295103

--------------------------------
INTERNAL COORDINATES (ANGSTROEM)
--------------------------------
 C      0   0   0     0.000000000000     0.00000000     0.00000000
 H      1   0   0     1.086900901994     0.00000000     0.00000000
 C      1   2   0     1.350615240183   119.01868980     0.00000000
 H      3   1   2     1.086092634665   120.74610652   180.65605842
 C      3   1   2     1.471950382206   126.83817999   358.80822196
 O      5   3   1     1.237821368880   119.60340597   184.56491002
 C      1   2   3     1.455897159930   113.82019889   180.39962584
 C      7   1   2     1.404310303135   118.72227325   359.40715690
 C      7   1   2     1.409538034228   123.45098493   179.00933495
 C      8   7   1     1.388534599898   121.11146883   180.20325854
 H      8   7   1     1.085107655846   119.53148582   359.82207178
 C      9   7   1     1.383863160345   121.71732197   179.74341451
 H      9   7   1     1.084085249460   121.15317326     0.57683536
 C     10   8   7     1.395197779392   120.42491561     0.04717027
 H     10   8   7     1.086510621221   120.20487714   179.31430388
 O     14  10   8     1.356074539679   122.90471629   178.65488399
 H     16  14  10     0.967747407382   109.79038217     0.27002473
 O     12   9   7     1.369146805036   119.21952080   183.31781978
 C     18  12   9     1.436471529627   115.79854401   247.35015163
 H     19  18  12     1.094894319111   110.61202504    58.38430524
 H     19  18  12     1.089591388091   106.02517028   176.78982207
 H     19  18  12     1.091407369956   111.54570873   295.86075147
 C      6   5   3     3.085804363027    90.60981613   139.72284447
 H     23   6   5     1.084515652028    51.73462937   296.25377055
 C     23   6   5     1.353780082857    83.77181254    70.24426042
 H     25  23   6     1.085671642105   121.41148742   142.17888286
 C     25  23   6     1.450876809042   125.15038129   316.84257365
 O     27  25  23     1.249245392901   118.96700104   191.53903717
 C     23   6   5     1.450462669118   132.67568165   207.12810485
 C     29  23   6     1.405552345536   118.53075479    59.50506103
 C     29  23   6     1.410595680385   123.58731219   239.12819302
 C     30  29  23     1.387355449465   121.10067297   180.20466236
 H     30  29  23     1.084886562939   119.48764444   359.73678208
 C     31  29  23     1.382863792517   121.67035702   179.72063765
 H     31  29  23     1.083782175023   121.21819591     0.56372141
 C     32  30  29     1.395985045643   120.36163750     0.04672273
 H     32  30  29     1.086507035284   120.22514027   179.29404221
 O     36  32  30     1.354298069154   122.88519076   178.70723524
 H     38  36  32     0.967923724653   109.87158629     0.29403498
 O     34  31  29     1.368625596000   119.29589575   183.34142157
 C     40  34  31     1.436857939795   115.77666674   247.74662963
 H     41  40  34     1.094769873817   110.60276318    58.27399447
 H     41  40  34     1.089494782395   106.01758312   176.68634972
 H     41  40  34     1.091406043790   111.53800971   295.74373010
 C      5   3   1     1.462629984590   119.18952646     5.90502301
 H     45   5   3     1.083733188338   118.48025039    14.63643040
 H     28  27  25     1.687824789680   126.87203970   174.67084867
 O     47  28  27     0.995217220778   177.23323375   241.54770602
 O     48  47  28     2.130347848808   135.37511994   202.13615060
 N     49  48  47     1.182028089753    37.08178172   359.65244878

---------------------------
INTERNAL COORDINATES (A.U.)
---------------------------
 C      0   0   0     0.000000000000     0.00000000     0.00000000
 H      1   0   0     2.053945039481     0.00000000     0.00000000
 C      1   2   0     2.552292916246   119.01868980     0.00000000
 H      3   1   2     2.052417635585   120.74610652   180.65605842
 C      3   1   2     2.781583105090   126.83817999   358.80822196
 O      5   3   1     2.339143389900   119.60340597   184.56491002
 C      1   2   3     2.751246911421   113.82019889   180.39962584
 C      7   1   2     2.653761879968   118.72227325   359.40715690
 C      7   1   2     2.663640860036   123.45098493   179.00933495
 C      8   7   1     2.623950121281   121.11146883   180.20325854
 H      8   7   1     2.050556295371   119.53148582   359.82207178
 C      9   7   1     2.615122379875   121.71732197   179.74341451
 H      9   7   1     2.048624227303   121.15317326     0.57683536
 C     10   8   7     2.636541705706   120.42491561     0.04717027
 H     10   8   7     2.053207515704   120.20487714   179.31430388
 O     14  10   8     2.562609497176   122.90471629   178.65488399
 H     16  14  10     1.828777566764   109.79038217     0.27002473
 O     12   9   7     2.587312498650   119.21952080   183.31781978
 C     18  12   9     2.714537790170   115.79854401   247.35015163
 H     19  18  12     2.069050408706   110.61202504    58.38430524
 H     19  18  12     2.059029321372   106.02517028   176.78982207
 H     19  18  12     2.062461029760   111.54570873   295.86075147
 C      6   5   3     5.831325148980    90.60981613   139.72284447
 H     23   6   5     2.049437570283    51.73462937   296.25377055
 C     23   6   5     2.558273602156    83.77181254    70.24426042
 H     25  23   6     2.051622074944   121.41148742   142.17888286
 C     25  23   6     2.741759823147   125.15038129   316.84257365
 O     27  25  23     2.360731666646   118.96700104   191.53903717
 C     23   6   5     2.740977212110   132.67568165   207.12810485
 C     29  23   6     2.656108999953   118.53075479    59.50506103
 C     29  23   6     2.665639521621   123.58731219   239.12819302
 C     30  29  23     2.621721849893   121.10067297   180.20466236
 H     30  29  23     2.050138490326   119.48764444   359.73678208
 C     31  29  23     2.613233848372   121.67035702   179.72063765
 H     31  29  23     2.048051499619   121.21819591     0.56372141
 C     32  30  29     2.638029423314   120.36163750     0.04672273
 H     32  30  29     2.053200739265   120.22514027   179.29404221
 O     36  32  30     2.559252454399   122.88519076   178.70723524
 H     38  36  32     1.829110758119   109.87158629     0.29403498
 O     34  31  29     2.586327556315   119.29589575   183.34142157
 C     40  34  31     2.715267999563   115.77666674   247.74662963
 H     41  40  34     2.068815241182   110.60276318    58.27399447
 H     41  40  34     2.058846763062   106.01758312   176.68634972
 H     41  40  34     2.062458523669   111.53800971   295.74373010
 C      5   3   1     2.763970106136   119.18952646     5.90502301
 H     45   5   3     2.047958928200   118.48025039    14.63643040
 H     28  27  25     3.189526614538   126.87203970   174.67084867
 O     47  28  27     1.880687991033   177.23323375   241.54770602
 O     48  47  28     4.025774004235   135.37511994   202.13615060
 N     49  48  47     2.233709372235    37.08178172   359.65244878

---------------------
BASIS SET INFORMATION
---------------------
There are 4 groups of distinct atoms

 Group   1 Type C   : 11s5p1d contracted to 4s3p1d pattern {6311/311/1}
 Group   2 Type H   : 5s contracted to 3s pattern {311}
 Group   3 Type O   : 11s5p1d contracted to 4s3p1d pattern {6311/311/1}
 Group   4 Type N   : 11s5p1d contracted to 4s3p1d pattern {6311/311/1}

Atom   0C    basis set group =>   1
Atom   1H    basis set group =>   2
Atom   2C    basis set group =>   1
Atom   3H    basis set group =>   2
Atom   4C    basis set group =>   1
Atom   5O    basis set group =>   3
Atom   6C    basis set group =>   1
Atom   7C    basis set group =>   1
Atom   8C    basis set group =>   1
Atom   9C    basis set group =>   1
Atom  10H    basis set group =>   2
Atom  11C    basis set group =>   1
Atom  12H    basis set group =>   2
Atom  13C    basis set group =>   1
Atom  14H    basis set group =>   2
Atom  15O    basis set group =>   3
Atom  16H    basis set group =>   2
Atom  17O    basis set group =>   3
Atom  18C    basis set group =>   1
Atom  19H    basis set group =>   2
Atom  20H    basis set group =>   2
Atom  21H    basis set group =>   2
Atom  22C    basis set group =>   1
Atom  23H    basis set group =>   2
Atom  24C    basis set group =>   1
Atom  25H    basis set group =>   2
Atom  26C    basis set group =>   1
Atom  27O    basis set group =>   3
Atom  28C    basis set group =>   1
Atom  29C    basis set group =>   1
Atom  30C    basis set group =>   1
Atom  31C    basis set group =>   1
Atom  32H    basis set group =>   2
Atom  33C    basis set group =>   1
Atom  34H    basis set group =>   2
Atom  35C    basis set group =>   1
Atom  36H    basis set group =>   2
Atom  37O    basis set group =>   3
Atom  38H    basis set group =>   2
Atom  39O    basis set group =>   3
Atom  40C    basis set group =>   1
Atom  41H    basis set group =>   2
Atom  42H    basis set group =>   2
Atom  43H    basis set group =>   2
Atom  44C    basis set group =>   1
Atom  45H    basis set group =>   2
Atom  46H    basis set group =>   2
Atom  47O    basis set group =>   3
Atom  48O    basis set group =>   3
Atom  49N    basis set group =>   4
---------------------------------
AUXILIARY/J BASIS SET INFORMATION
---------------------------------
There are 4 groups of distinct atoms

 Group   1 Type C   : 12s5p4d2f1g contracted to 6s4p3d1f1g pattern {711111/2111/211/2/1}
 Group   2 Type H   : 5s2p1d contracted to 3s1p1d pattern {311/2/1}
 Group   3 Type O   : 12s5p4d2f1g contracted to 6s4p3d1f1g pattern {711111/2111/211/2/1}
 Group   4 Type N   : 12s5p4d2f1g contracted to 6s4p3d1f1g pattern {711111/2111/211/2/1}

Atom   0C    basis set group =>   1
Atom   1H    basis set group =>   2
Atom   2C    basis set group =>   1
Atom   3H    basis set group =>   2
Atom   4C    basis set group =>   1
Atom   5O    basis set group =>   3
Atom   6C    basis set group =>   1
Atom   7C    basis set group =>   1
Atom   8C    basis set group =>   1
Atom   9C    basis set group =>   1
Atom  10H    basis set group =>   2
Atom  11C    basis set group =>   1
Atom  12H    basis set group =>   2
Atom  13C    basis set group =>   1
Atom  14H    basis set group =>   2
Atom  15O    basis set group =>   3
Atom  16H    basis set group =>   2
Atom  17O    basis set group =>   3
Atom  18C    basis set group =>   1
Atom  19H    basis set group =>   2
Atom  20H    basis set group =>   2
Atom  21H    basis set group =>   2
Atom  22C    basis set group =>   1
Atom  23H    basis set group =>   2
Atom  24C    basis set group =>   1
Atom  25H    basis set group =>   2
Atom  26C    basis set group =>   1
Atom  27O    basis set group =>   3
Atom  28C    basis set group =>   1
Atom  29C    basis set group =>   1
Atom  30C    basis set group =>   1
Atom  31C    basis set group =>   1
Atom  32H    basis set group =>   2
Atom  33C    basis set group =>   1
Atom  34H    basis set group =>   2
Atom  35C    basis set group =>   1
Atom  36H    basis set group =>   2
Atom  37O    basis set group =>   3
Atom  38H    basis set group =>   2
Atom  39O    basis set group =>   3
Atom  40C    basis set group =>   1
Atom  41H    basis set group =>   2
Atom  42H    basis set group =>   2
Atom  43H    basis set group =>   2
Atom  44C    basis set group =>   1
Atom  45H    basis set group =>   2
Atom  46H    basis set group =>   2
Atom  47O    basis set group =>   3
Atom  48O    basis set group =>   3
Atom  49N    basis set group =>   4
------------------------------------------------------------------------------
                           ORCA GTO INTEGRAL CALCULATION
                           -- RI-GTO INTEGRALS CHOSEN --
------------------------------------------------------------------------------
------------------------------------------------------------------------------
                   ___                                                        
                  /   \      - P O W E R E D   B Y -                         
                 /     \                                                     
                 |  |  |   _    _      __       _____    __    __             
                 |  |  |  | |  | |    /  \     |  _  \  |  |  /  |          
                  \  \/   | |  | |   /    \    | | | |  |  | /  /          
                 / \  \   | |__| |  /  /\  \   | |_| |  |  |/  /          
                |  |  |   |  __  | /  /__\  \  |    /   |      \           
                |  |  |   | |  | | |   __   |  |    \   |  |\   \          
                \     /   | |  | | |  |  |  |  | |\  \  |  | \   \       
                 \___/    |_|  |_| |__|  |__|  |_| \__\ |__|  \__/        
                                                                              
                      - O R C A' S   B I G   F R I E N D -                    
                                      &                                       
                       - I N T E G R A L  F E E D E R -                       
                                                                              
 v1 FN, 2020, v2 2021                                                         
------------------------------------------------------------------------------


Reading SHARK input file CURCUMIN-OPT-FREQ-TS2-WB97M-V-6-311G-D-298.SHARKINP.tmp ... ok
----------------------
SHARK INTEGRAL PACKAGE
----------------------

Number of atoms                             ...     50
Number of basis functions                   ...    600
Number of shells                            ...    300
Maximum angular momentum                    ...      2
Integral batch strategy                     ... SHARK/LIBINT Hybrid
RI-J (if used) integral strategy            ... SPLIT-RIJ (Revised 2003 algorithm where possible)
Printlevel                                  ...      1
Contraction scheme used                     ... SEGMENTED contraction
Coulomb Range Separation                    ... NOT USED
Exchange Range Separation                   ... Long Range
   Mu parameter                             ...  0.300000
   Scaling (regular/separated)              ...  0.150000  0.850000
Finite Nucleus Model                        ... NOT USED
Auxiliary Coulomb fitting basis             ... AVAILABLE
   # of basis functions in Aux-J            ...   1690
   # of shells in Aux-J                     ...    550
   Maximum angular momentum in Aux-J        ...      4
Auxiliary J/K fitting basis                 ... NOT available
Auxiliary Correlation fitting basis         ... NOT available
Auxiliary 'external' fitting basis          ... NOT available
Integral threshold                          ...     2.500000e-11
Primitive cut-off                           ...     2.500000e-12
Primitive pair pre-selection threshold      ...     2.500000e-12

Calculating pre-screening integrals         ... done (  0.3 sec) Dimension = 300
Organizing shell pair data                  ... done (  0.3 sec)
Shell pair information
Total number of shell pairs                 ...     45150
Shell pairs after pre-screening             ...     20039
Total number of primitive shell pairs       ...    187045
Primitive shell pairs kept                  ...     49194
          la=0 lb=0:   6979 shell pairs
          la=1 lb=0:   7473 shell pairs
          la=1 lb=1:   2049 shell pairs
          la=2 lb=0:   2177 shell pairs
          la=2 lb=1:   1177 shell pairs
          la=2 lb=2:    184 shell pairs

Calculating one electron integrals          ... done (  0.3 sec)
Calculating RI/J V-Matrix + Cholesky decomp.... done (  0.8 sec)
Calculating Nuclear repulsion               ... done (  0.0 sec) ENN=   2538.992862719357 Eh

SHARK setup successfully completed in   2.5 seconds

Maximum memory used throughout the entire GTOINT-calculation: 109.4 MB
-------------------------------------------------------------------------------
                                 ORCA SCF
-------------------------------------------------------------------------------

------------
SCF SETTINGS
------------
Hamiltonian:
 Density Functional     Method          .... DFT(GTOs)
  Functional kind                       .... Exchange-Correlation
  Functional name                       .... wB97M-V exchange-correlation functional
  Functional family                     .... Hybrid MGGA
  Functional refs                              
    [ 0] N. Mardirossian and M. Head-Gordon, J. Chem. Phys. 144, 214110 (2016)
  Fraction of HF Exchange (short range) .... 0.1500
  Fraction of HF Exchange (long range)  .... 1.0000
  Range separation parameter mu         .... 0.3000
  Functional external parameters         .... 0
   Density functional embedding theory  .... OFF
 Long-range corrected/Screened/Range-Separated Hybrid DFT is turned on
   Amount of maximum screened exact exchange              ....  0.850000
   Range separation parameter mu (erf(mu*r12)/r12)        ....  0.300000
   NL short-range parameter             ....  6.000000
   NL long-range parameter              ....  0.010000
 RI-approximation to the Coulomb term is turned on
   Number of AuxJ basis functions       .... 1690
   RIJ-ON(X) (HFX calculated with O(N)) .... on


General Settings:
 Integral files         IntName         .... CURCUMIN-OPT-FREQ-TS2-WB97M-V-6-311G-D-298
 Hartree-Fock type      HFTyp           .... UHF
 Total Charge           Charge          ....    0
 Multiplicity           Mult            ....    2
 Number of Electrons    NEL             ....  217
 Basis Dimension        Dim             ....  600
 Nuclear Repulsion      ENuc            ....   2538.9928627194 Eh

Convergence Acceleration:
 DIIS                   CNVDIIS         .... on
   Start iteration      DIISMaxIt       ....    12
   Startup error        DIISStart       ....  0.200000
   # of expansion vecs  DIISMaxEq       ....     5
   Bias factor          DIISBfac        ....   1.050
   Max. coefficient     DIISMaxC        ....  10.000
 Trust-Rad. Augm. Hess. CNVTRAH         .... off
 SOSCF                  CNVSOSCF        .... off
 Level Shifting         CNVShift        .... on
   Level shift para.    LevelShift      ....    0.2500
   Turn off err/grad.   ShiftErr        ....    0.0010
 Zerner damping         CNVZerner       .... off
 Static damping         CNVDamp         .... on
   Fraction old density DampFac         ....    0.7000
   Max. Damping (<1)    DampMax         ....    0.9800
   Min. Damping (>=0)   DampMin         ....    0.0000
   Turn off err/grad.   DampErr         ....    0.1000
 Fernandez-Rico         CNVRico         .... off

SCF Procedure:
 Maximum # iterations   MaxIter         ....   125
 SCF integral mode      SCFMode         .... Direct
   Integral package                     .... SHARK and LIBINT hybrid scheme
 Reset frequency        DirectResetFreq ....    20
 Integral Threshold     Thresh          ....  2.500e-11 Eh
 Primitive CutOff       TCut            ....  2.500e-12 Eh

Convergence Tolerance:
 Convergence Check Mode ConvCheckMode   .... Total+1el-Energy
 Convergence forced     ConvForced      .... 0
 Energy Change          TolE            ....  1.000e-08 Eh
 1-El. energy change                    ....  1.000e-05 Eh
 DIIS Error             TolErr          ....  5.000e-07


Diagonalization of the overlap matrix:
Smallest eigenvalue                        ... 1.742e-04
Time for diagonalization                   ...    0.134 sec
Threshold for overlap eigenvalues          ... 1.000e-08
Number of eigenvalues below threshold      ... 0
Time for construction of square roots      ...    0.091 sec
Total time needed                          ...    0.226 sec

Time for model grid setup =    3.249 sec

------------------------------
INITIAL GUESS: MODEL POTENTIAL
------------------------------
Loading Hartree-Fock densities                     ... done
Calculating cut-offs                               ... done
Initializing the effective Hamiltonian             ... done
Setting up the integral package (SHARK)            ... done
Starting the Coulomb interaction                   ... done (   5.2 sec)
Reading the grid                                   ... done
Mapping shells                                     ... done
Starting the XC term evaluation                    ... done (   1.8 sec)
  promolecular density results
     # of electrons  =    216.978622893
     EX              =   -184.986076879
     EC              =     -7.281381856
     EX+EC           =   -192.267458735
Transforming the Hamiltonian                       ... done (   0.1 sec)
Diagonalizing the Hamiltonian                      ... done (   0.1 sec)
Back transforming the eigenvectors                 ... done (   0.0 sec)
Now organizing SCF variables                       ... done
                      ------------------
                      INITIAL GUESS DONE (  10.6 sec)
                      ------------------
-------------------
DFT GRID GENERATION
-------------------

General Integration Accuracy     IntAcc      ... 4.388
Radial Grid Type                 RadialGrid  ... OptM3 with GC (2021)
Angular Grid (max. ang.)         AngularGrid ... 4 (Lebedev-302)
Angular grid pruning method      GridPruning ... 4 (adaptive)
Weight generation scheme         WeightScheme... Becke
Basis function cutoff            BFCut       ... 1.0000e-11
Integration weight cutoff        WCut        ... 1.0000e-14
Angular grids for H and He will be reduced by one unit
Partially contracted basis set               ... off
Rotationally invariant grid construction     ... off

Total number of grid points                  ...   244270
Total number of batches                      ...     3840
Average number of points per batch           ...       63
Average number of grid points per atom       ...     4885

------------------
NL GRID GENERATION
------------------

General Integration Accuracy     IntAcc      ... 4.004
Radial Grid Type                 RadialGrid  ... OptM3 with GC (2021)
Angular Grid (max. ang.)         AngularGrid ... 2 (Lebedev-110)
Angular grid pruning method      GridPruning ... 4 (adaptive)
Weight generation scheme         WeightScheme... Becke
Basis function cutoff            BFCut       ... 1.0000e-10
Integration weight cutoff        WCut        ... 1.0000e-14
Angular grids for H and He will be reduced by one unit
Partially contracted basis set               ... off
Rotationally invariant grid construction     ... off

Total number of grid points                  ...    78638
Total number of batches                      ...     1255
Average number of points per batch           ...       62
Average number of grid points per atom       ...     1573
Time for grid setup =   13.578 sec


--------------------
CPCM SOLVATION MODEL
--------------------
CPCM parameters:
  Epsilon                                         ...       7.0000
  Refrac                                          ...       1.8534
  Rsolv                                           ...       1.3000
  Surface type                                    ... GAUSSIAN VDW
  Epsilon function type                           ...         CPCM
Radii:
 Radius for C  used is    3.8550 Bohr (=   2.0400 Ang.)
 Radius for H  used is    2.4944 Bohr (=   1.3200 Ang.)
 Radius for O  used is    3.4469 Bohr (=   1.8240 Ang.)
 Radius for N  used is    3.5149 Bohr (=   1.8600 Ang.)
Calculating surface                               ...        done! (  0.0s)
GEPOL surface points                              ...         2743
GEPOL Volume                                      ...    3266.9315
GEPOL Surface-area                                ...    1727.3584
Calculating surface distance matrix               ...        done! (  0.2s)
Performing Cholesky decomposition & store         ...        done! (  1.2s)
Overall time for CPCM initialization              ...                 1.4s
--------------
SCF ITERATIONS
--------------
ITER       Energy         Delta-E        Max-DP      RMS-DP      [F,P]     Damp
               ***  Starting incremental Fock matrix formation  ***
  0  -1467.7956974435   0.000000000000 0.05107445  0.00047177  0.1605056 0.7000
  1  -1468.0696468975  -0.273949454005 0.04021258  0.00035487  0.0761497 0.7000
                               ***Turning on DIIS***
  2  -1468.2058195863  -0.136172688739 0.06398937  0.00067685  0.0293664 0.0000
  3  -1468.4479813298  -0.242161743565 0.03356493  0.00024097  0.0401436 0.0000
  4  -1468.4784041886  -0.030422858784 0.00658456  0.00006797  0.0071122 0.0000
  5  -1468.4823557154  -0.003951526800 0.00462033  0.00004701  0.0036349 0.0000
  6  -1468.4846153193  -0.002259603852 0.00456580  0.00004579  0.0032226 0.0000
  7  -1468.4864019315  -0.001786612258 0.00441312  0.00003955  0.0025344 0.0000
  8  -1468.4875110403  -0.001109108757 0.00277944  0.00002667  0.0017943 0.0000
  9  -1468.4880612052  -0.000550164953 0.00167982  0.00001855  0.0012175 0.0000
 10  -1468.4883448450  -0.000283639782 0.00228315  0.00002746  0.0007972 0.0000
 11  -1468.4886173458  -0.000272500810 0.00093836  0.00001037  0.0006347 0.0000
 12  -1468.4886719052  -0.000054559360 0.00068490  0.00000723  0.0006086 0.0000
 13  -1468.4887046022  -0.000032696995 0.00056481  0.00000642  0.0004446 0.0000
 14  -1468.4887252004  -0.000020598245 0.00055254  0.00000599  0.0002746 0.0000
 15  -1468.4887391102  -0.000013909728 0.00037362  0.00000425  0.0001787 0.0000
 16  -1468.4887449874  -0.000005877216 0.00024979  0.00000328  0.0001379 0.0000
 17  -1468.4887479681  -0.000002980752 0.00013716  0.00000195  0.0000717 0.0000
 18  -1468.4887489258  -0.000000957615 0.00006477  0.00000087  0.0000466 0.0000
 19  -1468.4887491898  -0.000000264075 0.00004978  0.00000067  0.0000356 0.0000
               *** Restarting incremental Fock matrix formation ***
                                   *** Resetting DIIS ***
 20  -1468.4887494925  -0.000000302642 0.00005163  0.00000035  0.0000427 0.0000
 21  -1468.4887495525  -0.000000060058 0.00001855  0.00000015  0.0000416 0.0000
 22  -1468.4887495797  -0.000000027213 0.00004307  0.00000039  0.0000208 0.0000
 23  -1468.4887496044  -0.000000024666 0.00001909  0.00000016  0.0000090 0.0000
 24  -1468.4887496208  -0.000000016383 0.00000880  0.00000007  0.0000044 0.0000
 25  -1468.4887496356  -0.000000014802 0.00000321  0.00000003  0.0000019 0.0000
                 **** Energy Check signals convergence ****

               *****************************************************
               *                     SUCCESS                       *
               *           SCF CONVERGED AFTER  26 CYCLES          *
               *****************************************************


----------------
TOTAL SCF ENERGY
----------------

Total Energy       :        -1468.48874963 Eh          -39959.61038 eV

Components:
Nuclear Repulsion  :         2538.99286272 Eh           69089.50824 eV
Electronic Energy  :        -4007.48161235 Eh         -109049.11862 eV
One Electron Energy:        -7048.59708111 Eh         -191802.07761 eV
Two Electron Energy:         3041.11546876 Eh           82752.95898 eV
CPCM Dielectric    :           -0.04335593 Eh              -1.17977 eV

Virial components:
Potential Energy   :        -2933.52029856 Eh          -79825.14556 eV
Kinetic Energy     :         1465.03154893 Eh           39865.53517 eV
Virial Ratio       :            2.00235981


DFT components:
N(Alpha)           :      109.000062347256 electrons
N(Beta)            :      108.000057638296 electrons
N(Total)           :      217.000119985551 electrons
NL Energy, E(C,NL) :        0.826122665067 Eh       
E(XC)              :     -139.448513596000 Eh       
DFET-embed. en.    :        0.000000000000 Eh       
CPCM Solvation Model Properties:
Surface-charge          :           -0.02776111
Charge-correction       :            0.00014941 Eh               0.00407 eV
Free-energy (cav+disp)  :  This term is not implemented in the current solvation scheme

---------------
SCF CONVERGENCE
---------------

  Last Energy change         ...    6.5247e-09  Tolerance :   1.0000e-08
  Last MAX-Density change    ...    2.4070e-06  Tolerance :   1.0000e-07
  Last RMS-Density change    ...    2.4283e-08  Tolerance :   5.0000e-09
  Last DIIS Error            ...    1.6419e-06  Tolerance :   5.0000e-07

             **** THE GBW FILE WAS UPDATED (CURCUMIN-OPT-FREQ-TS2-WB97M-V-6-311G-D-298.gbw) ****
             **** DENSITY CURCUMIN-OPT-FREQ-TS2-WB97M-V-6-311G-D-298.scfp WAS UPDATED ****
             **** ENERGY FILE WAS UPDATED (CURCUMIN-OPT-FREQ-TS2-WB97M-V-6-311G-D-298.en.tmp) ****
----------------------
UHF SPIN CONTAMINATION
----------------------

Warning: in a DFT calculation there is little theoretical justification to 
         calculate <S**2> as in Hartree-Fock theory. We will do it anyways
         but you should keep in mind that the values have only limited relevance

Expectation value of <S**2>     :     0.764180
Ideal value S*(S+1) for S=0.5   :     0.750000
Deviation                       :     0.014180

             **** THE GBW FILE WAS UPDATED (CURCUMIN-OPT-FREQ-TS2-WB97M-V-6-311G-D-298.gbw) ****
             **** DENSITY CURCUMIN-OPT-FREQ-TS2-WB97M-V-6-311G-D-298.scfp WAS UPDATED ****
----------------
ORBITAL ENERGIES
----------------
                 SPIN UP ORBITALS
  NO   OCC          E(Eh)            E(eV) 
   0   1.0000     -19.387802      -527.5689 
   1   1.0000     -19.373595      -527.1823 
   2   1.0000     -19.371105      -527.1146 
   3   1.0000     -19.369022      -527.0579 
   4   1.0000     -19.350402      -526.5512 
   5   1.0000     -19.349770      -526.5340 
   6   1.0000     -19.343494      -526.3632 
   7   1.0000     -19.329237      -525.9753 
   8   1.0000     -14.675171      -399.3317 
   9   1.0000     -10.461513      -284.6722 
  10   1.0000     -10.449374      -284.3419 
  11   1.0000     -10.428563      -283.7756 
  12   1.0000     -10.425746      -283.6990 
  13   1.0000     -10.411626      -283.3148 
  14   1.0000     -10.410404      -283.2815 
  15   1.0000     -10.401505      -283.0393 
  16   1.0000     -10.384438      -282.5749 
  17   1.0000     -10.383341      -282.5451 
  18   1.0000     -10.383055      -282.5373 
  19   1.0000     -10.379544      -282.4417 
  20   1.0000     -10.367686      -282.1191 
  21   1.0000     -10.366604      -282.0896 
  22   1.0000     -10.363811      -282.0136 
  23   1.0000     -10.361433      -281.9489 
  24   1.0000     -10.361166      -281.9417 
  25   1.0000     -10.358998      -281.8827 
  26   1.0000     -10.357561      -281.8436 
  27   1.0000     -10.357027      -281.8290 
  28   1.0000     -10.356535      -281.8157 
  29   1.0000     -10.356267      -281.8083 
  30   1.0000      -1.344856       -36.5954 
  31   1.0000      -1.212761       -33.0009 
  32   1.0000      -1.210592       -32.9419 
  33   1.0000      -1.192526       -32.4503 
  34   1.0000      -1.183129       -32.1946 
  35   1.0000      -1.182116       -32.1670 
  36   1.0000      -1.179531       -32.0967 
  37   1.0000      -1.170633       -31.8546 
  38   1.0000      -1.001030       -27.2394 
  39   1.0000      -0.999106       -27.1871 
  40   1.0000      -0.950080       -25.8530 
  41   1.0000      -0.940737       -25.5987 
  42   1.0000      -0.907865       -24.7043 
  43   1.0000      -0.889701       -24.2100 
  44   1.0000      -0.888054       -24.1652 
  45   1.0000      -0.876159       -23.8415 
  46   1.0000      -0.856746       -23.3132 
  47   1.0000      -0.812811       -22.1177 
  48   1.0000      -0.812001       -22.0957 
  49   1.0000      -0.797206       -21.6931 
  50   1.0000      -0.790448       -21.5092 
  51   1.0000      -0.782375       -21.2895 
  52   1.0000      -0.753500       -20.5038 
  53   1.0000      -0.742516       -20.2049 
  54   1.0000      -0.710580       -19.3359 
  55   1.0000      -0.706667       -19.2294 
  56   1.0000      -0.696300       -18.9473 
  57   1.0000      -0.674472       -18.3533 
  58   1.0000      -0.670675       -18.2500 
  59   1.0000      -0.668589       -18.1932 
  60   1.0000      -0.648277       -17.6405 
  61   1.0000      -0.633158       -17.2291 
  62   1.0000      -0.629916       -17.1409 
  63   1.0000      -0.625128       -17.0106 
  64   1.0000      -0.612811       -16.6754 
  65   1.0000      -0.610032       -16.5998 
  66   1.0000      -0.604995       -16.4628 
  67   1.0000      -0.594745       -16.1838 
  68   1.0000      -0.588840       -16.0232 
  69   1.0000      -0.586576       -15.9615 
  70   1.0000      -0.577617       -15.7178 
  71   1.0000      -0.576828       -15.6963 
  72   1.0000      -0.575199       -15.6520 
  73   1.0000      -0.565413       -15.3857 
  74   1.0000      -0.551680       -15.0120 
  75   1.0000      -0.549436       -14.9509 
  76   1.0000      -0.547174       -14.8894 
  77   1.0000      -0.543450       -14.7880 
  78   1.0000      -0.538579       -14.6555 
  79   1.0000      -0.535955       -14.5841 
  80   1.0000      -0.530534       -14.4366 
  81   1.0000      -0.529031       -14.3957 
  82   1.0000      -0.524577       -14.2745 
  83   1.0000      -0.520117       -14.1531 
  84   1.0000      -0.512349       -13.9417 
  85   1.0000      -0.501158       -13.6372 
  86   1.0000      -0.485393       -13.2082 
  87   1.0000      -0.484510       -13.1842 
  88   1.0000      -0.482269       -13.1232 
  89   1.0000      -0.480691       -13.0803 
  90   1.0000      -0.478898       -13.0315 
  91   1.0000      -0.476783       -12.9739 
  92   1.0000      -0.470445       -12.8015 
  93   1.0000      -0.468927       -12.7602 
  94   1.0000      -0.445967       -12.1354 
  95   1.0000      -0.444847       -12.1049 
  96   1.0000      -0.437068       -11.8932 
  97   1.0000      -0.406043       -11.0490 
  98   1.0000      -0.396756       -10.7963 
  99   1.0000      -0.396059       -10.7773 
 100   1.0000      -0.390093       -10.6150 
 101   1.0000      -0.389422       -10.5967 
 102   1.0000      -0.374764       -10.1978 
 103   1.0000      -0.368785       -10.0352 
 104   1.0000      -0.361182        -9.8283 
 105   1.0000      -0.347252        -9.4492 
 106   1.0000      -0.345362        -9.3978 
 107   1.0000      -0.306977        -8.3533 
 108   1.0000      -0.301989        -8.2175 
 109   0.0000      -0.020187        -0.5493 
 110   0.0000       0.007328         0.1994 
 111   0.0000       0.032909         0.8955 
 112   0.0000       0.062586         1.7031 
 113   0.0000       0.064335         1.7507 
 114   0.0000       0.081813         2.2262 
 115   0.0000       0.105763         2.8780 
 116   0.0000       0.109724         2.9857 
 117   0.0000       0.110964         3.0195 
 118   0.0000       0.119776         3.2593 
 119   0.0000       0.126558         3.4438 
 120   0.0000       0.131308         3.5731 
 121   0.0000       0.132603         3.6083 
 122   0.0000       0.139624         3.7994 
 123   0.0000       0.146022         3.9735 
 124   0.0000       0.154382         4.2009 
 125   0.0000       0.157726         4.2919 
 126   0.0000       0.169425         4.6103 
 127   0.0000       0.179929         4.8961 
 128   0.0000       0.186153         5.0655 
 129   0.0000       0.188023         5.1164 
 130   0.0000       0.189829         5.1655 
 131   0.0000       0.191380         5.2077 
 132   0.0000       0.192578         5.2403 
 133   0.0000       0.210407         5.7255 
 134   0.0000       0.212555         5.7839 
 135   0.0000       0.221099         6.0164 
 136   0.0000       0.225205         6.1281 
 137   0.0000       0.232198         6.3184 
 138   0.0000       0.233806         6.3622 
 139   0.0000       0.247416         6.7325 
 140   0.0000       0.257692         7.0122 
 141   0.0000       0.262697         7.1483 
 142   0.0000       0.270405         7.3581 
 143   0.0000       0.275544         7.4979 
 144   0.0000       0.294075         8.0022 
 145   0.0000       0.299310         8.1446 
 146   0.0000       0.310697         8.4545 
 147   0.0000       0.317533         8.6405 
 148   0.0000       0.323377         8.7995 
 149   0.0000       0.336429         9.1547 
 150   0.0000       0.343365         9.3434 
 151   0.0000       0.348310         9.4780 
 152   0.0000       0.350673         9.5423 
 153   0.0000       0.361063         9.8250 
 154   0.0000       0.364877         9.9288 
 155   0.0000       0.376910        10.2562 
 156   0.0000       0.382981        10.4214 
 157   0.0000       0.383596        10.4382 
 158   0.0000       0.387365        10.5407 
 159   0.0000       0.392645        10.6844 
 160   0.0000       0.400975        10.9111 
 161   0.0000       0.404851        11.0166 
 162   0.0000       0.409678        11.1479 
 163   0.0000       0.421707        11.4752 
 164   0.0000       0.432044        11.7565 
 165   0.0000       0.435601        11.8533 
 166   0.0000       0.439989        11.9727 
 167   0.0000       0.441311        12.0087 
 168   0.0000       0.442981        12.0541 
 169   0.0000       0.447285        12.1713 
 170   0.0000       0.450606        12.2616 
 171   0.0000       0.456149        12.4124 
 172   0.0000       0.458772        12.4838 
 173   0.0000       0.460796        12.5389 
 174   0.0000       0.461745        12.5647 
 175   0.0000       0.468307        12.7433 
 176   0.0000       0.471541        12.8313 
 177   0.0000       0.479597        13.0505 
 178   0.0000       0.485695        13.2164 
 179   0.0000       0.488459        13.2917 
 180   0.0000       0.493207        13.4208 
 181   0.0000       0.495697        13.4886 
 182   0.0000       0.503467        13.7000 
 183   0.0000       0.506532        13.7834 
 184   0.0000       0.512757        13.9528 
 185   0.0000       0.514859        14.0100 
 186   0.0000       0.520832        14.1726 
 187   0.0000       0.524010        14.2590 
 188   0.0000       0.526597        14.3294 
 189   0.0000       0.529241        14.4014 
 190   0.0000       0.536574        14.6009 
 191   0.0000       0.542046        14.7498 
 192   0.0000       0.543183        14.7808 
 193   0.0000       0.546613        14.8741 
 194   0.0000       0.552061        15.0223 
 195   0.0000       0.563628        15.3371 
 196   0.0000       0.567291        15.4368 
 197   0.0000       0.573538        15.6068 
 198   0.0000       0.574609        15.6359 
 199   0.0000       0.579504        15.7691 
 200   0.0000       0.586064        15.9476 
 201   0.0000       0.598959        16.2985 
 202   0.0000       0.599707        16.3188 
 203   0.0000       0.607768        16.5382 
 204   0.0000       0.612155        16.6576 
 205   0.0000       0.614966        16.7341 
 206   0.0000       0.618352        16.8262 
 207   0.0000       0.629960        17.1421 
 208   0.0000       0.633309        17.2332 
 209   0.0000       0.637539        17.3483 
 210   0.0000       0.642068        17.4715 
 211   0.0000       0.650835        17.7101 
 212   0.0000       0.657351        17.8874 
 213   0.0000       0.659210        17.9380 
 214   0.0000       0.661618        18.0035 
 215   0.0000       0.664794        18.0900 
 216   0.0000       0.666445        18.1349 
 217   0.0000       0.668499        18.1908 
 218   0.0000       0.673094        18.3158 
 219   0.0000       0.675723        18.3873 
 220   0.0000       0.681365        18.5409 
 221   0.0000       0.686903        18.6916 
 222   0.0000       0.692354        18.8399 
 223   0.0000       0.695297        18.9200 
 224   0.0000       0.697714        18.9858 
 225   0.0000       0.704758        19.1774 
 226   0.0000       0.706028        19.2120 
 227   0.0000       0.713621        19.4186 
 228   0.0000       0.715239        19.4626 
 229   0.0000       0.716688        19.5021 
 230   0.0000       0.720340        19.6015 
 231   0.0000       0.724063        19.7028 
 232   0.0000       0.731016        19.8920 
 233   0.0000       0.735417        20.0117 
 234   0.0000       0.736677        20.0460 
 235   0.0000       0.753500        20.5038 
 236   0.0000       0.762349        20.7446 
 237   0.0000       0.769228        20.9318 
 238   0.0000       0.770588        20.9688 
 239   0.0000       0.785392        21.3716 
 240   0.0000       0.789008        21.4700 
 241   0.0000       0.791656        21.5421 
 242   0.0000       0.803332        21.8598 
 243   0.0000       0.808758        22.0074 
 244   0.0000       0.821864        22.3641 
 245   0.0000       0.834225        22.7004 
 246   0.0000       0.835129        22.7250 
 247   0.0000       0.849484        23.1156 
 248   0.0000       0.853731        23.2312 
 249   0.0000       0.862494        23.4697 
 250   0.0000       0.865295        23.5459 
 251   0.0000       0.870549        23.6889 
 252   0.0000       0.874583        23.7986 
 253   0.0000       0.883012        24.0280 
 254   0.0000       0.884272        24.0623 
 255   0.0000       0.888138        24.1675 
 256   0.0000       0.888867        24.1873 
 257   0.0000       0.894417        24.3383 
 258   0.0000       0.899726        24.4828 
 259   0.0000       0.901590        24.5335 
 260   0.0000       0.910349        24.7719 
 261   0.0000       0.916089        24.9280 
 262   0.0000       0.921593        25.0778 
 263   0.0000       0.928296        25.2602 
 264   0.0000       0.931997        25.3609 
 265   0.0000       0.936886        25.4940 
 266   0.0000       0.948135        25.8001 
 267   0.0000       0.952772        25.9263 
 268   0.0000       0.968224        26.3467 
 269   0.0000       0.970034        26.3960 
 270   0.0000       0.980924        26.6923 
 271   0.0000       0.987978        26.8843 
 272   0.0000       0.989992        26.9391 
 273   0.0000       0.994892        27.0724 
 274   0.0000       1.000378        27.2217 
 275   0.0000       1.015238        27.6260 
 276   0.0000       1.017695        27.6929 
 277   0.0000       1.021798        27.8045 
 278   0.0000       1.033813        28.1315 
 279   0.0000       1.038588        28.2614 
 280   0.0000       1.042068        28.3561 
 281   0.0000       1.050969        28.5983 
 282   0.0000       1.060574        28.8597 
 283   0.0000       1.068700        29.0808 
 284   0.0000       1.070798        29.1379 
 285   0.0000       1.077592        29.3228 
 286   0.0000       1.078807        29.3558 
 287   0.0000       1.091423        29.6991 
 288   0.0000       1.109258        30.1845 
 289   0.0000       1.111802        30.2537 
 290   0.0000       1.130468        30.7616 
 291   0.0000       1.134536        30.8723 
 292   0.0000       1.140756        31.0416 
[...]
 52:    581.82   0.028189  142.46  0.015119  ( 0.122459 -0.010978 -0.001617)
 53:    590.82   0.014237   71.95  0.007520  ( 0.068696 -0.052679  0.005089)
 54:    597.17   0.001834    9.27  0.000958  (-0.026477  0.008432 -0.013647)
 55:    620.63   0.005154   26.04  0.002591  (-0.047220  0.018759  0.003105)
 56:    642.32   0.002682   13.55  0.001303  (-0.000065 -0.016023 -0.032347)
 57:    661.85   0.002173   10.98  0.001025  ( 0.011437 -0.011447  0.027618)
 58:    715.25   0.002932   14.82  0.001279  ( 0.013308 -0.023983  0.022955)
 59:    743.59   0.008828   44.61  0.003705  ( 0.027521  0.018817 -0.050923)
 60:    747.45   0.000868    4.39  0.000362  ( 0.018369 -0.004794  0.001420)
 61:    750.66   0.001982   10.02  0.000824  ( 0.018060 -0.010370  0.019757)
 62:    764.52   0.003280   16.58  0.001339  ( 0.035138  0.010159 -0.000994)
 63:    770.90   0.001514    7.65  0.000613  (-0.008549  0.004113 -0.022865)
 64:    784.87   0.001162    5.87  0.000462  (-0.003475  0.021133  0.001817)
 65:    818.81   0.006416   32.42  0.002445  (-0.045064 -0.010297 -0.017561)
 66:    822.50   0.004858   24.55  0.001843  (-0.033309  0.014671 -0.022769)
 67:    828.55   0.013794   69.71  0.005196  (-0.022013  0.000805  0.068632)
 68:    834.90   0.019379   97.93  0.007243  (-0.035133  0.041500  0.065474)
 69:    872.10   0.002263   11.43  0.000810  (-0.008740 -0.001415  0.027042)
 70:    887.56   0.000536    2.71  0.000188  ( 0.013326 -0.000994  0.003143)
 71:    912.99   0.046778  236.40  0.015989  (-0.083138  0.090603  0.029462)
 72:    917.77   0.001951    9.86  0.000663  (-0.014419  0.011617 -0.017899)
 73:    919.72   0.017850   90.21  0.006057  (-0.059889  0.048457 -0.011041)
 74:    936.93   0.079348  400.99  0.026428  ( 0.066579 -0.147034 -0.019412)
 75:    945.25   0.061873  312.68  0.020427  (-0.078500 -0.019983  0.117750)
 76:    956.17   0.000657    3.32  0.000215  (-0.000855  0.004582 -0.013885)
 77:    958.50   0.006781   34.27  0.002208  (-0.019449  0.004357  0.042548)
 78:    972.17   0.007033   35.54  0.002258  ( 0.027859  0.014192  0.035777)
 79:    974.87   0.007586   38.34  0.002428  (-0.033957  0.033900  0.011227)
 80:    976.47   0.001608    8.13  0.000514  ( 0.000299 -0.010370  0.020159)
 81:   1001.66   0.011131   56.25  0.003468  ( 0.021182 -0.010837 -0.053869)
 82:   1029.19   0.011015   55.66  0.003340  ( 0.018060 -0.040819 -0.036709)
 83:   1057.30   0.025465  128.69  0.007516  (-0.074537 -0.005400  0.043944)
 84:   1058.83   0.024422  123.42  0.007198  (-0.047168 -0.062385 -0.032877)
 85:   1143.68   0.035891  181.38  0.009793  ( 0.083632 -0.052457  0.006862)
 86:   1144.81   0.042609  215.33  0.011615  ( 0.049251 -0.088550  0.036715)
 87:   1177.54   0.003990   20.16  0.001057  (-0.030615  0.009883 -0.004730)
 88:   1177.64   0.002440   12.33  0.000647  ( 0.024488  0.005960 -0.003388)
 89:   1187.84   0.002188   11.06  0.000575  ( 0.008942 -0.018591 -0.012213)
 90:   1189.68   0.006068   30.67  0.001592  ( 0.018795 -0.026775  0.022839)
 91:   1198.81   0.057645  291.32  0.015006  (-0.122402  0.000399 -0.004830)
 92:   1201.83   0.066068  333.88  0.017155  ( 0.122808  0.045139 -0.005968)
 93:   1203.60   0.025795  130.36  0.006688  (-0.080879 -0.011988 -0.001705)
 94:   1222.38   0.024480  123.71  0.006250  (-0.057280  0.053101 -0.012206)
 95:   1224.10   0.008376   42.33  0.002135  ( 0.040586 -0.020210  0.008923)
 96:   1261.70   0.026983  136.36  0.006674  ( 0.081563 -0.002684 -0.003765)
 97:   1267.80   0.002988   15.10  0.000736  ( 0.002409 -0.025379  0.009254)
 98:   1287.76   0.046591  235.45  0.011290  ( 0.084735  0.063034 -0.011708)
 99:   1290.72   0.056876  287.43  0.013751  (-0.117205  0.002455 -0.002858)
100:   1302.46   0.055889  282.44  0.013391  (-0.102547  0.053181 -0.006819)
101:   1312.06   0.008294   41.91  0.001973  (-0.041457 -0.012602  0.009752)
102:   1320.20   0.130066  657.30  0.030744  ( 0.165342 -0.055333  0.018565)
103:   1327.53   0.105851  534.93  0.024882  (-0.152106 -0.041461  0.005228)
104:   1348.81   0.001329    6.72  0.000307  (-0.016391 -0.005302  0.003268)
105:   1361.21   0.028821  145.65  0.006607  ( 0.080168 -0.013303 -0.001874)
106:   1364.40   0.007507   37.94  0.001717  (-0.037968 -0.016008  0.004383)
107:   1378.58   0.031174  157.54  0.007057  (-0.076124 -0.034507  0.008441)
108:   1385.46   0.041552  209.99  0.009359  (-0.093132  0.021964 -0.014255)
109:   1405.83   0.063521  321.01  0.014100  ( 0.114653  0.017992 -0.025126)
110:   1458.16   0.067996  343.63  0.014552  ( 0.074755 -0.020623 -0.092404)
111:   1468.16   0.001856    9.38  0.000394  (-0.012618 -0.013846  0.006598)
112:   1468.24   0.000610    3.08  0.000130  ( 0.011037  0.001770  0.002147)
113:   1484.75   0.002902   14.66  0.000610  (-0.010122  0.021634 -0.006279)
114:   1485.29   0.002684   13.56  0.000564  (-0.019027  0.013824 -0.003276)
115:   1496.72   0.012169   61.50  0.002537  (-0.050215 -0.002418 -0.003143)
116:   1497.57   0.006946   35.10  0.001447  (-0.023292 -0.029128  0.007517)
117:   1500.47   0.000525    2.65  0.000109  (-0.001881 -0.008359 -0.005984)
118:   1501.84   0.000907    4.58  0.000188  (-0.007036 -0.006433  0.009877)
119:   1561.93   0.121736  615.21  0.024322  ( 0.154486  0.021151 -0.002971)
120:   1562.45   0.026746  135.16  0.005342  ( 0.047744 -0.050699  0.022181)
121:   1637.47   0.323600  1635.34  0.061671  ( 0.163375 -0.176327  0.062353)
122:   1650.30   0.046795  236.48  0.008849  ( 0.000217  0.091134  0.023305)
123:   1663.26   0.015746   79.57  0.002954  ( 0.026454 -0.045547  0.013414)
124:   1666.47   0.010095   51.02  0.001890  ( 0.034333 -0.018069  0.019627)
125:   1679.85   0.042349  214.01  0.007867  (-0.085271  0.020119 -0.013822)
126:   1681.96   0.014111   71.31  0.002618  (-0.050428  0.007994  0.003343)
127:   1703.74   0.066050  333.79  0.012098  ( 0.086493 -0.066724  0.012840)
128:   1717.10   0.088985  449.70  0.016172  (-0.123418  0.010728 -0.028721)
129:   1776.66   0.031231  157.83  0.005486  ( 0.067122 -0.005533 -0.030816)
130:   3043.68   0.013842   69.95  0.001419  ( 0.006945  0.031685  0.019157)
131:   3044.71   0.013577   68.61  0.001392  (-0.022822 -0.008594  0.028229)
132:   3118.88   0.010212   51.61  0.001022  ( 0.031585 -0.004058 -0.002775)
133:   3119.05   0.009698   49.01  0.000970  (-0.021900  0.019525 -0.010462)
134:   3162.65   0.008259   41.74  0.000815  ( 0.006479  0.019944 -0.019368)
135:   3164.51   0.008133   41.10  0.000802  ( 0.019202  0.018215  0.010075)
136:   3175.23   0.000376    1.90  0.000037  (-0.004564 -0.000382  0.004003)
137:   3179.63   0.003640   18.40  0.000357  ( 0.018717 -0.002493  0.000850)
138:   3183.93   0.002739   13.84  0.000268  ( 0.013311 -0.009110  0.002871)
139:   3186.02   0.001603    8.10  0.000157  (-0.009375 -0.006384  0.005324)
140:   3189.97   0.000888    4.49  0.000087  ( 0.008826 -0.000214  0.002983)
141:   3194.93   0.001768    8.94  0.000173  ( 0.013019  0.000991  0.001495)
142:   3199.43   0.002460   12.43  0.000240  (-0.001250  0.012685 -0.008801)
143:   3200.05   0.002828   14.29  0.000276  ( 0.006025  0.015460  0.000716)
144:   3202.40   0.000733    3.71  0.000071  ( 0.000436  0.007579 -0.003719)
145:   3208.23   0.001150    5.81  0.000112  (-0.008294 -0.006554 -0.000311)
146:   3220.70   0.000097    0.49  0.000009  ( 0.001569 -0.002589 -0.000501)
147:   3322.78   0.360330  1820.96  0.033841  ( 0.164776 -0.079846 -0.017726)
148:   3805.29   0.038625  195.20  0.003168  ( 0.050110 -0.022132  0.012913)
149:   3806.12   0.038120  192.64  0.003125  ( 0.027006 -0.048263  0.008173)

* The epsilon (eps) is given for a Dirac delta lineshape.
** The dipole moment derivative (T) already includes vibrational overlap.

The first frequency considered to be a vibration is 6
The total number of vibrations considered is 144


--------------------------
THERMOCHEMISTRY AT 298.15K
--------------------------

Temperature         ... 298.15 K
Pressure            ... 1.00 atm
Total Mass          ... 414.39 AMU

Throughout the following assumptions are being made:
  (1) The electronic state is orbitally nondegenerate
      but the spin degeneracy is treated
  (2) There are no thermally accessible electronically excited states
  (3) Hindered rotations indicated by low frequency modes are not
      treated as such but are treated as vibrations and this may
      cause some error
  (4) All equations used are the standard statistical mechanics
      equations for an ideal gas
  (5) All vibrations are strictly harmonic

freq.      12.07  E(vib)   ...       0.58 
freq.      19.33  E(vib)   ...       0.57 
freq.      23.14  E(vib)   ...       0.56 
freq.      24.37  E(vib)   ...       0.56 
freq.      36.08  E(vib)   ...       0.54 
freq.      44.65  E(vib)   ...       0.53 
freq.      53.08  E(vib)   ...       0.52 
freq.      64.77  E(vib)   ...       0.50 
freq.      65.98  E(vib)   ...       0.50 
freq.      70.24  E(vib)   ...       0.50 
freq.      80.49  E(vib)   ...       0.48 
freq.      94.52  E(vib)   ...       0.47 
freq.     104.97  E(vib)   ...       0.46 
freq.     109.62  E(vib)   ...       0.45 
freq.     119.52  E(vib)   ...       0.44 
freq.     132.23  E(vib)   ...       0.42 
freq.     143.55  E(vib)   ...       0.41 
freq.     150.25  E(vib)   ...       0.40 
freq.     159.46  E(vib)   ...       0.39 
freq.     163.20  E(vib)   ...       0.39 
freq.     170.42  E(vib)   ...       0.38 
freq.     172.02  E(vib)   ...       0.38 
freq.     184.86  E(vib)   ...       0.37 
freq.     196.07  E(vib)   ...       0.36 
freq.     221.45  E(vib)   ...       0.33 
freq.     230.60  E(vib)   ...       0.32 
freq.     250.62  E(vib)   ...       0.30 
freq.     300.75  E(vib)   ...       0.26 
freq.     305.68  E(vib)   ...       0.26 
freq.     324.73  E(vib)   ...       0.24 
freq.     332.68  E(vib)   ...       0.24 
freq.     337.17  E(vib)   ...       0.24 
freq.     346.32  E(vib)   ...       0.23 
freq.     390.48  E(vib)   ...       0.20 
freq.     398.60  E(vib)   ...       0.19 
freq.     403.37  E(vib)   ...       0.19 
freq.     414.55  E(vib)   ...       0.19 
freq.     420.88  E(vib)   ...       0.18 
freq.     433.56  E(vib)   ...       0.17 
freq.     467.55  E(vib)   ...       0.16 
freq.     471.78  E(vib)   ...       0.15 
freq.     502.36  E(vib)   ...       0.14 
freq.     502.88  E(vib)   ...       0.14 
freq.     547.52  E(vib)   ...       0.12 
freq.     554.00  E(vib)   ...       0.12 
freq.     577.31  E(vib)   ...       0.11 
freq.     581.82  E(vib)   ...       0.11 
freq.     590.82  E(vib)   ...       0.10 
freq.     597.17  E(vib)   ...       0.10 
freq.     620.63  E(vib)   ...       0.09 
freq.     642.32  E(vib)   ...       0.09 
freq.     661.85  E(vib)   ...       0.08 
freq.     715.25  E(vib)   ...       0.07 
freq.     743.59  E(vib)   ...       0.06 
freq.     747.45  E(vib)   ...       0.06 
freq.     750.66  E(vib)   ...       0.06 
freq.     764.52  E(vib)   ...       0.06 
freq.     770.90  E(vib)   ...       0.05 
freq.     784.87  E(vib)   ...       0.05 
freq.     818.81  E(vib)   ...       0.05 
freq.     822.50  E(vib)   ...       0.05 
freq.     828.55  E(vib)   ...       0.04 
freq.     834.90  E(vib)   ...       0.04 
freq.     872.10  E(vib)   ...       0.04 
freq.     887.56  E(vib)   ...       0.04 
freq.     912.99  E(vib)   ...       0.03 
freq.     917.77  E(vib)   ...       0.03 
freq.     919.72  E(vib)   ...       0.03 
freq.     936.93  E(vib)   ...       0.03 
freq.     945.25  E(vib)   ...       0.03 
freq.     956.17  E(vib)   ...       0.03 
freq.     958.50  E(vib)   ...       0.03 
freq.     972.17  E(vib)   ...       0.03 
freq.     974.87  E(vib)   ...       0.03 
freq.     976.47  E(vib)   ...       0.03 
freq.    1001.66  E(vib)   ...       0.02 
freq.    1029.19  E(vib)   ...       0.02 
freq.    1057.30  E(vib)   ...       0.02 
freq.    1058.83  E(vib)   ...       0.02 
freq.    1143.68  E(vib)   ...       0.01 
freq.    1144.81  E(vib)   ...       0.01 
freq.    1177.54  E(vib)   ...       0.01 
freq.    1177.64  E(vib)   ...       0.01 
freq.    1187.84  E(vib)   ...       0.01 
freq.    1189.68  E(vib)   ...       0.01 
freq.    1198.81  E(vib)   ...       0.01 
freq.    1201.83  E(vib)   ...       0.01 
freq.    1203.60  E(vib)   ...       0.01 
freq.    1222.38  E(vib)   ...       0.01 
freq.    1224.10  E(vib)   ...       0.01 
freq.    1261.70  E(vib)   ...       0.01 
freq.    1267.80  E(vib)   ...       0.01 
freq.    1287.76  E(vib)   ...       0.01 
freq.    1290.72  E(vib)   ...       0.01 
freq.    1302.46  E(vib)   ...       0.01 
freq.    1312.06  E(vib)   ...       0.01 
freq.    1320.20  E(vib)   ...       0.01 
freq.    1327.53  E(vib)   ...       0.01 
freq.    1348.81  E(vib)   ...       0.01 
freq.    1361.21  E(vib)   ...       0.01 
freq.    1364.40  E(vib)   ...       0.01 
freq.    1378.58  E(vib)   ...       0.01 
freq.    1385.46  E(vib)   ...       0.00 
freq.    1405.83  E(vib)   ...       0.00 
freq.    1458.16  E(vib)   ...       0.00 
freq.    1468.16  E(vib)   ...       0.00 
freq.    1468.24  E(vib)   ...       0.00 
freq.    1484.75  E(vib)   ...       0.00 
freq.    1485.29  E(vib)   ...       0.00 
freq.    1496.72  E(vib)   ...       0.00 
freq.    1497.57  E(vib)   ...       0.00 
freq.    1500.47  E(vib)   ...       0.00 
freq.    1501.84  E(vib)   ...       0.00 
freq.    1561.93  E(vib)   ...       0.00 
freq.    1562.45  E(vib)   ...       0.00 
freq.    1637.47  E(vib)   ...       0.00 
freq.    1650.30  E(vib)   ...       0.00 
freq.    1663.26  E(vib)   ...       0.00 
freq.    1666.47  E(vib)   ...       0.00 
freq.    1679.85  E(vib)   ...       0.00 
freq.    1681.96  E(vib)   ...       0.00 
freq.    1703.74  E(vib)   ...       0.00 
freq.    1717.10  E(vib)   ...       0.00 
freq.    1776.66  E(vib)   ...       0.00 
freq.    3043.68  E(vib)   ...       0.00 
freq.    3044.71  E(vib)   ...       0.00 
freq.    3118.88  E(vib)   ...       0.00 
freq.    3119.05  E(vib)   ...       0.00 
freq.    3162.65  E(vib)   ...       0.00 
freq.    3164.51  E(vib)   ...       0.00 
freq.    3175.23  E(vib)   ...       0.00 
freq.    3179.63  E(vib)   ...       0.00 
freq.    3183.93  E(vib)   ...       0.00 
freq.    3186.02  E(vib)   ...       0.00 
freq.    3189.97  E(vib)   ...       0.00 
freq.    3194.93  E(vib)   ...       0.00 
freq.    3199.43  E(vib)   ...       0.00 
freq.    3200.05  E(vib)   ...       0.00 
freq.    3202.40  E(vib)   ...       0.00 
freq.    3208.23  E(vib)   ...       0.00 
freq.    3220.70  E(vib)   ...       0.00 
freq.    3322.78  E(vib)   ...       0.00 
freq.    3805.29  E(vib)   ...       0.00 
freq.    3806.12  E(vib)   ...       0.00 

------------
INNER ENERGY
------------

The inner energy is: U= E(el) + E(ZPE) + E(vib) + E(rot) + E(trans)
    E(el)   - is the total energy from the electronic structure calculation
              = E(kin-el) + E(nuc-el) + E(el-el) + E(nuc-nuc)
    E(ZPE)  - the the zero temperature vibrational energy from the frequency calculation
    E(vib)  - the the finite temperature correction to E(ZPE) due to population
              of excited vibrational states
    E(rot)  - is the rotational thermal energy
    E(trans)- is the translational thermal energy

Summary of contributions to the inner energy U:
Electronic energy                ...  -1468.49372962 Eh
Zero point energy                ...      0.38013703 Eh     238.54 kcal/mol
Thermal vibrational correction   ...      0.02790197 Eh      17.51 kcal/mol
Thermal rotational correction    ...      0.00141627 Eh       0.89 kcal/mol
Thermal translational correction ...      0.00141627 Eh       0.89 kcal/mol
-----------------------------------------------------------------------
Total thermal energy                  -1468.08285807 Eh


Summary of corrections to the electronic energy:
(perhaps to be used in another calculation)
Total thermal correction                  0.03073452 Eh      19.29 kcal/mol
Non-thermal (ZPE) correction              0.38013703 Eh     238.54 kcal/mol
-----------------------------------------------------------------------
Total correction                          0.41087155 Eh     257.83 kcal/mol


--------
ENTHALPY
--------

The enthalpy is H = U + kB*T
                kB is Boltzmann's constant
Total free energy                 ...  -1468.08285807 Eh 
Thermal Enthalpy correction       ...      0.00094421 Eh       0.59 kcal/mol
-----------------------------------------------------------------------
Total Enthalpy                    ...  -1468.08191386 Eh


Note: Only C1 symmetry has been detected, increase convergence thresholds 
      if your molecule has a higher symmetry. Symmetry factor of 1.0 is   
      used for the rotational entropy correction. 
 

Note: Rotational entropy computed according to Herzberg 
Infrared and Raman Spectra, Chapter V,1, Van Nostrand Reinhold, 1945 
Point Group:  C1, Symmetry Number:   1  
Rotational constants in cm-1:     0.010413     0.001490     0.001327 

Vibrational entropy computed according to the QRRHO of S. Grimme
Chem.Eur.J. 2012 18 9955


-------
ENTROPY
-------

The entropy contributions are T*S = T*(S(el)+S(vib)+S(rot)+S(trans))
     S(el)   - electronic entropy
     S(vib)  - vibrational entropy
     S(rot)  - rotational entropy
     S(trans)- translational entropy
The entropies will be listed as multiplied by the temperature to get
units of energy

Electronic entropy                ...      0.00065446 Eh      0.41 kcal/mol
Vibrational entropy               ...      0.05164314 Eh     32.41 kcal/mol
Rotational entropy                ...      0.01786623 Eh     11.21 kcal/mol
Translational entropy             ...      0.02088467 Eh     13.11 kcal/mol
-----------------------------------------------------------------------
Final entropy term                ...      0.09104848 Eh     57.13 kcal/mol

In case the symmetry of your molecule has not been determined correctly
or in case you have a reason to use a different symmetry number we print 
out the resulting rotational entropy values for sn=1,12 :
 --------------------------------------------------------
|  sn= 1 | S(rot)=       0.01786623 Eh     11.21 kcal/mol|
|  sn= 2 | S(rot)=       0.01721177 Eh     10.80 kcal/mol|
|  sn= 3 | S(rot)=       0.01682894 Eh     10.56 kcal/mol|
|  sn= 4 | S(rot)=       0.01655731 Eh     10.39 kcal/mol|
|  sn= 5 | S(rot)=       0.01634663 Eh     10.26 kcal/mol|
|  sn= 6 | S(rot)=       0.01617448 Eh     10.15 kcal/mol|
|  sn= 7 | S(rot)=       0.01602894 Eh     10.06 kcal/mol|
|  sn= 8 | S(rot)=       0.01590286 Eh      9.98 kcal/mol|
|  sn= 9 | S(rot)=       0.01579165 Eh      9.91 kcal/mol|
|  sn=10 | S(rot)=       0.01569217 Eh      9.85 kcal/mol|
|  sn=11 | S(rot)=       0.01560218 Eh      9.79 kcal/mol|
|  sn=12 | S(rot)=       0.01552002 Eh      9.74 kcal/mol|
 --------------------------------------------------------


-------------------
GIBBS FREE ENERGY
-------------------

The Gibbs free energy is G = H - T*S

Total enthalpy                    ...  -1468.08191386 Eh 
Total entropy correction          ...     -0.09104848 Eh    -57.13 kcal/mol
-----------------------------------------------------------------------
Final Gibbs free energy         ...  -1468.17296234 Eh

For completeness - the Gibbs free energy minus the electronic energy
G-E(el)                           ...      0.32076727 Eh    201.28 kcal/mol



Timings for individual modules:

Sum of individual times         ...   843705.273 sec (=14061.755 min)
GTO integral calculation        ...      187.188 sec (=   3.120 min)   0.0 %
SCF iterations                  ...   191724.026 sec (=3195.400 min)  22.7 %
SCF Gradient evaluation         ...    42087.625 sec (= 701.460 min)   5.0 %
Geometry relaxation             ...       17.463 sec (=   0.291 min)   0.0 %
Numerical frequency calculation ...   609688.970 sec (=10161.483 min)  72.3 %
                             ****ORCA TERMINATED NORMALLY****
TOTAL RUN TIME: 9 days 17 hours 59 minutes 51 seconds 509 msec
